Title
82269
    1SAPS     N    1   3.084   3.480  11.270 -0.0903  0.4044  0.4986
    1SAPS   HN1    2   3.085   3.496  11.167  1.7251  1.0469  0.5999
    1SAPS   HN2    3   3.153   3.408  11.300 -0.1978  0.6893  1.4536
    1SAPS   HN3    4   2.996   3.433  11.302  0.0300  0.2819  0.6511
    1SAPS   C12    5   3.102   3.604  11.347 -0.0912 -0.2086  0.2013
    1SAPS  H12A    6   3.055   3.686  11.296 -0.2510 -0.5923 -0.2650
    1SAPS   C13    7   3.051   3.598  11.500 -0.2160  0.1582  0.2417
    1SAPS  O13A    8   2.991   3.497  11.548  0.5222 -0.7628 -0.3475
    1SAPS  O13B    9   3.079   3.697  11.572 -0.1261  0.2113 -0.1339
    1SAPS   C11   10   3.250   3.646  11.337  0.2060 -0.3694 -0.4919
    1SAPS  H11A   11   3.312   3.573  11.393  1.3523  0.1737 -1.0515
    1SAPS  H11B   12   3.261   3.739  11.398 -0.1943 -0.3949 -0.3770
    1SAPS     P   13   3.422   3.714  11.145  0.3870 -0.2224  0.1096
    1SAPS   O13   14   3.487   3.797  11.249 -0.4593 -0.4894 -0.2665
    1SAPS   O14   15   3.499   3.590  11.098  0.1784 -0.2113  0.5388
    1SAPS   O12   16   3.284   3.658  11.197 -0.2848 -0.2431 -0.1952
    1SAPS   O11   17   3.388   3.799  11.021  0.0522 -0.0340 -0.0239
    1SAPS    C1   18   3.290   3.753  10.926  0.2796  0.4139  0.0720
    1SAPS    HA   19   3.329   3.656  10.887 -2.1278 -0.9037  0.8608
    1SAPS    HB   20   3.192   3.732  10.973  0.0302  0.6164 -0.3536
    1SAPS    C2   21   3.278   3.845  10.802  0.0559  0.4003  0.6586
    1SAPS    HS   22   3.207   3.928  10.821 -1.5629 -0.7683 -0.1080
    1SAPS   O21   23   3.235   3.756  10.694  0.3563 -0.1623  0.0139
    1SAPS   C21   24   3.101   3.737  10.688  0.2801  0.1892 -0.3107
    1SAPS   O22   25   3.017   3.796  10.755 -1.0079 -0.5129  0.2085
    1SAPS   C22   26   3.067   3.640  10.582 -1.0385  0.4259  0.1052
    1SAPS   H2R   27   3.129   3.655  10.491 -1.1336 -3.7760 -0.7689
    1SAPS   H2S   28   3.094   3.534  10.603  1.6266  0.7384 -1.5210
    1SAPS    C3   29   3.414   3.911  10.768 -0.3371 -0.0197  0.1873
    1SAPS    HX   30   3.486   3.830  10.743 -1.8594 -0.7648 -1.8597
    1SAPS    HY   31   3.448   3.964  10.860  3.0751 -0.0574 -0.9667
    1SAPS   O31   32   3.389   4.003  10.658 -0.0657 -0.2367  0.5282
    1SAPS   C31   33   3.500   4.039  10.599  0.5595  0.5952 -0.1816
    1SAPS   O32   34   3.614   4.013  10.640 -0.4194 -0.2229  0.5484
    1SAPS   C32   35   3.462   4.093  10.459 -0.2055 -0.0003 -0.8044
    1SAPS   H2X   36   3.482   4.202  10.459 -1.3089  0.2125 -0.2714
    1SAPS   H2Y   37   3.352   4.094  10.445 -0.2951 -2.2075 -0.4683
    1SAPS   C23   38   2.919   3.641  10.542 -0.0434  0.2462 -0.1557
    1SAPS   H3R   39   2.891   3.748  10.528  0.3995  0.3145 -0.5071
    1SAPS   H3S   40   2.855   3.605  10.625 -1.5251 -2.5210 -2.3974
    1SAPS   C24   41   2.894   3.562  10.410 -0.1307  0.2005 -0.5040
    1SAPS   H4R   42   2.971   3.587  10.334 -0.5815  1.3987 -0.5893
    1SAPS   H4S   43   2.799   3.594  10.363  0.4791  2.7832 -0.0980
    1SAPS   C25   44   2.899   3.418  10.439  0.3833  0.4942  0.1976
    1SAPS   H5R   45   2.918   3.390  10.543  0.8266  1.1071  0.2813
    1SAPS   C26   46   2.908   3.318  10.340 -0.2069 -0.1267 -0.0118
    1SAPS   H6R   47   2.910   3.215  10.377 -0.2580 -0.3769 -0.6918
    1SAPS   C27   48   2.911   3.336  10.189 -0.0312  0.1665  0.5704
    1SAPS   H7R   49   2.879   3.441  10.170 -1.9154 -0.4017  0.5223
    1SAPS   H7S   50   2.829   3.283  10.135 -0.2366  1.5868 -0.5530
    1SAPS   C28   51   3.048   3.319  10.124 -0.3815 -0.2468 -0.1051
    1SAPS   H8R   52   3.128   3.286  10.191  1.2182  1.7037 -1.0031
    1SAPS   C29   53   3.081   3.363  10.002 -0.7264 -0.3627  0.5248
    1SAPS   H9R   54   3.181   3.363   9.957 -0.3227  3.2097  1.2569
    1SAPS  C210   55   2.990   3.437   9.904  0.0949 -0.4029  0.2814
    1SAPS  H10R   56   3.052   3.495   9.832 -1.1965 -1.2880 -1.5849
    1SAPS  H10S   57   2.921   3.506   9.958 -1.4829 -1.4894 -0.3023
    1SAPS  C211   58   2.908   3.338   9.824  0.0142  0.6470  0.2406
    1SAPS  H11R   59   2.861   3.256   9.880  0.6292 -0.3970 -0.7541
    1SAPS  C212   60   2.890   3.342   9.690  0.2779  0.4462  0.0886
    1SAPS  H12R   61   2.838   3.258   9.642 -0.6067 -0.0447  1.8744
    1SAPS  C213   62   2.944   3.446   9.590 -0.1210  0.5028 -0.4122
    1SAPS  H13R   63   3.049   3.425   9.559 -0.5300  0.1131 -1.5633
    1SAPS  H13S   64   2.957   3.546   9.636  3.4835  0.2643 -0.7522
    1SAPS  C214   65   2.858   3.468   9.472 -0.4402  0.3025 -0.1462
    1SAPS  H14R   66   2.763   3.521   9.486  0.3637  1.2618  1.8996
    1SAPS  C215   67   2.887   3.423   9.347  0.4209  0.1095 -0.2166
    1SAPS  H15R   68   2.817   3.438   9.264  0.4064  0.7113 -0.1013
    1SAPS  C216   69   3.008   3.344   9.308 -0.1943  0.5247 -0.4318
    1SAPS  H16R   70   3.032   3.268   9.386  1.4711  1.8180  0.3355
    1SAPS  H16S   71   3.094   3.414   9.312  0.0825  0.1740 -0.3018
    1SAPS  C217   72   3.009   3.285   9.169  0.3964 -0.1019  0.6136
    1SAPS  H17R   73   3.009   3.373   9.101 -1.4275  0.4724  1.3122
    1SAPS  H17S   74   2.916   3.230   9.139 -0.8799  2.3875 -0.1147
    1SAPS  C218   75   3.138   3.205   9.150 -0.2040 -0.1002 -0.4014
    1SAPS  H18R   76   3.156   3.127   9.227  2.2319  1.7837  1.0481
    1SAPS  H18S   77   3.210   3.288   9.165  0.2288 -0.9396  2.6497
    1SAPS  C219   78   3.151   3.148   9.003 -0.3026 -0.2059 -0.0576
    1SAPS  H19R   79   3.141   3.230   8.928 -0.0780 -0.6285 -0.5462
    1SAPS  H19S   80   3.055   3.094   8.993 -1.3242  1.7239 -1.0282
    1SAPS  C220   81   3.270   3.070   8.978  0.4599 -0.6515 -0.0583
    1SAPS  H20R   82   3.353   3.143   8.973 -0.7910  0.8320  0.4456
    1SAPS  H20S   83   3.255   2.999   8.894 -4.2200  0.4987 -0.3592
    1SAPS  H20T   84   3.293   3.001   9.062 -2.2255 -0.9744  0.4604
    1SAPS   C33   85   3.523   4.007  10.345  0.8042  0.7781  0.4067
    1SAPS   H3X   86   3.477   3.906  10.346 -0.7631  1.4685 -0.5838
    1SAPS   H3Y   87   3.626   3.976  10.371  1.0797  0.5795 -0.8825
    1SAPS   C34   88   3.525   4.078  10.210 -0.1904 -0.0930  0.0887
    1SAPS   H4X   89   3.595   4.164  10.221 -1.2890  0.7022  0.9003
    1SAPS   H4Y   90   3.424   4.118  10.188  0.3486  1.8337  0.9284
    1SAPS   C35   91   3.587   3.992  10.102 -0.3581  0.3988  0.1195
    1SAPS   H5X   92   3.553   3.886  10.103 -2.2670  0.9828  2.1064
    1SAPS   H5Y   93   3.694   3.976  10.127 -0.2768 -1.1468 -1.1997
    1SAPS   C36   94   3.575   4.050   9.956  0.0996  0.0194 -0.2668
    1SAPS   H6X   95   3.602   4.158   9.961 -1.4851  0.4187  0.0020
    1SAPS   H6Y   96   3.466   4.040   9.937 -0.2676  1.5960  0.9579
    1SAPS   C37   97   3.648   3.978   9.842  0.1182 -0.3966 -0.6598
    1SAPS   H7X   98   3.624   3.870   9.848  1.2656 -0.5783  0.8489
    1SAPS   H7Y   99   3.755   3.977   9.874 -0.4877 -1.9792  1.4050
    1SAPS   C38  100   3.625   4.025   9.696  0.0492 -0.3988 -0.1220
    1SAPS   H8X  101   3.671   4.123   9.671 -0.4483 -0.1633 -0.1066
    1SAPS   H8Y  102   3.520   4.015   9.663 -0.1033 -0.9756  0.5163
    1SAPS   C39  103   3.702   3.931   9.598 -0.5547  0.0463 -0.3147
    1SAPS   H9X  104   3.652   3.832   9.598 -1.6688  0.5881 -1.6383
    1SAPS   H9Y  105   3.799   3.918   9.649  0.0531  0.2026 -1.4135
    1SAPS  C310  106   3.728   4.008   9.467  0.6443 -0.1460 -0.4372
    1SAPS  H10X  107   3.789   3.945   9.400  0.6887  1.4224 -1.9014
    1SAPS  H10Y  108   3.792   4.094   9.495  0.2114 -0.3222  1.1665
    1SAPS  C311  109   3.593   4.025   9.399  0.2161 -0.5272  0.2791
    1SAPS  H11X  110   3.532   4.100   9.454 -0.6857 -1.5163  0.6467
    1SAPS  H11Y  111   3.528   3.936   9.413 -1.5927  0.8535  0.9399
    1SAPS  C312  112   3.588   4.046   9.251  0.0629  1.1025  0.6927
    1SAPS  H12X  113   3.635   4.145   9.234  0.7289  0.8041  0.8040
    1SAPS  H12Y  114   3.482   4.041   9.215  0.2841 -0.8282  0.2216
    1SAPS  C313  115   3.673   3.943   9.171 -0.3705  0.1329 -0.2911
    1SAPS  H13X  116   3.662   3.855   9.237 -1.5046 -0.1473 -0.8373
    1SAPS  H13Y  117   3.782   3.962   9.177 -0.1879  0.6238 -4.1256
    1SAPS  C314  118   3.626   3.914   9.031 -0.1867  0.2630  0.4165
    1SAPS  H14X  119   3.516   3.901   9.040 -0.0313 -0.8222  0.7672
    1SAPS  H14Y  120   3.674   3.816   9.011 -1.8387 -0.2328 -1.2692
    1SAPS  C315  121   3.663   4.018   8.922 -0.3412  0.2340  0.2296
    1SAPS  H15X  122   3.772   4.037   8.931  0.2621 -1.9750 -1.8761
    1SAPS  H15Y  123   3.609   4.109   8.955  0.6491  0.2477  1.8950
    1SAPS  C316  124   3.616   3.979   8.778  0.0241  0.3869  0.0184
    1SAPS  H16X  125   3.595   4.075   8.726 -1.8928  0.6910  1.3294
    1SAPS  H16Y  126   3.519   3.928   8.793  0.9523 -1.2656  0.5298
    1SAPS  C317  127   3.709   3.883   8.703 -0.3897  0.5170 -0.8955
    1SAPS  H17X  128   3.670   3.855   8.603  0.2036 -0.9087 -0.7437
    1SAPS  H17Y  129   3.716   3.787   8.760 -3.3131  0.0206 -1.3196
    1SAPS  C318  130   3.843   3.953   8.680  0.0864  0.1120  0.2768
    1SAPS  H18X  131   3.820   4.046   8.623 -1.5421 -0.3490  0.1550
    1SAPS  H18Y  132   3.914   3.887   8.626 -0.1572  1.6560 -1.9880
    1SAPS  H18Z  133   3.893   3.970   8.778 -0.8126  0.4876  0.6825
    2SAPS     N  134   1.518   3.166  11.009 -0.0680  0.1895  0.0632
    2SAPS   HN1  135   1.571   3.226  11.075 -0.7177 -1.1387  1.8320
    2SAPS   HN2  136   1.491   3.078  11.058 -0.5823  0.9158  1.0959
    2SAPS   HN3  137   1.570   3.155  10.920 -1.1509  0.8438 -0.6707
    2SAPS   C12  138   1.388   3.245  10.982  0.2242 -0.3469 -0.4744
    2SAPS  H12A  139   1.336   3.202  10.898 -0.1282 -0.3862 -0.2400
    2SAPS   C13  140   1.283   3.253  11.097 -0.2548  0.1841 -0.2386
    2SAPS  O13A  141   1.299   3.185  11.202 -0.5083  0.1724 -0.3041
    2SAPS  O13B  142   1.190   3.333  11.085  0.7493  0.1177  0.8947
    2SAPS   C11  143   1.430   3.397  10.947  0.1693  0.5349 -0.1455
    2SAPS  H11A  144   1.467   3.454  11.035  1.5455 -1.3047  0.5047
    2SAPS  H11B  145   1.331   3.437  10.916 -0.2219  0.2728  0.7561
    2SAPS     P  146   1.537   3.539  10.758  0.2072 -0.2173 -0.0930
    2SAPS   O13  147   1.437   3.545  10.645 -0.8524 -0.0948 -0.6588
    2SAPS   O14  148   1.525   3.649  10.855 -0.4645 -0.0165 -0.0371
    2SAPS   O12  149   1.515   3.398  10.831  1.1879 -0.1533  0.3722
    2SAPS   O11  150   1.682   3.523  10.702 -0.2962 -0.2236 -0.9334
    2SAPS    C1  151   1.746   3.395  10.674  0.0907 -0.4629 -0.2890
    2SAPS    HA  152   1.853   3.417  10.691  0.2106 -1.0534 -0.2637
    2SAPS    HB  153   1.719   3.316  10.748  1.0195  2.0613  2.8804
    2SAPS    C2  154   1.727   3.337  10.537  0.5293 -0.2610  1.2952
    2SAPS    HS  155   1.808   3.260  10.527  0.1231 -0.8129  2.1311
    2SAPS   O21  156   1.724   3.442  10.440  0.3455  0.3346  0.6923
    2SAPS   C21  157   1.837   3.507  10.425 -0.5759 -0.0346  0.3345
    2SAPS   O22  158   1.945   3.497  10.483 -0.1787 -0.2935  0.2217
    2SAPS   C22  159   1.808   3.585  10.291  0.2580  0.5634 -0.6647
    2SAPS   H2R  160   1.805   3.509  10.210 -0.6795 -0.7306  0.5684
    2SAPS   H2S  161   1.710   3.634  10.307  0.5078  0.4158  1.3775
    2SAPS    C3  162   1.595   3.250  10.531 -0.1205  0.5379  0.1868
    2SAPS    HX  163   1.522   3.330  10.555  1.1183  1.3720  1.2864
    2SAPS    HY  164   1.586   3.178  10.616  1.1953 -1.4231 -1.2872
    2SAPS   O31  165   1.569   3.201  10.400 -0.5981 -0.2617  0.4511
    2SAPS   C31  166   1.561   3.069  10.394 -0.9694 -0.4592  0.7887
    2SAPS   O32  167   1.607   2.985  10.474  0.0708 -0.7532 -0.3080
    2SAPS   C32  168   1.471   3.025  10.279 -0.3906  0.0947  0.2428
    2SAPS   H2X  169   1.393   3.100  10.255 -0.5489 -0.0738  0.2352
    2SAPS   H2Y  170   1.420   2.932  10.309  0.2623  0.7237  3.5281
    2SAPS   C23  171   1.907   3.686  10.250 -0.3396 -0.0836 -0.1292
    2SAPS   H3R  172   1.999   3.628  10.226 -0.3313 -0.4437  0.7547
    2SAPS   H3S  173   1.927   3.749  10.339  0.1712 -2.3183  1.3746
    2SAPS   C24  174   1.855   3.773  10.134  0.0677  0.5941 -0.2683
    2SAPS   H4R  175   1.934   3.843  10.101  0.5679  1.2907  2.2942
    2SAPS   H4S  176   1.784   3.838  10.189  0.6606  0.5340  0.5796
    2SAPS   C25  177   1.784   3.708  10.014 -0.9499  0.5493  0.4524
    2SAPS   H5R  178   1.678   3.681  10.021 -0.5041 -1.0304  1.3411
    2SAPS   C26  179   1.854   3.698   9.897  0.7251  0.6541 -0.0276
    2SAPS   H6R  180   1.810   3.660   9.804  3.1753 -1.2024 -0.4650
    2SAPS   C27  181   1.991   3.732   9.867 -0.7096  0.2689  0.3033
    2SAPS   H7R  182   2.047   3.715   9.962 -0.3515 -1.2852 -0.1646
    2SAPS   H7S  183   1.990   3.841   9.849 -0.7025  0.0074 -1.3652
    2SAPS   C28  184   2.069   3.680   9.756  0.5421 -0.1074  0.1937
    2SAPS   H8R  185   2.125   3.590   9.787 -0.1032 -0.1313  1.3157
    2SAPS   C29  186   2.069   3.708   9.626 -0.2204 -0.1333 -0.0333
    2SAPS   H9R  187   2.133   3.644   9.564  1.8586  1.9388 -0.1154
    2SAPS  C210  188   1.979   3.812   9.571 -0.1794  0.1658  0.7343
    2SAPS  H10R  189   2.029   3.910   9.584  0.2890 -0.0993  0.9427
    2SAPS  H10S  190   1.884   3.820   9.628 -0.5082 -0.2894  0.2557
    2SAPS  C211  191   1.938   3.775   9.433 -0.2315  0.0628  0.2043
    2SAPS  H11R  192   1.889   3.679   9.412  3.0126 -1.7089  0.4163
    2SAPS  C212  193   1.959   3.850   9.322  0.2471 -0.5778  0.3714
    2SAPS  H12R  194   1.924   3.810   9.226 -0.0984  1.1161 -0.2181
    2SAPS  C213  195   2.025   3.987   9.295 -0.8389 -0.2992  0.0665
    2SAPS  H13R  196   2.051   4.034   9.392  0.7386 -1.3671  0.1766
    2SAPS  H13S  197   1.957   4.060   9.245 -0.1860 -1.6540 -2.8834
    2SAPS  C214  198   2.160   3.969   9.224  0.4193  0.3117 -0.2249
    2SAPS  H14R  199   2.237   3.915   9.281  0.0488  0.7024  0.6511
    2SAPS  C215  200   2.193   4.015   9.098  0.2863  0.4099 -0.2480
    2SAPS  H15R  201   2.293   3.991   9.060  0.2872 -1.2988  0.7551
    2SAPS  C216  202   2.110   4.092   8.991  0.2097 -0.2568 -0.5106
    2SAPS  H16R  203   2.179   4.171   8.955  0.3010  0.5734  1.4055
    2SAPS  H16S  204   2.019   4.141   9.033  1.1133 -0.5371  1.8094
    2SAPS  C217  205   2.070   3.999   8.874 -0.6245  0.4948  0.7725
    2SAPS  H17R  206   2.019   4.059   8.795  2.1490  2.0051  0.0553
    2SAPS  H17S  207   1.987   3.937   8.915 -1.0913 -1.3697 -2.7826
    2SAPS  C218  208   2.177   3.900   8.813 -0.3318  0.3571 -0.4087
    2SAPS  H18R  209   2.258   3.851   8.871  0.6776 -0.3594 -2.3829
    2SAPS  H18S  210   2.238   3.954   8.737 -0.2077 -0.9888 -1.2751
    2SAPS  C219  211   2.100   3.784   8.742  1.0030 -0.1774 -0.7479
    2SAPS  H19R  212   2.049   3.821   8.651 -1.5100  0.0039  0.7070
    2SAPS  H19S  213   2.024   3.728   8.801  0.6305  0.5951 -0.4896
    2SAPS  C220  214   2.197   3.678   8.676  0.4948 -0.1209  0.6264
    2SAPS  H20R  215   2.268   3.635   8.750 -0.0158 -0.2491  1.0399
    2SAPS  H20S  216   2.241   3.703   8.577 -1.1939  0.9773  0.1384
    2SAPS  H20T  217   2.130   3.592   8.655  0.1622  0.5180 -1.0340
    2SAPS   C33  218   1.569   3.004  10.161  0.2968  0.1081 -0.2548
    2SAPS   H3X  219   1.650   2.935  10.193  0.5637 -0.9130 -3.0146
    2SAPS   H3Y  220   1.601   3.109  10.145  0.3909  0.0776 -0.2647
    2SAPS   C34  221   1.496   2.943  10.043 -0.0446  0.0732  0.0355
    2SAPS   H4X  222   1.418   3.010   9.999 -1.7334 -1.6446  0.3144
    2SAPS   H4Y  223   1.430   2.867  10.090 -2.1010  1.4527 -0.5042
    2SAPS   C35  224   1.587   2.883   9.935 -0.3926  0.3760  0.4626
    2SAPS   H5X  225   1.636   2.793   9.978 -1.5167 -0.6543 -0.3627
    2SAPS   H5Y  226   1.659   2.961   9.900 -1.7140  1.0581 -0.7880
    2SAPS   C36  227   1.503   2.848   9.810  0.0539  0.5316  0.1586
    2SAPS   H6X  228   1.470   2.937   9.752  1.3888  0.9817  0.0635
    2SAPS   H6Y  229   1.413   2.792   9.843  0.7352 -0.6355  0.0678
    2SAPS   C37  230   1.585   2.750   9.730  0.1480 -0.6664 -0.4860
    2SAPS   H7X  231   1.608   2.663   9.794 -1.3132 -1.6268 -1.2370
    2SAPS   H7Y  232   1.673   2.807   9.693 -0.0267  2.3422  3.4569
    2SAPS   C38  233   1.510   2.705   9.606 -0.2389 -0.1340 -0.4776
    2SAPS   H8X  234   1.403   2.710   9.636 -0.0813 -0.8364  0.2005
    2SAPS   H8Y  235   1.552   2.603   9.592  1.3255  0.4932 -0.5400
    2SAPS   C39  236   1.546   2.786   9.479 -0.1418 -0.1581 -0.2442
    2SAPS   H9X  237   1.653   2.770   9.453  0.0643  2.0498 -0.9044
    2SAPS   H9Y  238   1.532   2.896   9.490 -2.1488 -0.3396 -0.9074
    2SAPS  C310  239   1.461   2.729   9.366 -0.3272 -0.5069 -0.1764
    2SAPS  H10X  240   1.359   2.769   9.385  0.8451  1.5604  2.0917
    2SAPS  H10Y  241   1.453   2.620   9.383  3.9552 -1.0226 -1.0338
    2SAPS  C311  242   1.512   2.738   9.218 -0.8819 -0.0227  0.5952
    2SAPS  H11X  243   1.616   2.701   9.214 -1.3369 -1.6020  2.5808
    2SAPS  H11Y  244   1.500   2.846   9.192  0.9649 -0.0613 -0.4980
    2SAPS  C312  245   1.429   2.660   9.124  0.2655 -0.6231  0.0421
    2SAPS  H12X  246   1.323   2.693   9.123 -0.1710 -1.9882 -0.4835
    2SAPS  H12Y  247   1.409   2.554   9.152 -0.1738 -0.1001  1.7336
    2SAPS  C313  248   1.469   2.673   8.978 -0.8017 -0.6386 -0.3453
    2SAPS  H13X  249   1.567   2.626   8.959 -0.9757 -1.4359  0.6934
    2SAPS  H13Y  250   1.472   2.779   8.946  1.7141 -0.3343  0.8066
    2SAPS  C314  251   1.365   2.598   8.890 -0.9110 -0.2612  0.0390
    2SAPS  H14X  252   1.267   2.647   8.909 -1.3490 -0.9530 -0.3981
    2SAPS  H14Y  253   1.375   2.495   8.929 -0.7435  0.7276  2.6902
    2SAPS  C315  254   1.393   2.612   8.739  0.4966 -0.1970  0.8813
    2SAPS  H15X  255   1.494   2.582   8.706 -0.0364  0.3381 -1.3017
    2SAPS  H15Y  256   1.385   2.720   8.714 -2.6091 -0.6326 -0.3291
    2SAPS  C316  257   1.294   2.533   8.660 -0.1697  0.1783  0.2307
    2SAPS  H16X  258   1.189   2.558   8.684 -0.0006  0.3842  0.7659
    2SAPS  H16Y  259   1.302   2.425   8.681 -2.0116 -0.2463 -1.1384
    2SAPS  C317  260   1.328   2.567   8.518  0.7381 -0.2364 -0.0041
    2SAPS  H17X  261   1.424   2.519   8.488  0.1869 -0.6848 -1.0664
    2SAPS  H17Y  262   1.328   2.678   8.514 -2.6265 -0.0843  2.4881
    2SAPS  C318  263   1.216   2.501   8.428 -0.6665 -0.3770 -1.3249
    2SAPS  H18X  264   1.116   2.548   8.443 -0.3448 -0.1347  0.1618
    2SAPS  H18Y  265   1.205   2.401   8.475  0.5261 -0.1896 -0.6099
    2SAPS  H18Z  266   1.256   2.510   8.325 -0.0455  0.2919 -1.0283
    3SAPS     N  267   1.520   4.779  10.792 -0.2945  0.3170  0.3772
    3SAPS   HN1  268   1.561   4.709  10.856  1.6267  0.7587 -0.3526
    3SAPS   HN2  269   1.439   4.744  10.736 -0.1427 -1.9980  1.5576
    3SAPS   HN3  270   1.590   4.784  10.716 -1.3933 -1.0385 -0.7587
    3SAPS   C12  271   1.485   4.898  10.870 -0.2139 -0.5953 -0.0575
    3SAPS  H12A  272   1.378   4.913  10.870 -0.2749 -1.0206  0.4429
    3SAPS   C13  273   1.527   4.902  11.018 -0.4717  0.4814 -0.2242
    3SAPS  O13A  274   1.615   4.821  11.065 -0.6556 -0.1834 -0.4916
    3SAPS  O13B  275   1.471   4.982  11.099 -0.3227 -0.2040 -0.1423
    3SAPS   C11  276   1.549   5.022  10.800  0.4540  0.9110  0.2357
    3SAPS  H11A  277   1.534   5.012  10.691 -1.4597  1.6008  0.4155
    3SAPS  H11B  278   1.657   5.016  10.824  0.5349 -0.5681 -0.5069
    3SAPS     P  279   1.424   5.264  10.784 -0.0862  0.5596 -0.0670
    3SAPS   O13  280   1.309   5.211  10.704  0.4336  0.8352  0.0617
    3SAPS   O14  281   1.389   5.350  10.903 -0.2449 -0.4139  0.1113
    3SAPS   O12  282   1.504   5.147  10.850  0.3807  0.4602  0.6443
    3SAPS   O11  283   1.531   5.326  10.684 -0.0363 -0.2951  0.3084
    3SAPS    C1  284   1.667   5.301  10.684  0.4371  0.2247  0.0543
    3SAPS    HA  285   1.706   5.233  10.762  1.5602  1.4971  0.6216
    3SAPS    HB  286   1.705   5.251  10.592 -0.8908 -1.1596  0.2554
    3SAPS    C2  287   1.755   5.427  10.701  0.1150 -0.5866  0.0822
    3SAPS    HS  288   1.707   5.499  10.770 -2.0081  1.4010 -3.2825
    3SAPS   O21  289   1.774   5.480  10.566  0.1712  0.1338 -0.5509
    3SAPS   C21  290   1.822   5.602  10.562 -0.5267  0.0425  0.1286
    3SAPS   O22  291   1.838   5.679  10.658 -0.2288 -0.5007 -0.3709
    3SAPS   C22  292   1.874   5.634  10.414 -0.1407 -0.4729 -0.5150
    3SAPS   H2R  293   1.829   5.558  10.346 -2.3680 -0.7170  1.1701
    3SAPS   H2S  294   1.840   5.739  10.400  0.3889 -0.0943  0.9412
    3SAPS    C3  295   1.892   5.388  10.760  0.8668 -0.3501  0.4619
    3SAPS    HX  296   1.868   5.368  10.866 -0.0068  1.0159  0.5346
    3SAPS    HY  297   1.951   5.482  10.763 -1.9108  1.4710 -0.1039
    3SAPS   O31  298   1.943   5.262  10.695 -0.0252  0.0826 -0.0686
    3SAPS   C31  299   2.055   5.269  10.629 -0.3256  0.0999 -0.5330
    3SAPS   O32  300   2.121   5.376  10.622  0.2870 -0.1892  0.0939
    3SAPS   C32  301   2.092   5.139  10.568  1.0912  0.3639 -0.3106
    3SAPS   H2X  302   2.078   5.056  10.641  0.2246  0.5258 -0.2836
    3SAPS   H2Y  303   2.198   5.142  10.536  2.0278  1.5332  2.7340
    3SAPS   C23  304   2.031   5.628  10.408 -0.7962 -0.2885  0.3353
    3SAPS   H3R  305   2.073   5.537  10.455  0.6638 -0.1583 -0.6651
    3SAPS   H3S  306   2.078   5.716  10.457 -1.3250  0.2070 -0.0365
    3SAPS   C24  307   2.083   5.646  10.262 -0.2660  0.3419 -0.3842
    3SAPS   H4R  308   2.032   5.566  10.204 -0.3517 -1.8987  2.6506
    3SAPS   H4S  309   2.193   5.628  10.266 -0.0568  1.8724  1.2151
    3SAPS   C25  310   2.073   5.790  10.219  0.2260 -0.0070 -0.0753
    3SAPS   H5R  311   2.100   5.862  10.297 -1.0063  2.6139 -1.9705
    3SAPS   C26  312   2.040   5.828  10.091 -0.2567 -0.3443 -0.4933
    3SAPS   H6R  313   2.041   5.936  10.072 -0.7202 -0.0048  1.3220
    3SAPS   C27  314   2.020   5.737   9.977 -0.6845 -0.6990 -0.7192
    3SAPS   H7R  315   1.910   5.748   9.962 -0.4782  1.3189 -0.8924
    3SAPS   H7S  316   2.048   5.632   9.998  1.7101  0.3397  1.5535
    3SAPS   C28  317   2.100   5.773   9.848  0.2340 -0.2404  0.4267
    3SAPS   H8R  318   2.206   5.800   9.864 -0.1281  1.6557 -0.2085
    3SAPS   C29  319   2.053   5.792   9.717  1.1525  0.5908  0.2056
    3SAPS   H9R  320   2.129   5.783   9.638 -0.4913 -0.5652 -1.2579
    3SAPS  C210  321   1.913   5.777   9.663  0.0335 -0.3081  0.3437
    3SAPS  H10R  322   1.869   5.875   9.633 -2.5251 -0.8502  2.0926
    3SAPS  H10S  323   1.854   5.732   9.746  0.1171 -2.6819 -0.8473
    3SAPS  C211  324   1.917   5.689   9.539  0.1878  0.0379 -0.0269
    3SAPS  H11R  325   1.899   5.583   9.560  1.3226 -0.2340 -0.3696
    3SAPS  C212  326   1.934   5.724   9.409 -0.5576  0.0670 -0.0984
    3SAPS  H12R  327   1.943   5.644   9.333  0.6004  0.7944 -0.7361
    3SAPS  C213  328   1.947   5.864   9.351 -0.0225  0.2284  0.2539
    3SAPS  H13R  329   2.024   5.861   9.270  1.3802 -0.7579  1.5870
    3SAPS  H13S  330   1.980   5.935   9.430 -0.3466  1.6575 -0.8855
    3SAPS  C214  331   1.813   5.912   9.287 -0.1819  1.0128 -0.1794
    3SAPS  H14R  332   1.766   5.979   9.361 -1.1572  3.4790 -2.9426
    3SAPS  C215  333   1.748   5.879   9.174 -0.5254 -0.5686 -0.0489
    3SAPS  H15R  334   1.656   5.935   9.150  0.9880  1.1177 -2.0637
    3SAPS  C216  335   1.803   5.796   9.070 -0.5013  0.4561 -1.2750
    3SAPS  H16R  336   1.726   5.728   9.028 -1.3762  1.1755 -0.8625
    3SAPS  H16S  337   1.882   5.729   9.110 -2.3677 -2.7506 -2.8273
    3SAPS  C217  338   1.864   5.884   8.960  0.1494 -1.0378 -0.0778
    3SAPS  H17R  339   1.924   5.814   8.897 -0.3814 -0.8563 -0.7984
    3SAPS  H17S  340   1.924   5.971   8.993  0.0936 -1.4073  1.0033
    3SAPS  C218  341   1.753   5.922   8.867 -0.5750  0.4449  0.2008
    3SAPS  H18R  342   1.678   5.987   8.917  0.0459  0.3305  1.3251
    3SAPS  H18S  343   1.704   5.829   8.831 -1.2220  0.6806  0.4523
    3SAPS  C219  344   1.806   6.006   8.757  0.3755 -0.1056  0.5415
    3SAPS  H19R  345   1.892   5.954   8.709  1.3273  1.9067 -0.0087
    3SAPS  H19S  346   1.843   6.105   8.792  1.5476 -1.1729  2.4136
    3SAPS  C220  347   1.710   6.015   8.642 -0.2229  0.5610 -0.0373
    3SAPS  H20R  348   1.695   5.912   8.604 -2.0370  0.5569  0.5950
    3SAPS  H20S  349   1.744   6.086   8.564 -1.0934  2.2786  1.1008
    3SAPS  H20T  350   1.612   6.057   8.677  0.3639  1.2346  0.8248
    3SAPS   C33  351   2.000   5.103  10.446 -1.3059 -0.3316  0.3507
    3SAPS   H3X  352   1.890   5.116  10.456 -1.5733 -1.2562 -1.2309
    3SAPS   H3Y  353   2.012   4.994  10.428  2.6401  0.0265  0.4660
    3SAPS   C34  354   2.036   5.180  10.326 -0.2713  0.4208  0.0033
    3SAPS   H4X  355   2.146   5.180  10.306 -0.6791 -1.0812 -2.4037
    3SAPS   H4Y  356   2.006   5.287  10.324 -0.3737  0.3707 -1.7146
    3SAPS   C35  357   1.972   5.118  10.199 -0.1622 -0.1574 -0.4061
    3SAPS   H5X  358   1.861   5.114  10.209 -0.0213  0.5503  1.6907
    3SAPS   H5Y  359   2.013   5.016  10.188 -3.2674 -1.7922  2.4355
    3SAPS   C36  360   1.998   5.198  10.075  1.3290 -0.2178 -0.6561
    3SAPS   H6X  361   2.106   5.224  10.070  1.0865  1.0344  0.2941
    3SAPS   H6Y  362   1.936   5.288  10.094 -0.0911 -0.9267 -1.8709
    3SAPS   C37  363   1.941   5.136   9.943 -0.1851 -0.3196 -0.1977
    3SAPS   H7X  364   1.830   5.133   9.947 -0.4980  5.1850 -0.9155
    3SAPS   H7Y  365   1.983   5.034   9.932 -0.6892 -0.6594  0.9704
    3SAPS   C38  366   1.977   5.210   9.813  0.4918  0.2067 -0.3470
    3SAPS   H8X  367   2.082   5.186   9.790  0.7727  0.3398  0.7384
    3SAPS   H8Y  368   1.985   5.321   9.817  1.9740  0.1272 -0.9017
    3SAPS   C39  369   1.897   5.163   9.693 -0.9649 -0.5033  0.4334
    3SAPS   H9X  370   1.787   5.178   9.706 -0.9002 -0.7206  1.2524
    3SAPS   H9Y  371   1.903   5.053   9.676 -0.6265 -0.3494 -0.4701
    3SAPS  C310  372   1.935   5.242   9.566  0.2845  1.1246  0.3775
    3SAPS  H10X  373   2.035   5.209   9.530 -0.7194  0.1540 -1.6166
    3SAPS  H10Y  374   1.927   5.351   9.585  0.7762  0.9695  1.4802
    3SAPS  C311  375   1.831   5.209   9.450  0.1225 -0.5799 -0.6555
    3SAPS  H11X  376   1.732   5.248   9.484  0.7544  1.2922 -0.9293
    3SAPS  H11Y  377   1.807   5.100   9.441  1.0258 -1.0861  2.4296
    3SAPS  C312  378   1.866   5.282   9.319 -0.1639 -0.4321  0.6445
    3SAPS  H12X  379   1.964   5.242   9.284 -0.9441 -0.7459 -1.2756
    3SAPS  H12Y  380   1.867   5.393   9.321 -1.6632 -0.4111  0.8508
    3SAPS  C313  381   1.760   5.249   9.209  0.0523  0.3375  0.4445
    3SAPS  H13X  382   1.660   5.293   9.232 -1.4858 -2.4626 -0.6201
    3SAPS  H13Y  383   1.745   5.140   9.192 -0.0312  0.0269  2.3204
    3SAPS  C314  384   1.796   5.289   9.069 -0.1940  0.0866 -0.1836
    3SAPS  H14X  385   1.898   5.262   9.034 -0.3015 -0.7441  0.1535
    3SAPS  H14Y  386   1.802   5.400   9.062  0.5318  0.1780  1.6777
    3SAPS  C315  387   1.693   5.229   8.969  0.3700  0.3003  0.8426
    3SAPS  H15X  388   1.591   5.271   8.983 -0.0061  0.1101 -1.1376
    3SAPS  H15Y  389   1.701   5.119   8.979  0.3217  0.2445  0.3136
    3SAPS  C316  390   1.724   5.261   8.818 -0.4211 -0.2987 -0.3462
    3SAPS  H16X  391   1.644   5.216   8.755  0.4696 -0.6888 -1.2164
    3SAPS  H16Y  392   1.816   5.208   8.784 -0.5137 -0.2322 -0.7041
    3SAPS  C317  393   1.726   5.408   8.771  0.1860  0.3177 -0.0477
    3SAPS  H17X  394   1.814   5.458   8.816  0.0191  0.5600  0.0144
    3SAPS  H17Y  395   1.638   5.463   8.812  1.6661  2.1166  0.7797
    3SAPS  C318  396   1.729   5.426   8.619 -0.2218 -0.4431 -0.3312
    3SAPS  H18X  397   1.704   5.531   8.592 -1.2899 -0.7640 -0.6064
    3SAPS  H18Y  398   1.668   5.356   8.558 -0.3343  0.4666 -1.2642
    3SAPS  H18Z  399   1.836   5.421   8.592  0.2393  0.2019  1.2799
    4SAPS     N  400   3.833   6.082  10.825  0.6408 -0.5296 -0.4048
    4SAPS   HN1  401   3.768   6.021  10.879  1.0665  1.3106  2.2245
    4SAPS   HN2  402   3.777   6.132  10.754 -0.0932 -0.0529  0.5052
    4SAPS   HN3  403   3.894   6.018  10.770  1.7872  0.6797 -0.5482
    4SAPS   C12  404   3.914   6.177  10.905  0.6018  0.2964  0.5910
    4SAPS  H12A  405   3.857   6.268  10.918  0.4915  0.3421 -0.1589
    4SAPS   C13  406   3.966   6.118  11.036 -0.0329  0.8861 -0.1259
    4SAPS  O13A  407   3.936   5.994  11.067 -0.1437  0.0069  0.5487
    4SAPS  O13B  408   4.036   6.191  11.111 -0.6066  0.4789  0.6296
    4SAPS   C11  409   4.032   6.233  10.825  0.0935  0.0200  0.1345
    4SAPS  H11A  410   4.104   6.155  10.792  1.1651  1.4524 -0.9440
    4SAPS  H11B  411   4.084   6.309  10.888  0.8105  0.7894 -1.3748
    4SAPS     P  412   3.978   6.442  10.682  0.3558 -0.4256  0.1706
    4SAPS   O13  413   3.868   6.506  10.750  0.0634 -0.6078 -0.8353
    4SAPS   O14  414   4.114   6.487  10.706 -0.3355  0.5344 -0.0221
    4SAPS   O12  415   3.978   6.289  10.702 -0.7518  0.3209 -0.0531
    4SAPS   O11  416   3.961   6.453  10.524 -0.2844  0.0696  0.7665
    4SAPS    C1  417   3.924   6.333  10.448 -0.2580 -0.4432 -0.7666
    4SAPS    HA  418   3.984   6.244  10.477  2.4076  0.9396 -1.7812
    4SAPS    HB  419   3.817   6.313  10.468 -0.2851  0.7606  0.3536
    4SAPS    C2  420   3.940   6.356  10.291 -0.4993 -0.5515  0.9574
    4SAPS    HS  421   3.899   6.266  10.240 -0.5717 -0.1739  0.3388
    4SAPS   O21  422   4.068   6.384  10.247 -0.0579 -0.2607 -0.0048
    4SAPS   C21  423   4.152   6.288  10.270 -0.6119  0.4553  0.0245
    4SAPS   O22  424   4.129   6.171  10.296  0.0309  0.1043 -0.0720
    4SAPS   C22  425   4.295   6.336  10.233 -0.5575  0.3362 -0.1437
    4SAPS   H2R  426   4.301   6.445  10.253  0.0610 -0.1015  2.1663
    4SAPS   H2S  427   4.371   6.295  10.302  2.1280  2.0428 -2.0019
    4SAPS    C3  428   3.861   6.475  10.239 -0.0089  0.2126 -0.0522
    4SAPS    HX  429   3.872   6.571  10.293  0.6882 -0.2467  0.6373
    4SAPS    HY  430   3.758   6.442  10.267 -0.0642  0.0310 -0.4662
    4SAPS   O31  431   3.870   6.497  10.100 -0.1938 -0.0939 -0.1760
    4SAPS   C31  432   3.964   6.581  10.064  0.1778  0.1799 -0.0087
    4SAPS   O32  433   4.025   6.655  10.140 -0.2771 -0.0476 -0.0321
    4SAPS   C32  434   3.984   6.566   9.914 -0.5809  0.4676 -0.0708
    4SAPS   H2X  435   4.091   6.539   9.905 -1.0556 -1.9200  1.1834
    4SAPS   H2Y  436   3.979   6.669   9.871  1.8878 -0.3523 -2.4571
    4SAPS   C23  437   4.333   6.291  10.082  0.5108  0.1714  0.5937
    4SAPS   H3R  438   4.245   6.296  10.015  1.8337  0.7583 -1.1283
    4SAPS   H3S  439   4.363   6.185  10.095 -0.1945  0.1286  1.9978
    4SAPS   C24  440   4.433   6.379  10.022  0.1786  0.4264 -0.0436
    4SAPS   H4R  441   4.399   6.485  10.027  2.5861  1.1684  1.4933
    4SAPS   H4S  442   4.432   6.350   9.915 -1.0478 -1.4010  0.4407
    4SAPS   C25  443   4.564   6.366  10.096  0.5125  0.9541  0.6183
    4SAPS   H5R  444   4.571   6.420  10.192  1.6395  0.6031  0.7474
    4SAPS   C26  445   4.681   6.323  10.035 -0.1255 -0.2394  0.3698
    4SAPS   H6R  446   4.770   6.327  10.100 -0.9819  0.0632  1.5616
    4SAPS   C27  447   4.707   6.264   9.896  0.1640 -0.0882 -0.6503
    4SAPS   H7R  448   4.626   6.190   9.878  3.8695 -4.7863  0.9845
    4SAPS   H7S  449   4.802   6.207   9.895 -0.7886 -1.7029 -0.3369
    4SAPS   C28  450   4.711   6.382   9.800  0.1519 -0.3603  0.0880
    4SAPS   H8R  451   4.733   6.481   9.843  2.1191 -0.8584  0.2450
    4SAPS   C29  452   4.669   6.369   9.675 -0.0325 -0.5554 -0.1646
    4SAPS   H9R  453   4.669   6.462   9.617  1.6975 -0.2866  0.2518
    4SAPS  C210  454   4.629   6.234   9.610  0.2815 -0.1163 -0.4889
    4SAPS  H10R  455   4.593   6.155   9.678  1.8357 -0.3249  0.0998
    4SAPS  H10S  456   4.724   6.190   9.571 -0.3186 -0.8370 -1.1530
    4SAPS  C211  457   4.528   6.252   9.490  0.4587  0.6269 -0.9172
    4SAPS  H11R  458   4.423   6.251   9.523  0.5401 -1.0378 -0.6417
    4SAPS  C212  459   4.555   6.275   9.358  0.3238  0.3777  0.3590
    4SAPS  H12R  460   4.473   6.282   9.285  0.4081  1.0978  0.3346
    4SAPS  C213  461   4.694   6.296   9.297 -0.3111  0.4031  0.5165
    4SAPS  H13R  462   4.779   6.240   9.343  1.6709  0.2736 -3.1542
    4SAPS  H13S  463   4.713   6.405   9.314 -0.4424  0.5073 -0.0187
    4SAPS  C214  464   4.684   6.276   9.149 -0.5997 -0.2641 -1.0034
    4SAPS  H14R  465   4.612   6.203   9.108 -0.8044  0.5428 -2.1217
    4SAPS  C215  466   4.779   6.308   9.060  0.2974 -0.3659  0.1916
    4SAPS  H15R  467   4.778   6.274   8.955 -0.3128 -0.4049  0.2091
    4SAPS  C216  468   4.906   6.390   9.079  0.0053  0.6011 -1.1246
    4SAPS  H16R  469   4.991   6.320   9.064 -1.5285 -1.6227  0.2423
    4SAPS  H16S  470   4.913   6.439   9.179 -1.5075  2.0024 -1.6726
    4SAPS  C217  471   4.925   6.500   8.981  0.0553 -0.9898  0.3750
    4SAPS  H17R  472   5.028   6.535   9.000  0.5061  0.1019 -3.6490
    4SAPS  H17S  473   4.850   6.579   9.007  2.1429  0.6566  1.5089
    4SAPS  C218  474   4.909   6.465   8.832 -0.9863 -0.3392  0.2449
    4SAPS  H18R  475   4.806   6.433   8.805 -0.2727 -1.7504 -0.9039
    4SAPS  H18S  476   4.971   6.377   8.803 -0.0432  0.8829 -1.4843
    4SAPS  C219  477   4.964   6.567   8.733 -0.1197 -0.1419  0.1263
    4SAPS  H19R  478   5.075   6.559   8.733 -0.0959  0.1324 -1.0120
    4SAPS  H19S  479   4.943   6.664   8.783 -1.2753 -0.3168 -0.0048
    4SAPS  C220  480   4.912   6.560   8.580 -0.7077 -0.0736  0.5424
    4SAPS  H20R  481   4.976   6.629   8.522 -0.6011 -2.0454 -1.7833
    4SAPS  H20S  482   4.804   6.584   8.577 -0.3552  1.5681  0.2913
    4SAPS  H20T  483   4.919   6.458   8.535  0.7203  0.4668 -0.4934
    4SAPS   C33  484   3.894   6.478   9.836 -0.3465  0.0630  0.3534
    4SAPS   H3X  485   3.796   6.526   9.817 -0.6992 -0.5601  0.5963
    4SAPS   H3Y  486   3.859   6.385   9.885  0.7765 -1.1751 -1.1425
    4SAPS   C34  487   3.960   6.447   9.698  0.4626 -0.1033  0.3921
    4SAPS   H4X  488   4.017   6.537   9.667 -1.1816  0.7266 -0.3319
    4SAPS   H4Y  489   3.876   6.431   9.627 -0.8232 -3.7032  2.6137
    4SAPS   C35  490   4.051   6.328   9.700  0.6484  0.5266 -0.6984
    4SAPS   H5X  491   3.998   6.231   9.687  1.6786 -0.0925 -0.3177
    4SAPS   H5Y  492   4.110   6.325   9.794 -0.8361 -1.9445  0.1866
    4SAPS   C36  493   4.154   6.333   9.589 -0.6569  0.4180 -0.3349
    4SAPS   H6X  494   4.216   6.240   9.590 -0.3778  0.5710 -2.0871
    4SAPS   H6Y  495   4.232   6.409   9.610  0.0496 -0.7293  1.2985
    4SAPS   C37  496   4.089   6.348   9.454 -0.0384 -0.0037  0.1330
    4SAPS   H7X  497   4.041   6.448   9.459 -1.4477 -0.6272 -0.5434
    4SAPS   H7Y  498   4.016   6.266   9.440  1.7522 -1.5185 -0.5814
    4SAPS   C38  499   4.183   6.332   9.340 -0.5746  0.1858 -0.1799
    4SAPS   H8X  500   4.213   6.227   9.324  1.5351  0.7570 -0.2020
    4SAPS   H8Y  501   4.279   6.384   9.364  0.1534 -1.7976  1.3814
    4SAPS   C39  502   4.115   6.394   9.222  0.2227  0.6422  1.1460
    4SAPS   H9X  503   4.150   6.500   9.223  1.7766  0.1437  2.1123
    4SAPS   H9Y  504   4.005   6.389   9.231  0.2055  0.0315  0.6082
    4SAPS  C310  505   4.149   6.320   9.091 -0.4989  0.1304 -0.2575
    4SAPS  H10X  506   4.100   6.221   9.095  0.6593 -0.4334 -0.0438
    4SAPS  H10Y  507   4.257   6.308   9.068 -0.3534  0.9879 -0.0523
    4SAPS  C311  508   4.083   6.386   8.964  0.1705  0.5718  0.4289
    4SAPS  H11X  509   4.141   6.478   8.939  3.1482 -1.4265 -0.2555
    4SAPS  H11Y  510   3.976   6.408   8.985  0.1316  0.3956  0.4085
    4SAPS  C312  511   4.090   6.276   8.850  0.6692  0.9552 -0.2547
    4SAPS  H12X  512   4.054   6.184   8.901 -1.0807  0.5948 -2.0463
    4SAPS  H12Y  513   4.195   6.271   8.815  0.5743 -2.4634 -0.2513
    4SAPS  C313  514   3.995   6.313   8.730 -0.1155 -0.2503  0.6021
    4SAPS  H13X  515   4.039   6.408   8.691 -0.3802  0.5933  2.2935
    4SAPS  H13Y  516   3.889   6.334   8.755 -0.3416 -0.5777 -0.0810
    4SAPS  C314  517   3.990   6.206   8.627  0.1138  0.6186  0.5270
    4SAPS  H14X  518   3.931   6.120   8.666 -0.9831  1.4306  0.6875
    4SAPS  H14Y  519   4.090   6.164   8.606  0.9398  0.8269  3.6806
    4SAPS  C315  520   3.919   6.256   8.503  0.1990  0.5168 -0.3403
    4SAPS  H15X  521   3.970   6.347   8.466  1.0704 -0.6709 -2.1565
    4SAPS  H15Y  522   3.815   6.289   8.524  0.3867  1.8352 -1.4634
    4SAPS  C316  523   3.925   6.157   8.379  0.0532 -0.3372 -0.1402
    4SAPS  H16X  524   3.864   6.068   8.403 -0.7380 -0.1016 -1.2120
    4SAPS  H16Y  525   4.033   6.132   8.368  0.4611  0.9359  0.8064
    4SAPS  C317  526   3.872   6.221   8.246  0.1804  0.2541 -0.4538
    4SAPS  H17X  527   3.885   6.138   8.173  0.3838 -0.0644 -0.0590
    4SAPS  H17Y  528   3.941   6.304   8.220  2.0484 -1.6827 -1.8523
    4SAPS  C318  529   3.728   6.265   8.235 -0.0509 -0.3595  0.1202
    4SAPS  H18X  530   3.708   6.371   8.261 -2.0520 -0.4919 -0.8138
    4SAPS  H18Y  531   3.666   6.214   8.312 -3.2415  3.5128  0.2420
    4SAPS  H18Z  532   3.688   6.243   8.134 -1.8388 -1.8110  1.1232
    5SAPS     N  533   1.150   5.787  10.859 -0.1782  0.4957  0.1774
    5SAPS   HN1  534   1.206   5.856  10.806 -0.4837 -0.2936 -1.1929
    5SAPS   HN2  535   1.210   5.719  10.910  0.3802  1.4670  0.8317
    5SAPS   HN3  536   1.088   5.735  10.794  1.6420 -0.7771 -0.5922
    5SAPS   C12  537   1.052   5.856  10.953  0.2704  0.2791  0.8828
    5SAPS  H12A  538   0.954   5.867  10.908  0.3245 -1.7419  0.2247
    5SAPS   C13  539   1.029   5.762  11.080  0.3387  0.6214 -0.5831
    5SAPS  O13A  540   1.115   5.664  11.097  0.2671  0.0078  0.2305
    5SAPS  O13B  541   0.945   5.776  11.167  0.1779  0.4164  0.3910
    5SAPS   C11  542   1.095   5.993  11.010 -0.4274 -0.4014  0.0449
    5SAPS  H11A  543   1.178   5.972  11.082  2.7049  0.9713 -2.9993
    5SAPS  H11B  544   1.006   6.034  11.062 -1.6274 -0.1851 -2.1311
    5SAPS     P  545   1.304   6.088  10.878  0.0985  0.1531  0.1339
    5SAPS   O13  546   1.338   6.230  10.831  0.4542  0.0001 -0.5779
    5SAPS   O14  547   1.377   6.040  10.996  0.1039  0.3657  0.0425
    5SAPS   O12  548   1.152   6.082  10.915 -0.0726 -0.1100  0.3474
    5SAPS   O11  549   1.335   5.974  10.761  0.3322 -0.6519  0.0815
    5SAPS    C1  550   1.443   6.000  10.674  0.5742 -0.4763  0.1516
    5SAPS    HA  551   1.440   6.102  10.631  1.5058 -1.1365 -1.5686
    5SAPS    HB  552   1.541   5.997  10.728  1.4376 -1.7939 -1.4390
    5SAPS    C2  553   1.470   5.895  10.554  0.0216 -0.1369  0.2573
    5SAPS    HS  554   1.567   5.920  10.505  0.2660  0.3696  0.9975
    5SAPS   O21  555   1.365   5.873  10.459 -0.5989 -0.2880  0.2225
    5SAPS   C21  556   1.314   5.973  10.396 -0.3559 -0.0963 -0.4119
    5SAPS   O22  557   1.359   6.088  10.393 -0.1823 -0.4087  0.0803
    5SAPS   C22  558   1.181   5.923  10.344  0.3672 -0.0658  0.8094
    5SAPS   H2R  559   1.181   5.812  10.336 -0.1271 -0.0391  0.3869
    5SAPS   H2S  560   1.096   5.925  10.416 -1.4339 -1.4699 -1.1849
    5SAPS    C3  561   1.498   5.757  10.625 -0.0580  0.8993 -0.0041
    5SAPS    HX  562   1.405   5.738  10.683  0.2754 -0.4060  0.1098
    5SAPS    HY  563   1.586   5.763  10.692  2.1797 -0.4061 -2.7359
    5SAPS   O31  564   1.527   5.659  10.526 -0.0681 -0.0272 -0.3223
    5SAPS   C31  565   1.419   5.587  10.475  0.3356  0.3312 -0.1161
    5SAPS   O32  566   1.302   5.615  10.498  0.0861  0.1194  0.1487
    5SAPS   C32  567   1.463   5.484  10.374 -0.2698  0.4577 -1.0665
    5SAPS   H2X  568   1.391   5.399  10.378  0.1136  0.1783 -0.0852
    5SAPS   H2Y  569   1.560   5.440  10.404 -1.5291 -1.2812  0.6274
    5SAPS   C23  570   1.135   5.990  10.208 -0.4041  0.0620  0.4964
    5SAPS   H3R  571   1.128   6.098  10.236 -3.2851  0.1840 -0.6106
    5SAPS   H3S  572   1.031   5.957  10.191 -0.2331 -1.1370  1.6966
    5SAPS   C24  573   1.214   5.966  10.082 -0.4793 -0.7864  0.4704
    5SAPS   H4R  574   1.143   5.971   9.997 -1.0706 -0.2110  0.9916
    5SAPS   H4S  575   1.255   5.863  10.073 -2.4647 -1.4855 -1.1267
    5SAPS   C25  576   1.324   6.062  10.070 -0.0829 -0.6819  0.6349
    5SAPS   H5R  577   1.396   6.079  10.152 -0.0275  1.5945  0.1445
    5SAPS   C26  578   1.350   6.138   9.959  0.2462 -0.3574 -0.2317
    5SAPS   H6R  579   1.437   6.204   9.969  0.3141 -0.7372  1.9054
    5SAPS   C27  580   1.276   6.148   9.827 -0.3296 -0.5702  0.5268
    5SAPS   H7R  581   1.305   6.238   9.769  1.6443 -0.8458  1.0351
    5SAPS   H7S  582   1.170   6.176   9.845  0.1885  1.3712  0.6388
    5SAPS   C28  583   1.285   6.024   9.748 -0.1819  0.0893  0.0101
    5SAPS   H8R  584   1.264   5.929   9.799 -0.2252 -0.1855 -0.5169
    5SAPS   C29  585   1.347   6.017   9.633 -0.3405  0.2583 -0.0014
    5SAPS   H9R  586   1.360   5.920   9.582  1.4665 -0.4183  1.6756
    5SAPS  C210  587   1.404   6.136   9.555 -0.4960 -0.5300 -0.2236
    5SAPS  H10R  588   1.472   6.191   9.624 -0.6282  0.2158 -0.6724
    5SAPS  H10S  589   1.326   6.214   9.540 -0.4540 -0.7872 -1.8596
    5SAPS  C211  590   1.477   6.108   9.426  0.3656 -0.0134  0.3669
    5SAPS  H11R  591   1.575   6.058   9.426 -0.2845 -1.3226 -0.1465
    5SAPS  C212  592   1.434   6.129   9.296 -0.0259 -0.2781  0.0066
    5SAPS  H12R  593   1.504   6.100   9.217  0.4561 -2.1666  1.1183
    5SAPS  C213  594   1.295   6.185   9.259 -0.1655 -0.2140  0.3585
    5SAPS  H13R  595   1.303   6.290   9.225 -1.3436 -0.4983 -0.8376
    5SAPS  H13S  596   1.222   6.199   9.341  0.3446  1.0886  0.6126
    5SAPS  C214  597   1.228   6.099   9.149  0.4704 -0.1204 -0.8160
    5SAPS  H14R  598   1.149   6.029   9.182  0.7897  0.3696  1.0573
    5SAPS  C215  599   1.252   6.117   9.019  0.2202 -0.2754  0.2818
    5SAPS  H15R  600   1.202   6.051   8.946 -0.1399  0.6317 -0.3014
    5SAPS  C216  601   1.351   6.213   8.949  0.2473 -1.0908 -0.4001
    5SAPS  H16R  602   1.441   6.149   8.934 -0.4108 -1.6195 -2.2044
    5SAPS  H16S  603   1.385   6.298   9.012  0.8100  0.1853 -2.4175
    5SAPS  C217  604   1.320   6.271   8.813  0.5014 -0.5200 -1.0624
    5SAPS  H17R  605   1.236   6.342   8.826  1.6256  0.1436  3.2005
    5SAPS  H17S  606   1.287   6.190   8.744  1.1229 -0.6739 -1.1785
    5SAPS  C218  607   1.446   6.345   8.758  0.2191  0.3547 -0.2753
    5SAPS  H18R  608   1.471   6.428   8.827 -0.2741  1.0049 -0.8782
    5SAPS  H18S  609   1.532   6.274   8.759 -0.8568 -0.9554  2.1530
    5SAPS  C219  610   1.428   6.395   8.613 -0.3592 -0.6056  0.1249
    5SAPS  H19R  611   1.501   6.478   8.599 -0.1910 -1.0521 -1.8607
    5SAPS  H19S  612   1.328   6.442   8.600  0.5954  0.8562 -2.4008
    5SAPS  C220  613   1.450   6.289   8.504  0.3015  0.3877  0.5466
    5SAPS  H20R  614   1.405   6.316   8.406  1.5557  1.6701  0.2995
    5SAPS  H20S  615   1.413   6.188   8.531 -0.6306  0.5420 -0.1458
    5SAPS  H20T  616   1.559   6.270   8.495  0.0547 -1.0021  0.4381
    5SAPS   C33  617   1.465   5.540  10.235  0.0850 -0.2597 -0.1664
    5SAPS   H3X  618   1.371   5.596  10.215  0.4465  0.1280 -0.7870
    5SAPS   H3Y  619   1.486   5.451  10.172  3.4800 -0.4632  1.1424
    5SAPS   C34  620   1.585   5.634  10.205  0.6670  0.3043  0.3741
    5SAPS   H4X  621   1.683   5.582  10.218  0.7021 -0.2178 -1.8172
    5SAPS   H4Y  622   1.593   5.709  10.286  1.2672  0.1072  0.4987
    5SAPS   C35  623   1.588   5.699  10.062  0.4032  0.2462  0.2524
    5SAPS   H5X  624   1.679   5.761  10.067 -0.1383  1.0644  0.0913
    5SAPS   H5Y  625   1.507   5.775  10.055  1.5123  1.6829  2.2668
    5SAPS   C36  626   1.579   5.605   9.949 -0.0467 -0.4060 -0.0265
    5SAPS   H6X  627   1.485   5.545   9.950  0.2343 -0.8598 -0.9048
    5SAPS   H6Y  628   1.650   5.522   9.968 -0.9708 -1.0615  0.6605
    5SAPS   C37  629   1.585   5.666   9.814  0.1270 -0.4824  0.4657
    5SAPS   H7X  630   1.667   5.741   9.817 -0.9498  0.6882  1.1662
    5SAPS   H7Y  631   1.485   5.716   9.810  0.0685 -0.7032 -1.1475
    5SAPS   C38  632   1.591   5.567   9.692 -0.2096 -0.7145  0.8340
    5SAPS   H8X  633   1.511   5.490   9.699  1.6858 -2.9328 -1.1548
    5SAPS   H8Y  634   1.693   5.523   9.688  0.1253  0.1348 -0.1912
    5SAPS   C39  635   1.555   5.637   9.561 -0.1011  0.5203 -0.3426
    5SAPS   H9X  636   1.630   5.715   9.535  0.2951 -0.5562 -2.5523
    5SAPS   H9Y  637   1.463   5.697   9.575  0.0196  0.8098 -0.7949
    5SAPS  C310  638   1.549   5.540   9.441 -0.3289 -0.1641  0.7096
    5SAPS  H10X  639   1.466   5.468   9.454 -1.6789  1.3235  0.5154
    5SAPS  H10Y  640   1.645   5.485   9.442 -1.2676 -1.8611 -1.6616
    5SAPS  C311  641   1.540   5.600   9.300  0.3494 -0.4634 -0.4187
    5SAPS  H11X  642   1.572   5.522   9.227 -0.9296 -0.6954 -0.7556
    5SAPS  H11Y  643   1.600   5.692   9.283  1.2125 -1.0032 -0.3326
    5SAPS  C312  644   1.395   5.645   9.286 -0.4292 -0.3022  0.2314
    5SAPS  H12X  645   1.374   5.721   9.365 -0.0434  1.7052 -1.5348
    5SAPS  H12Y  646   1.330   5.555   9.287 -1.3396  0.3496  0.6859
    5SAPS  C313  647   1.368   5.706   9.147 -0.3971 -0.0186 -0.3433
    5SAPS  H13X  648   1.445   5.780   9.117  0.7472 -1.0803 -0.0455
    5SAPS  H13Y  649   1.278   5.772   9.146 -1.1012 -0.9709 -0.9280
    5SAPS  C314  650   1.354   5.596   9.042  0.1768  0.3399 -0.5212
    5SAPS  H14X  651   1.268   5.528   9.061 -0.2380  1.0030  0.0292
    5SAPS  H14Y  652   1.452   5.545   9.056 -0.2014  0.4050  2.7111
    5SAPS  C315  653   1.335   5.660   8.908 -0.3565 -0.2077 -0.4074
    5SAPS  H15X  654   1.417   5.731   8.882 -0.6185  0.6252  0.9747
    5SAPS  H15Y  655   1.245   5.724   8.910 -0.8783 -0.9513  0.1575
    5SAPS  C316  656   1.331   5.559   8.798 -0.5719 -0.2944 -0.0178
    5SAPS  H16X  657   1.266   5.473   8.825 -0.8777 -0.1445 -0.2693
    5SAPS  H16Y  658   1.437   5.525   8.796  0.4179  2.5084  1.5627
    5SAPS  C317  659   1.290   5.622   8.662  0.6134  0.0035 -0.4810
    5SAPS  H17X  660   1.189   5.665   8.678  1.3468  0.6836  2.7589
    5SAPS  H17Y  661   1.282   5.547   8.580 -0.6060  0.0361 -0.4011
    5SAPS  C318  662   1.383   5.728   8.602 -0.6970  0.6096 -0.0412
    5SAPS  H18X  663   1.370   5.809   8.677  2.1650  0.2027  0.9392
    5SAPS  H18Y  664   1.334   5.753   8.506 -2.5952 -0.7038  0.5472
    5SAPS  H18Z  665   1.488   5.693   8.606 -0.4178  1.4171 -0.3247
    6SAPS     N  666   1.055   5.191  10.749 -0.0421  0.1051  0.4181
    6SAPS   HN1  667   1.155   5.170  10.730 -0.2459 -0.4346 -0.0869
    6SAPS   HN2  668   0.999   5.151  10.671  0.2754 -0.0584  0.2725
    6SAPS   HN3  669   1.037   5.293  10.752  0.8917  0.2772  0.2807
    6SAPS   C12  670   1.004   5.116  10.873 -0.5581 -0.6069 -0.4095
    6SAPS  H12A  671   1.075   5.134  10.952  0.3811  1.3287 -1.6732
    6SAPS   C13  672   0.867   5.160  10.930  0.1413 -0.1334  0.1448
    6SAPS  O13A  673   0.793   5.227  10.855  0.2793  0.3691  0.5719
    6SAPS  O13B  674   0.829   5.106  11.034  0.4633 -0.1226  0.1885
    6SAPS   C11  675   0.998   4.965  10.846 -0.0148  0.7513 -0.0066
    6SAPS  H11A  676   0.913   4.955  10.775 -0.6995 -3.0003  1.2593
    6SAPS  H11B  677   0.978   4.910  10.940 -1.7081  1.1803 -0.1057
    6SAPS     P  678   1.134   4.785  10.725 -0.3721 -0.0344 -0.1449
    6SAPS   O13  679   1.271   4.763  10.676  0.2736  0.5874 -0.2597
    6SAPS   O14  680   1.079   4.682  10.813  0.0760  0.3530 -0.4144
    6SAPS   O12  681   1.122   4.921  10.795 -0.7575  0.4276  0.1019
    6SAPS   O11  682   1.042   4.801  10.599  0.3637  0.2784 -0.4261
    6SAPS    C1  683   1.074   4.725  10.481  0.4930 -0.4001  0.2820
    6SAPS    HA  684   1.167   4.761  10.432  0.6279 -0.4934  0.4696
    6SAPS    HB  685   1.082   4.617  10.503  2.3211 -0.0984  1.2854
    6SAPS    C2  686   0.961   4.742  10.372 -0.0003  0.0803  0.0411
    6SAPS    HS  687   0.978   4.668  10.291 -0.8468 -1.9621  1.6679
    6SAPS   O21  688   0.970   4.870  10.315 -0.0982  0.4204  0.3271
    6SAPS   C21  689   1.071   4.892  10.224  0.6710  1.1362  0.3978
    6SAPS   O22  690   1.169   4.821  10.207 -0.1736 -0.5480 -0.3381
    6SAPS   C22  691   1.045   5.025  10.148 -0.2838  0.0675  0.2687
    6SAPS   H2R  692   1.047   5.115  10.213  0.2773 -0.5021  1.0453
    6SAPS   H2S  693   1.127   5.030  10.073  0.3262  2.2482  1.0656
    6SAPS    C3  694   0.817   4.714  10.424 -0.2369  0.5126  0.1539
    6SAPS    HX  695   0.789   4.785  10.505  0.7622  0.6704  0.3726
    6SAPS    HY  696   0.838   4.623  10.484 -0.5049 -0.8447 -1.7752
    6SAPS   O31  697   0.731   4.674  10.314 -0.4402 -0.1120  0.0699
    6SAPS   C31  698   0.664   4.778  10.268  0.0310  0.0493 -0.4168
    6SAPS   O32  699   0.664   4.890  10.315 -0.4012 -0.8023  0.2649
    6SAPS   C32  700   0.598   4.743  10.131 -0.6587 -0.0659 -0.3106
    6SAPS   H2X  701   0.530   4.656  10.145  0.9337 -1.4095 -0.7449
    6SAPS   H2Y  702   0.676   4.711  10.058 -1.1881 -0.6434 -0.6277
    6SAPS   C23  703   0.913   5.036  10.074 -0.0563 -0.2185  0.1031
    6SAPS   H3R  704   0.913   5.130  10.015 -0.1178  1.2067  2.2878
    6SAPS   H3S  705   0.831   5.044  10.149 -1.0243  0.5025 -1.0229
    6SAPS   C24  706   0.876   4.917   9.980 -0.1202 -0.2521  0.0510
    6SAPS   H4R  707   0.772   4.933   9.944 -0.1614  0.5769  0.5288
    6SAPS   H4S  708   0.868   4.823  10.038 -0.9133  0.0596  0.4554
    6SAPS   C25  709   0.980   4.900   9.873  0.3244 -0.0944  0.4775
    6SAPS   H5R  710   1.069   4.856   9.920  0.5318 -0.8257 -0.5849
    6SAPS   C26  711   0.965   4.913   9.741 -0.4070 -0.9639 -0.4314
    6SAPS   H6R  712   1.044   4.872   9.677  0.5224  0.3173 -0.1229
    6SAPS   C27  713   0.846   4.960   9.657  0.3291 -0.0700  0.0926
    6SAPS   H7R  714   0.815   5.060   9.695  1.7575  0.6261 -0.5304
    6SAPS   H7S  715   0.759   4.892   9.673 -0.1888  0.3731 -0.7957
    6SAPS   C28  716   0.881   4.960   9.506  0.1441 -0.1646  0.4405
    6SAPS   H8R  717   0.978   5.008   9.486  1.3254 -2.4229  0.5435
    6SAPS   C29  718   0.813   4.894   9.410 -0.5679  0.2115  0.5071
    6SAPS   H9R  719   0.850   4.908   9.307  2.2060  1.4192  1.6018
    6SAPS  C210  720   0.687   4.820   9.416 -0.4888  0.3021 -0.1931
    6SAPS  H10R  721   0.611   4.852   9.342 -1.2115  3.2433  1.7532
    6SAPS  H10S  722   0.642   4.848   9.514 -0.7248  1.7987 -0.7217
    6SAPS  C211  723   0.688   4.669   9.428  1.1532 -0.0713 -0.0185
    6SAPS  H11R  724   0.737   4.628   9.518  2.4925 -1.0922 -1.1905
    6SAPS  C212  725   0.639   4.588   9.330 -0.0196 -0.4585  0.7991
    6SAPS  H12R  726   0.650   4.481   9.353  3.6245 -0.4000 -0.2554
    6SAPS  C213  727   0.578   4.621   9.194 -0.1709  0.0957 -0.1115
    6SAPS  H13R  728   0.661   4.665   9.134 -0.4787  0.3838 -0.3240
    6SAPS  H13S  729   0.508   4.706   9.198 -1.5335 -1.0071 -0.3159
    6SAPS  C214  730   0.507   4.505   9.121 -0.6137 -0.2100  0.0741
    6SAPS  H14R  731   0.496   4.406   9.166 -0.3772  0.8948  2.6369
    6SAPS  C215  732   0.443   4.526   9.006  0.3761 -0.0632 -0.2009
    6SAPS  H15R  733   0.401   4.439   8.953  0.5678 -0.7174  0.7088
    6SAPS  C216  734   0.443   4.657   8.935  0.3730  0.4060  0.5618
    6SAPS  H16R  735   0.481   4.641   8.832 -0.2680  0.3529  0.3304
    6SAPS  H16S  736   0.518   4.727   8.978  0.7670  0.6640 -0.5402
    6SAPS  C217  737   0.305   4.718   8.953  0.5538 -0.0618  0.2210
    6SAPS  H17R  738   0.314   4.815   8.900 -2.6919  0.3583  0.3395
    6SAPS  H17S  739   0.281   4.746   9.058  2.4642 -0.7274  0.8650
    6SAPS  C218  740   0.185   4.672   8.876 -0.0102 -0.6823  0.3341
    6SAPS  H18R  741   0.115   4.758   8.869  3.1095  2.1100  2.0454
    6SAPS  H18S  742   0.144   4.591   8.939 -2.4034 -0.0511 -0.3630
    6SAPS  C219  743   0.215   4.614   8.735 -0.1838 -0.4709 -0.1031
    6SAPS  H19R  744   0.275   4.524   8.760 -0.8875 -0.8471  0.2699
    6SAPS  H19S  745   0.263   4.695   8.676  0.0206 -0.3705  0.1985
    6SAPS  C220  746   0.091   4.559   8.652 -0.0376  0.5153  0.4252
    6SAPS  H20R  747   0.128   4.505   8.563  3.0297 -0.3895  2.1752
    6SAPS  H20S  748   0.024   4.644   8.625 -1.6582 -0.7511  0.3873
    6SAPS  H20T  749   0.031   4.489   8.715 -1.9038  1.7904  0.1336
    6SAPS   C33  750   0.514   4.863  10.076  1.1233 -0.5484 -0.0248
    6SAPS   H3X  751   0.579   4.940  10.029  0.2290  0.1972 -0.0456
    6SAPS   H3Y  752   0.451   4.924  10.145  1.2280  0.8609 -1.1578
    6SAPS   C34  753   0.425   4.810   9.961  0.5608 -0.7325 -0.2077
    6SAPS   H4X  754   0.366   4.897   9.926 -0.3638 -1.6742 -1.0504
    6SAPS   H4Y  755   0.354   4.739  10.008  0.3734 -0.2890  0.1841
    6SAPS   C35  756   0.502   4.760   9.837  0.1528 -0.0410 -0.4281
    6SAPS   H5X  757   0.563   4.673   9.871 -1.2191 -0.7131  0.3357
    6SAPS   H5Y  758   0.568   4.838   9.793  0.1949 -0.3808 -0.9642
    6SAPS   C36  759   0.428   4.701   9.724  0.3488 -0.0367 -0.4556
    6SAPS   H6X  760   0.498   4.693   9.638  1.3083  0.6677  0.2524
    6SAPS   H6Y  761   0.333   4.757   9.709  1.4774  1.4910 -2.0700
    6SAPS   C37  762   0.378   4.564   9.772 -0.2875 -0.5450  0.4826
    6SAPS   H7X  763   0.315   4.581   9.862 -1.5783 -0.6908 -0.3846
    6SAPS   H7Y  764   0.465   4.499   9.795 -1.0664 -1.2189  1.6297
    6SAPS   C38  765   0.280   4.503   9.671 -0.7478  0.7033  0.0604
    6SAPS   H8X  766   0.202   4.574   9.638 -0.1290  0.4109 -2.1170
    6SAPS   H8Y  767   0.230   4.423   9.730 -1.3171  1.0398  0.0284
    6SAPS   C39  768   0.352   4.444   9.547  0.1620 -0.0244 -0.0416
    6SAPS   H9X  769   0.436   4.380   9.582  1.7728  2.6609  1.1891
    6SAPS   H9Y  770   0.391   4.528   9.485  0.5045 -0.5028 -0.4817
    6SAPS  C310  771   0.262   4.352   9.463  0.3394 -0.9614 -0.2806
    6SAPS  H10X  772   0.197   4.294   9.532 -0.7702 -0.6359 -1.0409
    6SAPS  H10Y  773   0.328   4.275   9.417 -0.4833 -1.2315 -1.0352
    6SAPS  C311  774   0.171   4.407   9.352  0.0011  0.0618  0.2741
    6SAPS  H11X  775   0.219   4.495   9.304 -1.7153 -0.2048 -1.9980
    6SAPS  H11Y  776   0.079   4.446   9.399 -0.9970 -1.2319 -0.5913
    6SAPS  C312  777   0.148   4.298   9.241 -0.1247  0.1105  0.0787
    6SAPS  H12X  778   0.081   4.226   9.292 -1.5637  0.0069 -1.9269
    6SAPS  H12Y  779   0.243   4.245   9.220 -0.6965 -1.3932  1.2069
    6SAPS  C313  780   0.084   4.360   9.113  0.1534  0.1876 -0.3489
    6SAPS  H13X  781   0.067   4.271   9.048 -1.5419  0.4110 -0.2400
    6SAPS  H13Y  782   0.154   4.419   9.049 -1.3314 -0.0022 -2.1904
    6SAPS  C314  783  -0.045   4.437   9.137 -0.4542  0.6320 -0.3620
    6SAPS  H14X  784  -0.029   4.538   9.179  2.5329 -0.8601  2.2975
    6SAPS  H14Y  785  -0.105   4.376   9.207  0.3694  0.2467  0.0194
    6SAPS  C315  786  -0.129   4.440   9.008 -0.1161 -0.2303  0.2746
    6SAPS  H15X  787  -0.145   4.336   8.973 -2.4412  0.2075 -0.0602
    6SAPS  H15Y  788  -0.077   4.501   8.932  0.3363 -0.1221  0.6648
    6SAPS  C316  789  -0.270   4.491   9.021  0.1101 -0.6456 -0.2514
    6SAPS  H16X  790  -0.267   4.595   9.060 -2.0288 -0.0306 -1.6289
    6SAPS  H16Y  791  -0.326   4.429   9.094 -0.9503 -1.5105 -1.7630
    6SAPS  C317  792  -0.347   4.495   8.886 -0.5552 -0.5496  0.2088
    6SAPS  H17X  793  -0.434   4.559   8.912 -0.3733 -0.7646  1.3619
    6SAPS  H17Y  794  -0.385   4.396   8.853 -0.9070 -0.5717  0.6847
    6SAPS  C318  795  -0.275   4.567   8.769  0.2161 -0.6787 -0.2902
    6SAPS  H18X  796  -0.249   4.661   8.822 -2.7542 -0.4711  0.9534
    6SAPS  H18Y  797  -0.344   4.592   8.685  2.4183  1.8372 -1.4180
    6SAPS  H18Z  798  -0.190   4.517   8.720 -0.8828 -1.7818 -1.1019
    7SAPS     N  799   2.853   5.522  10.850 -0.0762 -0.4306  0.4531
    7SAPS   HN1  800   2.824   5.429  10.887 -3.1509  0.7296  1.1110
    7SAPS   HN2  801   2.805   5.547  10.761  1.9783 -0.6311 -0.7523
    7SAPS   HN3  802   2.957   5.525  10.840  0.0420 -0.9997  1.4756
    7SAPS   C12  803   2.837   5.616  10.962  0.1667 -0.6294 -0.1024
    7SAPS  H12A  804   2.738   5.657  10.947  0.6894  1.4609  1.8435
    7SAPS   C13  805   2.850   5.563  11.105 -0.0432  0.2229  0.1878
    7SAPS  O13A  806   2.877   5.440  11.119  0.4610 -0.2760  0.5399
    7SAPS  O13B  807   2.857   5.638  11.210 -0.5608  0.2575  0.2138
    7SAPS   C11  808   2.933   5.736  10.950 -0.1855  0.1272  0.5520
    7SAPS  H11A  809   3.034   5.703  10.981  0.4331  1.0733 -0.4512
    7SAPS  H11B  810   2.906   5.805  11.034  1.0500  1.1086  0.1532
    7SAPS     P  811   2.931   5.945  10.811  0.4315 -0.2303  0.1582
    7SAPS   O13  812   2.805   5.994  10.877 -0.3561 -0.7310 -0.0095
    7SAPS   O14  813   3.053   6.014  10.855  0.1790 -0.3712  0.3454
    7SAPS   O12  814   2.943   5.783  10.817  0.0470  0.2867  0.0350
    7SAPS   O11  815   2.919   5.960  10.655 -0.0562  0.2479 -0.4563
    7SAPS    C1  816   2.813   5.915  10.574  0.4623  0.6423 -0.5505
    7SAPS    HA  817   2.806   5.808  10.605 -2.3847  0.8107 -0.4526
    7SAPS    HB  818   2.727   5.983  10.594  0.4636  1.2845 -2.6115
    7SAPS    C2  819   2.847   5.924  10.416  0.0845 -0.5253 -1.3550
    7SAPS    HS  820   2.920   5.842  10.396  3.3358  1.3447  2.1567
    7SAPS   O21  821   2.903   6.054  10.398 -0.0170  0.4253 -0.2911
    7SAPS   C21  822   2.998   6.073  10.303 -0.3609  0.3196 -0.2204
    7SAPS   O22  823   3.059   5.987  10.245  0.2320  0.3376 -0.6366
    7SAPS   C22  824   3.020   6.223  10.278  0.3134 -0.4889 -0.7125
    7SAPS   H2R  825   2.924   6.276  10.297  0.6137 -0.4452  0.7644
    7SAPS   H2S  826   3.095   6.256  10.353  0.5607  2.4111 -2.1927
    7SAPS    C3  827   2.720   5.898  10.327 -0.2664  0.2206 -0.1970
    7SAPS    HX  828   2.643   5.977  10.343  0.7565  1.1530  0.1287
    7SAPS    HY  829   2.680   5.802  10.365 -0.6633  0.6661  0.5176
    7SAPS   O31  830   2.750   5.881  10.194  0.5815  0.1154  0.0438
    7SAPS   C31  831   2.723   5.970  10.102 -0.3194 -0.4536  0.2241
    7SAPS   O32  832   2.669   6.079  10.123 -0.4759 -0.4925  0.2585
    7SAPS   C32  833   2.754   5.915   9.961  0.6859 -0.1097 -0.1635
    7SAPS   H2X  834   2.742   5.805   9.967 -0.8655  0.0719  0.2551
    7SAPS   H2Y  835   2.858   5.938   9.929  0.5359 -0.0599 -0.6178
    7SAPS   C23  836   3.089   6.258  10.143 -0.5207  0.0905 -0.2836
    7SAPS   H3R  837   3.191   6.213  10.139 -0.6120 -0.0295 -1.2613
    7SAPS   H3S  838   3.115   6.363  10.171  1.9555 -0.4671 -0.3696
    7SAPS   C24  839   3.010   6.265  10.011 -0.3938 -0.1478 -0.3902
    7SAPS   H4R  840   3.042   6.359   9.962  0.0898 -1.1666 -2.0518
    7SAPS   H4S  841   2.900   6.254  10.022 -0.4137  0.2223 -0.2014
    7SAPS   C25  842   3.051   6.150   9.919 -0.1644  0.1735 -0.2806
    7SAPS   H5R  843   3.100   6.063   9.966 -0.5888  0.7146  1.1752
    7SAPS   C26  844   3.053   6.144   9.788  0.4861  0.1981  0.5066
    7SAPS   H6R  845   3.100   6.063   9.731  1.1765  1.0038 -0.0732
    7SAPS   C27  846   3.000   6.253   9.697 -0.7144 -0.0115 -0.5469
    7SAPS   H7R  847   2.910   6.302   9.740 -0.8048 -0.8575  0.2631
    7SAPS   H7S  848   2.950   6.229   9.600  0.8948  4.1847 -2.5005
    7SAPS   C28  849   3.114   6.355   9.675  0.6599 -0.3944  0.4839
    7SAPS   H8R  850   3.166   6.382   9.768  0.7025  0.1862  0.2887
    7SAPS   C29  851   3.157   6.397   9.552 -1.1636 -0.3070 -0.2828
    7SAPS   H9R  852   3.232   6.477   9.547  2.0642 -3.2940 -1.8557
    7SAPS  C210  853   3.103   6.358   9.422 -0.1347 -0.3244 -0.2181
    7SAPS  H10R  854   3.005   6.408   9.409 -0.4852 -0.7308  0.8037
    7SAPS  H10S  855   3.066   6.253   9.428 -1.9872  0.3086 -0.2317
    7SAPS  C211  856   3.202   6.362   9.304 -0.0524 -0.4090 -0.8888
    7SAPS  H11R  857   3.295   6.314   9.339 -1.2911 -0.2484  2.9252
    7SAPS  C212  858   3.177   6.408   9.183 -0.3903  0.5090  0.2184
    7SAPS  H12R  859   3.254   6.403   9.105  0.2321  0.9658  0.7979
    7SAPS  C213  860   3.050   6.470   9.140 -0.0608  0.2439 -0.8957
    7SAPS  H13R  861   2.986   6.476   9.231 -0.1822 -0.4639 -0.9330
    7SAPS  H13S  862   3.003   6.397   9.071 -0.5391  1.2417 -1.6572
    7SAPS  C214  863   3.063   6.615   9.070  0.0023 -0.3427 -0.6642
    7SAPS  H14R  864   3.071   6.702   9.137  3.0550 -0.2315 -1.0897
    7SAPS  C215  865   3.050   6.655   8.937 -1.2698  0.3383  0.3650
    7SAPS  H15R  866   3.072   6.758   8.907  1.2096 -0.5960 -1.1731
    7SAPS  C216  867   3.031   6.555   8.829 -0.1827  0.1819 -0.2525
    7SAPS  H16R  868   2.997   6.461   8.878  0.4496  0.1977  0.2251
    7SAPS  H16S  869   3.128   6.525   8.785 -0.9754 -2.4892 -0.3024
    7SAPS  C217  870   2.940   6.602   8.717 -0.0362  0.2501  0.4309
    7SAPS  H17R  871   2.925   6.522   8.642 -0.8667 -2.3409  3.2731
    7SAPS  H17S  872   2.975   6.696   8.670  1.9521 -0.5917  0.1723
    7SAPS  C218  873   2.798   6.628   8.759 -0.1297  0.0930  0.2677
    7SAPS  H18R  874   2.784   6.688   8.852  1.4196 -0.6094  0.9615
    7SAPS  H18S  875   2.744   6.536   8.792  2.8825 -1.4447  1.0181
    7SAPS  C219  876   2.709   6.681   8.648  0.2365 -0.4018 -0.1798
    7SAPS  H19R  877   2.746   6.644   8.550  3.2180 -0.0608  0.7905
    7SAPS  H19S  878   2.725   6.791   8.644 -0.2233 -0.3588 -1.2792
    7SAPS  C220  879   2.553   6.679   8.662  0.0523  0.4235  0.2595
    7SAPS  H20R  880   2.499   6.730   8.579  1.9780  2.7697  0.4124
    7SAPS  H20S  881   2.521   6.738   8.750 -1.3670  0.1492 -0.0558
    7SAPS  H20T  882   2.515   6.575   8.675 -0.9422  1.0275  2.3063
    7SAPS   C33  883   2.670   5.984   9.858  0.3831 -0.1389 -1.0205
    7SAPS   H3X  884   2.684   6.094   9.869 -0.8593 -0.2245  1.8541
    7SAPS   H3Y  885   2.565   5.958   9.883  0.6987  0.6314  1.2054
    7SAPS   C34  886   2.702   5.938   9.720  0.3479 -0.9881 -0.5670
    7SAPS   H4X  887   2.683   5.830   9.702 -2.1296 -0.7936  0.6770
    7SAPS   H4Y  888   2.810   5.961   9.727  0.2014 -0.7908  1.1624
    7SAPS   C35  889   2.641   6.031   9.607  0.6943 -0.3405 -0.1702
    7SAPS   H5X  890   2.629   6.131   9.654 -1.9678 -0.4034 -0.6526
    7SAPS   H5Y  891   2.536   6.005   9.584  0.9485 -1.5845  0.0355
    7SAPS   C36  892   2.729   6.052   9.482 -0.5065  0.3766 -0.3617
    7SAPS   H6X  893   2.747   5.954   9.432 -0.6839  0.4419 -0.5535
    7SAPS   H6Y  894   2.824   6.083   9.531 -1.6278  0.8906  1.5021
    7SAPS   C37  895   2.676   6.168   9.397  0.0634 -0.0686  0.1410
    7SAPS   H7X  896   2.665   6.255   9.465  1.8471  0.7226 -0.5500
    7SAPS   H7Y  897   2.581   6.136   9.348  0.4150  1.4376 -1.5996
    7SAPS   C38  898   2.778   6.201   9.285  0.6120  0.9102 -0.1696
    7SAPS   H8X  899   2.852   6.120   9.274  2.0802  1.9471  1.8453
    7SAPS   H8Y  900   2.828   6.296   9.313 -1.1467  1.7231  0.3268
    7SAPS   C39  901   2.703   6.216   9.158  0.4435  0.2207 -0.4686
    7SAPS   H9X  902   2.655   6.118   9.137 -0.0019 -0.1930  2.2967
    7SAPS   H9Y  903   2.763   6.244   9.069  0.7366 -2.1840 -1.0631
    7SAPS  C310  904   2.598   6.326   9.155 -0.6758  0.9719 -0.0001
    7SAPS  H10X  905   2.645   6.426   9.167 -1.4830  1.3473  0.0486
    7SAPS  H10Y  906   2.541   6.316   9.250  1.2403  0.1154  1.1002
    7SAPS  C311  907   2.516   6.312   9.034 -0.0272  0.1542 -0.1219
    7SAPS  H11X  908   2.495   6.207   9.007 -0.4179  0.3886 -0.7567
    7SAPS  H11Y  909   2.578   6.344   8.947 -1.1125  0.3076 -0.8546
    7SAPS  C312  910   2.387   6.393   9.035 -0.9069 -0.9511 -0.5562
    7SAPS  H12X  911   2.427   6.492   9.005 -1.5832 -0.4883  0.0739
    7SAPS  H12Y  912   2.328   6.398   9.129  0.6861 -0.6858  0.4602
    7SAPS  C313  913   2.292   6.354   8.922  0.1227 -0.1561  0.3707
    7SAPS  H13X  914   2.253   6.253   8.947 -0.0592 -0.0232  0.6255
    7SAPS  H13Y  915   2.341   6.358   8.823  0.5722  2.0533  0.6483
    7SAPS  C314  916   2.172   6.451   8.918 -0.4393  0.4219 -0.1052
    7SAPS  H14X  917   2.203   6.554   8.892  0.1324  0.5034  0.8639
    7SAPS  H14Y  918   2.108   6.457   9.008 -0.5193 -1.1282 -0.0327
    7SAPS  C315  919   2.069   6.407   8.814 -0.3640 -0.2823 -0.4180
    7SAPS  H15X  920   2.028   6.310   8.850  2.2714 -1.9512 -1.7784
    7SAPS  H15Y  921   2.123   6.397   8.718  1.2887  3.7472 -0.0179
    7SAPS  C316  922   1.951   6.493   8.776 -0.0817 -0.5368  0.1489
    7SAPS  H16X  923   1.992   6.579   8.718 -1.3844  0.9582  1.3721
    7SAPS  H16Y  924   1.900   6.553   8.855 -0.0582  0.4615 -0.5861
    7SAPS  C317  925   1.841   6.417   8.696  0.6468  0.0208 -0.0598
    7SAPS  H17X  926   1.744   6.473   8.693  2.3081  2.9801 -0.8506
    7SAPS  H17Y  927   1.829   6.325   8.756  0.6595  1.0516  1.5550
    7SAPS  C318  928   1.884   6.388   8.546  0.5253  0.7252  0.0482
    7SAPS  H18X  929   1.915   6.484   8.501 -3.1359  2.4484  1.0362
    7SAPS  H18Y  930   1.795   6.360   8.485  0.3107 -1.2226  1.1998
    7SAPS  H18Z  931   1.954   6.304   8.523 -2.4912 -2.1772  0.9517
    8SAPS     N  932   1.085   0.673  11.243 -0.0629  0.7279  0.0482
    8SAPS   HN1  933   1.164   0.696  11.179 -0.8586 -2.0477 -2.0456
    8SAPS   HN2  934   1.000   0.733  11.236 -0.9193 -0.1393  2.3947
    8SAPS   HN3  935   1.128   0.695  11.334  0.1266  0.4053  0.0385
    8SAPS   C12  936   1.045   0.527  11.245  0.1945 -0.0834 -0.2292
    8SAPS  H12A  937   1.127   0.461  11.221 -0.6651 -0.4232 -2.3497
    8SAPS   C13  938   0.998   0.480  11.384 -0.1358  0.1718  0.1914
    8SAPS  O13A  939   0.999   0.564  11.476  0.2563  0.4574  0.3974
    8SAPS  O13B  940   0.998   0.358  11.416  0.0332  0.2868  0.3859
    8SAPS   C11  941   0.942   0.495  11.135  0.6291  0.5578  0.0138
    8SAPS  H11A  942   0.941   0.385  11.123 -3.1315  0.4459  0.8534
    8SAPS  H11B  943   0.981   0.525  11.035 -2.2900 -0.8490 -1.6210
    8SAPS     P  944   0.753   0.684  11.137 -0.1274 -0.2243 -0.2697
    8SAPS   O13  945   0.610   0.691  11.163 -0.3277 -0.0063 -0.1089
    8SAPS   O14  946   0.845   0.769  11.210  0.5720  0.0346 -0.4219
    8SAPS   O12  947   0.808   0.541  11.158  0.0937 -0.2988 -0.9776
    8SAPS   O11  948   0.778   0.696  10.979  0.1479 -0.1987  0.1268
    8SAPS    C1  949   0.673   0.635  10.892 -0.6702  0.0742  0.4614
    8SAPS    HA  950   0.700   0.529  10.874 -0.5993  0.2581 -0.5446
    8SAPS    HB  951   0.572   0.639  10.937 -2.0807 -0.6157 -2.5039
    8SAPS    C2  952   0.673   0.713  10.764  0.1263  0.0842 -0.2154
    8SAPS    HS  953   0.624   0.811  10.784  0.2588  0.6918 -2.7344
    8SAPS   O21  954   0.604   0.634  10.662 -0.9255  0.1130  0.1630
    8SAPS   C21  955   0.476   0.627  10.691  0.9290  0.3258 -0.5718
    8SAPS   O22  956   0.415   0.713  10.756 -0.6458 -0.1771  0.4725
    8SAPS   C22  957   0.412   0.522  10.605  0.2844  0.1090 -0.3661
    8SAPS   H2R  958   0.413   0.434  10.673  0.5732  0.8855  0.6447
    8SAPS   H2S  959   0.302   0.540  10.601  0.1488  0.5744  3.7581
    8SAPS    C3  960   0.812   0.765  10.720 -0.5240  0.0773  0.0078
    8SAPS    HX  961   0.883   0.680  10.720 -2.1881 -1.3445 -1.1143
    8SAPS    HY  962   0.850   0.831  10.801 -1.3199  0.3220  0.1852
    8SAPS   O31  963   0.815   0.818  10.588  0.4999  0.3832  0.1515
    8SAPS   C31  964   0.756   0.932  10.572  0.3403  0.2935 -0.0547
    8SAPS   O32  965   0.705   1.001  10.659 -0.1886 -0.5909  0.3986
    8SAPS   C32  966   0.746   0.972  10.429 -0.6329 -0.4554 -0.1533
    8SAPS   H2X  967   0.854   0.975  10.402 -0.0390  1.9899  2.2750
    8SAPS   H2Y  968   0.699   1.073  10.421  0.1608 -0.0271  0.4340
    8SAPS   C23  969   0.482   0.487  10.477 -0.9171  0.1035 -0.3394
    8SAPS   H3R  970   0.585   0.452  10.499 -0.3930  1.3540 -0.7451
    8SAPS   H3S  971   0.487   0.585  10.424 -0.0158  0.8915  1.1723
    8SAPS   C24  972   0.417   0.381  10.387  0.7417  0.2338  0.5542
    8SAPS   H4R  973   0.404   0.294  10.455 -0.2366 -0.1576 -0.1407
    8SAPS   H4S  974   0.487   0.353  10.306  0.3416  2.7066 -0.7049
    8SAPS   C25  975   0.286   0.434  10.329  0.1622 -0.2209  0.7702
    8SAPS   H5R  976   0.233   0.496  10.403 -0.8331  0.7996 -0.7728
    8SAPS   C26  977   0.238   0.392  10.209  0.0001  1.1856  0.2664
    8SAPS   H6R  978   0.148   0.439  10.168 -0.5547  1.0904  1.3731
    8SAPS   C27  979   0.300   0.296  10.114 -0.2483  0.7229 -0.1880
    8SAPS   H7R  980   0.365   0.231  10.177 -1.2396 -0.4433 -0.3600
    8SAPS   H7S  981   0.367   0.334  10.034 -1.1716  0.3502 -1.1563
    8SAPS   C28  982   0.198   0.201  10.061  0.2220 -0.0785  0.0001
    8SAPS   H8R  983   0.121   0.161  10.129 -1.6109  0.9430 -1.4357
    8SAPS   C29  984   0.188   0.155   9.940  0.2216  0.1902 -0.2908
    8SAPS   H9R  985   0.117   0.072   9.925  0.2538  0.3326 -1.2404
    8SAPS  C210  986   0.280   0.193   9.818 -0.1934 -0.8240 -0.4963
    8SAPS  H10R  987   0.388   0.185   9.841  0.0730  2.0703 -0.5781
    8SAPS  H10S  988   0.267   0.303   9.806  0.9210 -0.3967  2.0034
    8SAPS  C211  989   0.270   0.111   9.693 -0.3113  0.6048  0.4196
    8SAPS  H11R  990   0.220   0.013   9.703 -1.7712  1.0944 -1.7974
    8SAPS  C212  991   0.294   0.153   9.569  0.6101 -0.3422 -1.0242
    8SAPS  H12R  992   0.278   0.099   9.475 -0.0193 -2.7678  0.4330
    8SAPS  C213  993   0.349   0.296   9.550  0.3835  0.8942  0.1344
    8SAPS  H13R  994   0.374   0.355   9.641  2.0321 -1.1320  1.0265
    8SAPS  H13S  995   0.276   0.360   9.496  1.4259  1.6642 -0.4014
    8SAPS  C214  996   0.462   0.282   9.450 -0.4365 -0.2759 -0.5951
    8SAPS  H14R  997   0.529   0.195   9.458 -1.6267 -1.3352 -1.7706
    8SAPS  C215  998   0.497   0.363   9.349  0.1333  0.1109 -0.4263
    8SAPS  H15R  999   0.588   0.332   9.295 -0.4869 -1.7247 -0.4460
    8SAPS  C216 1000   0.421   0.491   9.311 -0.1555 -0.1449 -1.1217
    8SAPS  H16R 1001   0.486   0.575   9.345 -0.7819  0.8187 -2.2663
    8SAPS  H16S 1002   0.324   0.491   9.364  0.5045 -3.5971  0.2175
    8SAPS  C217 1003   0.398   0.520   9.163 -0.2685  0.4432  0.1407
    8SAPS  H17R 1004   0.317   0.454   9.126 -3.3633  2.8840  2.2993
    8SAPS  H17S 1005   0.494   0.499   9.110 -0.9020  0.4457 -1.0200
    8SAPS  C218 1006   0.339   0.655   9.131  0.6680  0.6210 -0.2556
    8SAPS  H18R 1007   0.398   0.736   9.180  0.4956  1.6668 -1.7557
    8SAPS  H18S 1008   0.242   0.663   9.185  1.4089  0.1154  1.1818
    8SAPS  C219 1009   0.313   0.663   8.976 -0.3738  0.2298 -0.0933
    8SAPS  H19R 1010   0.231   0.597   8.944 -0.8073  1.7538 -2.1992
    8SAPS  H19S 1011   0.397   0.621   8.917  0.9047  2.2275  0.2419
    8SAPS  C220 1012   0.302   0.804   8.925  0.4587  0.6440 -0.3990
    8SAPS  H20R 1013   0.290   0.796   8.815 -0.9359  0.1195 -0.2189
    8SAPS  H20S 1014   0.400   0.849   8.950  0.2249  0.4462  0.8940
    8SAPS  H20T 1015   0.222   0.875   8.955  0.1984  0.7904 -1.4157
    8SAPS   C33 1016   0.682   0.863  10.338  0.8641 -0.8904 -0.0549
    8SAPS   H3X 1017   0.734   0.767  10.358  0.0031 -1.7405 -1.7737
    8SAPS   H3Y 1018   0.702   0.900  10.235  0.5599  2.5818  1.0697
    8SAPS   C34 1019   0.528   0.848  10.343  0.1767  0.0434 -0.0119
    8SAPS   H4X 1020   0.476   0.945  10.348  0.9651  0.4180  1.0805
    8SAPS   H4Y 1021   0.488   0.795  10.432  0.3415 -0.9630 -0.5220
    8SAPS   C35 1022   0.470   0.780  10.216  0.1688  0.6720  0.3877
    8SAPS   H5X 1023   0.371   0.735  10.238 -0.1748 -0.0237 -2.3123
    8SAPS   H5Y 1024   0.523   0.692  10.172  1.4784  1.7809 -0.3000
    8SAPS   C36 1025   0.429   0.878  10.112 -0.3882  0.3482 -1.1546
    8SAPS   H6X 1026   0.509   0.950  10.084 -1.3743  1.6550 -0.6931
    8SAPS   H6Y 1027   0.349   0.944  10.153  0.6810  0.0116  1.5442
    8SAPS   C37 1028   0.375   0.814   9.976  0.6309 -0.3693 -0.1713
    8SAPS   H7X 1029   0.468   0.798   9.916  0.1719  0.8306 -1.2313
    8SAPS   H7Y 1030   0.312   0.890   9.926  1.4870 -0.8301 -1.9848
    8SAPS   C38 1031   0.279   0.697   9.983  0.1245  0.7278 -0.5044
    8SAPS   H8X 1032   0.189   0.726  10.041  1.6475  1.8014  1.3719
    8SAPS   H8Y 1033   0.331   0.611  10.030  2.9415  1.2480 -2.5729
    8SAPS   C39 1034   0.239   0.661   9.850  0.4070 -0.2376  0.2618
    8SAPS   H9X 1035   0.323   0.600   9.812  2.7899  2.1861  1.4682
    8SAPS   H9Y 1036   0.218   0.751   9.789  0.5724  0.2071  0.8535
    8SAPS  C310 1037   0.106   0.577   9.848 -0.2640  0.0840 -0.0777
    8SAPS  H10X 1038   0.022   0.641   9.881 -1.4559 -1.6767  0.3682
    8SAPS  H10Y 1039   0.119   0.489   9.915 -0.4750  1.0334  1.2220
    8SAPS  C311 1040   0.080   0.521   9.703  0.7423  0.8197  0.3681
    8SAPS  H11X 1041   0.171   0.474   9.661 -0.6705 -2.2532  0.6042
    8SAPS  H11Y 1042   0.050   0.605   9.637  0.1053  0.1159 -0.2420
    8SAPS  C312 1043  -0.028   0.410   9.694 -0.0456 -0.8203  0.3254
    8SAPS  H12X 1044  -0.118   0.470   9.717  0.9102  0.8179 -0.0982
    8SAPS  H12Y 1045   0.001   0.338   9.774  3.5599 -0.1099 -0.2364
    8SAPS  C313 1046  -0.032   0.322   9.565  0.3311  0.0860  0.0502
    8SAPS  H13X 1047  -0.123   0.259   9.556  1.5084 -1.9194  1.7277
    8SAPS  H13Y 1048   0.056   0.255   9.556 -0.1297 -0.6878  1.1364
    8SAPS  C314 1049  -0.015   0.410   9.434  0.2055 -0.4578 -0.1075
    8SAPS  H14X 1050   0.080   0.465   9.445 -0.5295  0.4793  1.9852
    8SAPS  H14Y 1051  -0.102   0.479   9.427 -1.0968 -2.1007 -0.3897
    8SAPS  C315 1052   0.003   0.322   9.301  0.5984 -0.3533 -0.2289
    8SAPS  H15X 1053   0.087   0.255   9.329  0.8234  1.2942  3.2861
    8SAPS  H15Y 1054   0.036   0.397   9.226  0.6488 -0.4151 -0.2689
    8SAPS  C316 1055  -0.126   0.249   9.271 -0.1894 -0.0153  0.7570
    8SAPS  H16X 1056  -0.221   0.304   9.288 -1.5592 -1.3383 -2.3040
    8SAPS  H16Y 1057  -0.143   0.157   9.331 -0.3676 -0.8552 -0.5576
    8SAPS  C317 1058  -0.131   0.204   9.123  0.0322  0.5983  0.4266
    8SAPS  H17X 1059  -0.196   0.115   9.107 -0.2627  0.6195  1.4966
    8SAPS  H17Y 1060  -0.026   0.174   9.102 -0.4114 -1.9075  1.6171
    8SAPS  C318 1061  -0.171   0.317   9.027 -0.0304 -1.1583  0.1006
    8SAPS  H18X 1062  -0.258   0.374   9.068 -0.5575 -0.5135 -1.8737
    8SAPS  H18Y 1063  -0.201   0.281   8.926  0.0401 -0.3636 -0.2033
    8SAPS  H18Z 1064  -0.087   0.388   9.017 -0.5631 -0.6015 -0.4516
    9SAPS     N 1065   3.427   3.205   6.411  0.1626  0.2138 -0.4795
    9SAPS   HN1 1066   3.385   3.171   6.499  0.9559  1.0533  0.2389
    9SAPS   HN2 1067   3.494   3.134   6.374 -1.0680 -0.9607 -0.5096
    9SAPS   HN3 1068   3.475   3.297   6.414 -2.2098  1.4199  2.6506
    9SAPS   C12 1069   3.316   3.222   6.312 -1.1138 -0.3840  0.0212
    9SAPS  H12A 1070   3.357   3.253   6.217 -1.4552  1.2367  0.3934
    9SAPS   C13 1071   3.235   3.086   6.285 -0.2749  0.9653  0.1729
    9SAPS  O13A 1072   3.291   2.979   6.312  0.0736 -0.1263 -0.3630
    9SAPS  O13B 1073   3.124   3.081   6.225  0.0822 -0.2560 -0.1898
    9SAPS   C11 1074   3.219   3.335   6.364 -0.0641  0.5205 -0.0530
    9SAPS  H11A 1075   3.163   3.292   6.450 -0.3168 -1.6512 -1.2563
    9SAPS  H11B 1076   3.143   3.341   6.284 -0.3309  1.9327  0.3018
    9SAPS     P 1077   3.228   3.575   6.463  0.1747  0.1787  0.1681
    9SAPS   O13 1078   3.331   3.679   6.481  0.8383 -0.3802  0.4682
    9SAPS   O14 1079   3.100   3.615   6.395  0.4366 -0.3795 -0.2100
    9SAPS   O12 1080   3.292   3.454   6.383 -0.6931 -0.1629 -0.4572
    9SAPS   O11 1081   3.201   3.501   6.598 -0.7468  0.4116 -0.0220
    9SAPS    C1 1082   3.307   3.436   6.674 -0.7759 -0.3901  0.7781
    9SAPS    HA 1083   3.271   3.331   6.683 -2.0623 -0.4671 -3.6219
    9SAPS    HB 1084   3.410   3.452   6.636 -0.6757 -1.3322  0.6374
    9SAPS    C2 1085   3.311   3.499   6.814 -0.7825  0.1254 -0.8134
    9SAPS    HS 1086   3.402   3.563   6.817 -1.4114  0.9566  2.2401
    9SAPS   O21 1087   3.327   3.401   6.919 -0.2070 -0.8442  0.0757
    9SAPS   C21 1088   3.442   3.326   6.903  0.5382 -0.0529  0.5170
    9SAPS   O22 1089   3.545   3.366   6.844  0.0970  0.5286  0.2465
    9SAPS   C22 1090   3.437   3.221   7.016 -0.0910  0.0463  0.5121
    9SAPS   H2R 1091   3.495   3.268   7.099  0.5428  0.2946 -0.0656
    9SAPS   H2S 1092   3.332   3.194   7.040 -1.2373  1.9964 -2.0763
    9SAPS    C3 1093   3.185   3.587   6.848 -0.0682 -0.0289  0.3178
    9SAPS    HX 1094   3.098   3.518   6.836 -0.9845  1.0749  0.5464
    9SAPS    HY 1095   3.161   3.666   6.774  0.3236  0.1762  0.4104
    9SAPS   O31 1096   3.193   3.633   6.984 -0.2267 -0.4599 -0.3699
    9SAPS   C31 1097   3.117   3.730   7.016  0.0553  0.1312 -0.7478
    9SAPS   O32 1098   3.039   3.779   6.938  0.0572 -0.6916  0.2000
    9SAPS   C32 1099   3.142   3.771   7.156 -0.4642  0.6833 -0.1724
    9SAPS   H2X 1100   3.235   3.831   7.167 -0.0140 -0.3711  2.0306
    9SAPS   H2Y 1101   3.143   3.680   7.220 -0.4960  1.1428  0.4744
    9SAPS   C23 1102   3.520   3.094   6.974  0.2036  0.6424  0.1224
    9SAPS   H3R 1103   3.612   3.135   6.928 -1.5077  3.4109 -0.9308
    9SAPS   H3S 1104   3.474   3.030   6.896 -0.0077 -1.5483  1.9953
    9SAPS   C24 1105   3.544   3.004   7.102 -0.0078  0.1719 -0.4249
    9SAPS   H4R 1106   3.603   3.069   7.170 -0.2827 -2.3973  2.3743
    9SAPS   H4S 1107   3.608   2.919   7.068  0.6364  0.1384  0.8058
    9SAPS   C25 1108   3.418   2.943   7.164  0.2811 -0.4567  0.3029
    9SAPS   H5R 1109   3.346   2.899   7.093  0.4590 -0.1559 -0.0621
    9SAPS   C26 1110   3.384   2.947   7.295 -0.3873  0.3589  0.3821
    9SAPS   H6R 1111   3.288   2.910   7.335  0.4308 -1.6620  0.5439
    9SAPS   C27 1112   3.472   3.002   7.405  0.2237 -0.3959 -0.1785
    9SAPS   H7R 1113   3.414   3.079   7.461 -1.5732 -0.8805 -1.3123
    9SAPS   H7S 1114   3.559   3.061   7.368 -0.1565  0.8935  0.9622
    9SAPS   C28 1115   3.518   2.875   7.478 -0.9602 -0.1799 -0.0918
    9SAPS   H8R 1116   3.551   2.793   7.413  1.5054  1.3184 -0.8186
    9SAPS   C29 1117   3.544   2.862   7.611 -0.4624  0.1165  0.5969
    9SAPS   H9R 1118   3.584   2.770   7.656 -0.4103 -1.1374 -1.9736
    9SAPS  C210 1119   3.534   2.982   7.707  0.2568  0.4559  0.5648
    9SAPS  H10R 1120   3.484   2.957   7.803  3.0454  0.6447  2.1402
    9SAPS  H10S 1121   3.472   3.061   7.660  0.7493 -0.2166 -1.2751
    9SAPS  C211 1122   3.668   3.054   7.727 -0.2403  0.1991 -0.0149
    9SAPS  H11R 1123   3.715   3.108   7.644  0.7493 -0.5784  0.0300
    9SAPS  C212 1124   3.756   3.037   7.826  1.0007 -0.3385 -0.5718
    9SAPS  H12R 1125   3.853   3.088   7.821  0.0913  1.2202 -3.3151
    9SAPS  C213 1126   3.743   2.948   7.951 -0.4432 -0.2961  0.0575
    9SAPS  H13R 1127   3.837   2.905   7.990  0.6099  2.1887  0.3525
    9SAPS  H13S 1128   3.673   2.862   7.944  1.5413 -1.8882 -0.7170
    9SAPS  C214 1129   3.707   3.036   8.073  0.4828  0.2768  0.3145
    9SAPS  H14R 1130   3.785   3.112   8.088  3.1221 -2.7675  2.7352
    9SAPS  C215 1131   3.591   3.039   8.139  0.3104 -0.1947 -0.5664
    9SAPS  H15R 1132   3.589   3.107   8.225  2.4612  1.6201 -1.9029
    9SAPS  C216 1133   3.467   2.951   8.118 -0.0241  0.9865  0.1125
    9SAPS  H16R 1134   3.485   2.873   8.040  0.1903  1.0016  0.1458
    9SAPS  H16S 1135   3.385   3.017   8.082 -0.3824 -0.9801 -2.8821
    9SAPS  C217 1136   3.426   2.877   8.242  0.2171 -0.8372 -0.4939
    9SAPS  H17R 1137   3.503   2.827   8.304 -0.3329 -0.8103  0.2139
    9SAPS  H17S 1138   3.359   2.791   8.218 -1.1917  0.0516  0.2153
    9SAPS  C218 1139   3.331   2.965   8.323 -0.0243  0.1542 -1.0337
    9SAPS  H18R 1140   3.241   2.992   8.263 -1.9017 -2.0413  0.7173
    9SAPS  H18S 1141   3.388   3.055   8.353  0.3994 -0.1584 -0.8937
    9SAPS  C219 1142   3.282   2.899   8.458  0.0648 -0.2944 -0.4302
    9SAPS  H19R 1143   3.373   2.868   8.513  1.4831  2.7326 -1.0021
    9SAPS  H19S 1144   3.221   2.812   8.424  1.0399 -1.0834 -0.2022
    9SAPS  C220 1145   3.201   2.986   8.558 -0.1047  1.0454 -0.4158
    9SAPS  H20R 1146   3.268   3.064   8.599 -0.6729  0.9799  0.6467
    9SAPS  H20S 1147   3.165   2.922   8.641 -0.6055  0.3425 -1.1622
    9SAPS  H20T 1148   3.122   3.043   8.505 -1.3456  0.3146  0.6400
    9SAPS   C33 1149   3.032   3.871   7.212 -0.2983  0.3200  0.3302
    9SAPS   H3X 1150   2.940   3.814   7.185  1.5473 -2.1234 -1.1169
    9SAPS   H3Y 1151   3.030   3.962   7.148 -0.3837  1.3033  1.7200
    9SAPS   C34 1152   3.037   3.895   7.364 -0.7269  0.3588 -1.1552
    9SAPS   H4X 1153   2.970   3.975   7.402  0.8695  0.6281  1.1841
    9SAPS   H4Y 1154   3.133   3.946   7.388 -0.8329  0.6045 -1.2543
    9SAPS   C35 1155   3.025   3.768   7.441  0.2718  0.8106  0.4840
    9SAPS   H5X 1156   3.112   3.702   7.422 -0.5957  0.0717 -0.9509
    9SAPS   H5Y 1157   2.934   3.713   7.410  0.2536  1.2961 -0.3286
    9SAPS   C36 1158   3.003   3.771   7.596 -0.1603 -0.1072 -0.5213
    9SAPS   H6X 1159   2.940   3.685   7.628  0.0334 -0.3850 -0.8748
    9SAPS   H6Y 1160   2.947   3.863   7.622  0.3385 -0.4057  1.6657
    9SAPS   C37 1161   3.130   3.743   7.669  0.1153 -0.0153  0.3174
    9SAPS   H7X 1162   3.208   3.815   7.637 -1.2514  0.7486 -1.4235
    9SAPS   H7Y 1163   3.152   3.636   7.647  2.4804  0.8434 -1.7638
    9SAPS   C38 1164   3.116   3.754   7.825 -0.4899  0.0065  0.4499
    9SAPS   H8X 1165   3.215   3.746   7.875 -1.1652 -1.7325  1.5386
    9SAPS   H8Y 1166   3.054   3.667   7.857 -1.7676  0.9748  0.6766
    9SAPS   C39 1167   3.057   3.885   7.883  1.2295  0.0127 -0.0196
    9SAPS   H9X 1168   2.962   3.906   7.829  0.7160 -0.6919  0.5875
    9SAPS   H9Y 1169   3.128   3.967   7.863  0.2078  1.1764  1.0801
    9SAPS  C310 1170   3.022   3.874   8.038  0.5726 -0.0602  0.0958
    9SAPS  H10X 1171   2.977   3.773   8.049  0.2378 -0.0687 -1.2219
    9SAPS  H10Y 1172   2.954   3.954   8.075  0.4194 -0.0133 -0.2856
    9SAPS  C311 1173   3.148   3.886   8.120  0.6502  0.3564  0.3250
    9SAPS  H11X 1174   3.190   3.985   8.093  2.2926 -0.0895  1.1360
    9SAPS  H11Y 1175   3.217   3.811   8.076 -2.6582 -1.5905 -1.7192
    9SAPS  C312 1176   3.130   3.870   8.272 -0.7031 -0.2652 -0.1068
    9SAPS  H12X 1177   3.226   3.883   8.327 -0.5429  3.1028 -1.0531
    9SAPS  H12Y 1178   3.087   3.771   8.299  0.2460 -0.3608  1.0912
    9SAPS  C313 1179   3.039   3.977   8.339  0.1700  0.1331 -0.2236
    9SAPS  H13X 1180   2.934   3.973   8.303 -0.3993 -2.0608  1.5266
    9SAPS  H13Y 1181   3.072   4.079   8.311  0.4433 -0.4713 -2.2031
    9SAPS  C314 1182   3.039   3.968   8.485  1.1835  0.0326 -0.3654
    9SAPS  H14X 1183   3.127   4.021   8.525  2.8804 -2.3545 -0.8262
    9SAPS  H14Y 1184   3.052   3.859   8.505 -1.0443  0.1680  2.2745
    9SAPS  C315 1185   2.901   4.001   8.553 -0.1876 -0.5013 -0.7870
    9SAPS  H15X 1186   2.911   3.976   8.661  0.1099 -0.8380 -0.8926
    9SAPS  H15Y 1187   2.833   3.930   8.502 -3.1013  1.6988 -0.1205
    9SAPS  C316 1188   2.854   4.151   8.550 -0.7416  0.3402 -0.9229
    9SAPS  H16X 1189   2.761   4.164   8.608  0.4422 -1.1202  1.3904
    9SAPS  H16Y 1190   2.838   4.174   8.442 -0.7298  0.3091 -0.9302
    9SAPS  C317 1191   2.959   4.240   8.609 -0.1947  0.1250 -0.5842
    9SAPS  H17X 1192   2.929   4.346   8.594  3.4187  1.0809 -1.4873
    9SAPS  H17Y 1193   3.061   4.227   8.568  0.0650 -2.5381  0.8175
    9SAPS  C318 1194   2.969   4.223   8.762  0.8483  0.1270 -0.1277
    9SAPS  H18X 1195   2.866   4.213   8.802  0.8096  0.9004 -0.0127
    9SAPS  H18Y 1196   3.007   4.314   8.813  1.9432  0.4725 -1.5496
    9SAPS  H18Z 1197   3.038   4.142   8.794  0.8016  0.3042  0.4223
   10SAPS     N 1198   3.251   2.530   6.177 -0.2436  0.0262  0.0016
   10SAPS   HN1 1199   3.320   2.550   6.253 -0.1277  0.6251 -0.2570
   10SAPS   HN2 1200   3.300   2.537   6.086 -1.1108  1.6257 -0.3704
   10SAPS   HN3 1201   3.170   2.594   6.187 -0.6440 -1.0160  4.5691
   10SAPS   C12 1202   3.218   2.393   6.182  0.0473  0.9923 -0.3717
   10SAPS  H12A 1203   3.127   2.390   6.124  0.0250  2.4532 -0.4303
   10SAPS   C13 1204   3.302   2.281   6.108 -0.2050  0.0033 -0.4956
   10SAPS  O13A 1205   3.402   2.328   6.050  0.1289  0.0068  0.1550
   10SAPS  O13B 1206   3.259   2.162   6.088 -0.4745 -0.0442  0.0058
   10SAPS   C11 1207   3.204   2.340   6.331 -0.2593  0.0861  0.3754
   10SAPS  H11A 1208   3.139   2.250   6.323 -0.9551  0.7612 -2.0786
   10SAPS  H11B 1209   3.141   2.416   6.383  0.3260  0.7517  0.1268
   10SAPS     P 1210   3.399   2.425   6.488 -0.0827  0.0148 -0.3120
   10SAPS   O13 1211   3.526   2.387   6.555  0.4534 -0.0573 -0.1215
   10SAPS   O14 1212   3.409   2.543   6.404  0.1870  1.0438  0.0384
   10SAPS   O12 1213   3.332   2.317   6.397  1.0266 -0.1602 -0.0929
   10SAPS   O11 1214   3.296   2.444   6.605  0.4534  0.4210  0.3714
   10SAPS    C1 1215   3.227   2.337   6.674  0.7378 -0.9350  0.0291
   10SAPS    HA 1216   3.123   2.320   6.640 -0.1686  2.0427  1.2065
   10SAPS    HB 1217   3.271   2.235   6.662 -0.1736 -1.1231 -1.9215
   10SAPS    C2 1218   3.221   2.374   6.828  0.4456  0.4698 -0.2317
   10SAPS    HS 1219   3.175   2.290   6.884  2.2125 -0.9002 -0.7915
   10SAPS   O21 1220   3.143   2.493   6.852  0.6610 -0.1520  0.2968
   10SAPS   C21 1221   3.010   2.490   6.841  0.2412  0.8677  0.4629
   10SAPS   O22 1222   2.942   2.387   6.827  0.3684 -0.4422 -0.4159
   10SAPS   C22 1223   2.944   2.628   6.873 -0.4213 -0.2862 -0.0507
   10SAPS   H2R 1224   3.025   2.705   6.881  0.7130 -1.4497 -0.1650
   10SAPS   H2S 1225   2.893   2.656   6.778 -1.5455  2.4408  1.2945
   10SAPS    C3 1226   3.359   2.398   6.891  0.5702 -0.0332  0.5892
   10SAPS    HX 1227   3.420   2.479   6.846 -2.5477  2.1968  0.1991
   10SAPS    HY 1228   3.422   2.312   6.863 -0.8915 -1.1762  0.7236
   10SAPS   O31 1229   3.361   2.395   7.029 -0.1549 -0.2150  0.2578
   10SAPS   C31 1230   3.333   2.514   7.090  0.0509  0.0361 -0.1036
   10SAPS   O32 1231   3.335   2.623   7.039  0.7651 -0.5197  0.1165
   10SAPS   C32 1232   3.285   2.481   7.234  1.1032  0.2281 -0.4386
   10SAPS   H2X 1233   3.339   2.391   7.269  0.5498  0.5863  1.3826
   10SAPS   H2Y 1234   3.176   2.461   7.230  0.9328  0.4888  2.3028
   10SAPS   C23 1235   2.860   2.631   6.991 -0.3506  0.5586  0.3929
   10SAPS   H3R 1236   2.774   2.561   6.986  0.5752 -0.5879  0.3062
   10SAPS   H3S 1237   2.815   2.732   6.987  0.9792  1.0986 -1.3864
   10SAPS   C24 1238   2.938   2.614   7.122 -0.4568  0.2269  0.2802
   10SAPS   H4R 1239   3.022   2.687   7.124 -0.7232  0.5875 -1.3189
   10SAPS   H4S 1240   2.970   2.507   7.119 -1.0638  0.0938 -3.6794
   10SAPS   C25 1241   2.841   2.649   7.239 -0.3681  0.3447  0.0166
   10SAPS   H5R 1242   2.761   2.574   7.246  1.1683 -1.0732  4.5234
   10SAPS   C26 1243   2.839   2.737   7.339 -0.1184 -0.5556  0.0761
   10SAPS   H6R 1244   2.747   2.733   7.399 -0.3340  1.3777 -0.0848
   10SAPS   C27 1245   2.943   2.848   7.356  0.7684 -0.2842  0.1632
   10SAPS   H7R 1246   2.959   2.889   7.254 -0.9702 -0.7130 -0.3000
   10SAPS   H7S 1247   3.044   2.808   7.378  1.1106 -0.0957 -0.9820
   10SAPS   C28 1248   2.910   2.967   7.452 -0.3965 -0.2745 -0.3565
   10SAPS   H8R 1249   2.895   3.062   7.397 -2.3342  0.6099  1.6071
   10SAPS   C29 1250   2.890   2.966   7.587 -0.7315 -1.0000  0.5015
   10SAPS   H9R 1251   2.860   3.058   7.639 -0.4454 -0.9655  0.6080
   10SAPS  C210 1252   2.911   2.845   7.677 -0.2872  0.0491 -0.3581
   10SAPS  H10R 1253   2.940   2.747   7.634 -1.4180 -0.2233 -0.5243
   10SAPS  H10S 1254   2.821   2.830   7.740 -0.8812 -0.4486 -1.3206
   10SAPS  C211 1255   3.018   2.890   7.776  0.1258  0.4145 -0.6810
   10SAPS  H11R 1256   3.120   2.871   7.742 -0.9194 -2.8864 -2.1846
   10SAPS  C212 1257   3.006   2.945   7.901 -0.5227  0.4416  0.5870
   10SAPS  H12R 1258   3.099   2.940   7.960 -0.1573 -0.5290 -0.0441
   10SAPS  C213 1259   2.877   2.986   7.962  0.0163  0.8268  0.0411
   10SAPS  H13R 1260   2.813   2.895   7.971  0.2155  0.6674 -0.1518
   10SAPS  H13S 1261   2.828   3.060   7.896 -0.5957 -0.1171 -0.5737
   10SAPS  C214 1262   2.910   3.047   8.096  0.4834 -0.4163  0.5369
   10SAPS  H14R 1263   2.933   3.154   8.098 -1.5775  0.1725 -3.2960
   10SAPS  C215 1264   2.915   2.975   8.210 -0.3637  0.9256 -0.2893
   10SAPS  H15R 1265   2.929   3.024   8.307 -0.3520 -0.7159  0.5636
   10SAPS  C216 1266   2.895   2.825   8.218 -0.3718 -0.2780  0.1995
   10SAPS  H16R 1267   2.983   2.780   8.269  1.0013  1.4627 -0.5865
   10SAPS  H16S 1268   2.912   2.771   8.122 -1.0727  1.8382 -1.1508
   10SAPS  C217 1269   2.777   2.778   8.298  0.2586  0.3397 -0.0821
   10SAPS  H17R 1270   2.752   2.671   8.279 -1.6458  0.9455 -1.1434
   10SAPS  H17S 1271   2.678   2.822   8.272  0.1899  1.2240  1.6516
   10SAPS  C218 1272   2.783   2.811   8.444 -0.3741 -0.1434  0.9298
   10SAPS  H18R 1273   2.797   2.920   8.462  1.9940 -0.5043  1.4060
   10SAPS  H18S 1274   2.869   2.760   8.491  0.5458  1.0782  0.5977
   10SAPS  C219 1275   2.653   2.782   8.525 -0.7035 -0.4274 -0.3666
   10SAPS  H19R 1276   2.575   2.857   8.500  0.5054  0.3956 -1.7690
   10SAPS  H19S 1277   2.678   2.797   8.632  0.7083  1.0546 -0.8835
   10SAPS  C220 1278   2.604   2.636   8.506  0.2551 -0.9212 -0.2246
   10SAPS  H20R 1279   2.553   2.602   8.414 -1.2938 -0.1737  0.3327
   10SAPS  H20S 1280   2.522   2.609   8.576 -0.2636  0.5607 -0.2421
   10SAPS  H20T 1281   2.689   2.572   8.535  0.8329  0.1969  0.5878
   10SAPS   C33 1282   3.312   2.605   7.321  0.3450  0.1347  0.0445
   10SAPS   H3X 1283   3.238   2.686   7.308  1.4264  1.1973  0.4610
   10SAPS   H3Y 1284   3.416   2.643   7.309  0.0510  0.4845 -1.4550
   10SAPS   C34 1285   3.314   2.578   7.477 -0.1176 -0.6210  0.2130
   10SAPS   H4X 1286   3.370   2.652   7.538  0.1493  0.1857 -1.0141
   10SAPS   H4Y 1287   3.378   2.487   7.484  1.0158  0.3067  2.5008
   10SAPS   C35 1288   3.182   2.542   7.539  0.4223  0.0447  0.2274
   10SAPS   H5X 1289   3.116   2.473   7.483 -0.5220  1.0687  0.0702
   10SAPS   H5Y 1290   3.125   2.635   7.562  0.8347  0.3014  0.2128
   10SAPS   C36 1291   3.206   2.467   7.675  0.2178 -0.9090  0.5942
   10SAPS   H6X 1292   3.260   2.376   7.641  0.5101 -0.3841 -0.3770
   10SAPS   H6Y 1293   3.112   2.441   7.728  1.7072 -3.8170  1.9148
   10SAPS   C37 1294   3.307   2.536   7.774 -0.1299  0.2870  0.0874
   10SAPS   H7X 1295   3.276   2.640   7.795 -1.2682 -0.3100  1.4878
   10SAPS   H7Y 1296   3.412   2.536   7.738  0.5835 -1.0060  2.1000
   10SAPS   C38 1297   3.302   2.449   7.899  0.0969  0.0701  0.2291
   10SAPS   H8X 1298   3.391   2.477   7.959  0.1263 -1.2061  0.7907
   10SAPS   H8Y 1299   3.291   2.339   7.888  2.6748  0.0446 -3.1713
   10SAPS   C39 1300   3.187   2.496   7.997  0.4719  0.0599  0.2020
   10SAPS   H9X 1301   3.088   2.485   7.947  1.0562 -1.1431 -0.7291
   10SAPS   H9Y 1302   3.200   2.604   8.019  0.4263  1.3151 -5.2915
   10SAPS  C310 1303   3.196   2.410   8.126  0.1333 -0.5330 -0.0191
   10SAPS  H10X 1304   3.302   2.394   8.156 -0.1101 -1.6967  0.2583
   10SAPS  H10Y 1305   3.155   2.311   8.095 -0.0189 -0.0636 -1.3649
   10SAPS  C311 1306   3.114   2.464   8.243 -0.0128  0.3162 -0.7803
   10SAPS  H11X 1307   3.028   2.523   8.205  0.7582  2.2371  0.3719
   10SAPS  H11Y 1308   3.170   2.543   8.298  2.5897  0.1038 -3.0147
   10SAPS  C312 1309   3.067   2.359   8.341  0.8447 -0.1195  0.7521
   10SAPS  H12X 1310   3.153   2.300   8.381  1.8774 -0.2013 -1.4922
   10SAPS  H12Y 1311   3.007   2.288   8.280 -0.5385  0.5899  1.2828
   10SAPS  C313 1312   2.972   2.398   8.455 -0.0395  0.7058 -0.5470
   10SAPS  H13X 1313   2.918   2.310   8.494  1.9828  0.4059  1.6719
   10SAPS  H13Y 1314   2.906   2.465   8.396 -0.4928  0.7223 -0.0177
   10SAPS  C314 1315   3.041   2.473   8.567 -0.4804  0.6157 -0.4387
   10SAPS  H14X 1316   2.966   2.497   8.645 -2.0532 -1.4143 -1.2700
   10SAPS  H14Y 1317   3.078   2.571   8.529 -1.1589  0.4381 -1.6076
   10SAPS  C315 1318   3.156   2.402   8.636  0.5014  0.2405  0.1792
   10SAPS  H15X 1319   3.217   2.468   8.701  1.7126 -0.9218  0.2453
   10SAPS  H15Y 1320   3.233   2.368   8.564  1.4988 -0.2169  1.4429
   10SAPS  C316 1321   3.114   2.260   8.686 -0.0513  0.1084  0.8784
   10SAPS  H16X 1322   3.102   2.193   8.599  1.3951  0.1820  0.6135
   10SAPS  H16Y 1323   3.018   2.259   8.741 -1.3846 -1.8181 -1.4007
   10SAPS  C317 1324   3.208   2.196   8.788 -0.0850  0.3137 -0.0287
   10SAPS  H17X 1325   3.312   2.221   8.757 -0.6274 -0.9305 -3.0036
   10SAPS  H17Y 1326   3.206   2.085   8.791 -1.3312  0.3172 -0.4595
   10SAPS  C318 1327   3.166   2.250   8.925 -0.5647 -0.8621  0.1716
   10SAPS  H18X 1328   3.063   2.216   8.949 -0.5635 -1.0925 -0.1489
   10SAPS  H18Y 1329   3.156   2.360   8.939 -2.0391 -0.4894 -3.2719
   10SAPS  H18Z 1330   3.246   2.211   8.991 -1.0374 -2.7665 -0.3470
   11SAPS     N 1331   4.605   6.421   5.919 -0.0068 -0.1601  0.0839
   11SAPS   HN1 1332   4.572   6.353   5.848 -2.1705  1.4745 -0.5408
   11SAPS   HN2 1333   4.529   6.490   5.935 -1.0232 -1.4748  1.1071
   11SAPS   HN3 1334   4.692   6.467   5.887  1.7832 -3.2346  0.3597
   11SAPS   C12 1335   4.619   6.364   6.054  0.3831  0.1455 -0.4976
   11SAPS  H12A 1336   4.660   6.445   6.113 -0.7409  0.8964 -0.7279
   11SAPS   C13 1337   4.482   6.314   6.105 -0.2099 -0.3118 -0.0828
   11SAPS  O13A 1338   4.379   6.326   6.033  0.0821  0.1634 -0.4613
   11SAPS  O13B 1339   4.470   6.296   6.233 -0.1039 -0.3975 -0.5416
   11SAPS   C11 1340   4.714   6.239   6.058 -0.1452 -0.3739  0.8099
   11SAPS  H11A 1341   4.725   6.197   6.161 -2.3830 -1.0712  0.7935
   11SAPS  H11B 1342   4.811   6.284   6.029 -1.8281  2.1142 -1.1899
   11SAPS     P 1343   4.779   6.023   5.926 -0.3422 -0.2166 -0.1973
   11SAPS   O13 1344   4.724   5.922   5.831  0.4325 -0.4837 -0.5723
   11SAPS   O14 1345   4.904   6.099   5.886  0.8977  0.3486 -0.1943
   11SAPS   O12 1346   4.672   6.134   5.968  0.1193  0.1278  0.5088
   11SAPS   O11 1347   4.804   5.945   6.065 -0.1355  0.1731 -0.2439
   11SAPS    C1 1348   4.915   5.851   6.065  0.7103 -0.4395 -0.2437
   11SAPS    HA 1349   4.937   5.795   5.972 -2.0815  1.0220 -1.8415
   11SAPS    HB 1350   5.010   5.906   6.083  0.5833 -0.3455  0.1441
   11SAPS    C2 1351   4.908   5.766   6.193 -0.2466 -0.4431 -0.3040
   11SAPS    HS 1352   4.808   5.719   6.191 -0.6325  0.3235  0.7894
   11SAPS   O21 1353   4.919   5.865   6.298  0.1582  0.5189 -1.0083
   11SAPS   C21 1354   4.816   5.882   6.377 -0.0587 -0.0347 -0.0105
   11SAPS   O22 1355   4.713   5.813   6.374 -0.0490 -0.1014 -0.0053
   11SAPS   C22 1356   4.837   6.014   6.456  0.9428 -0.5135 -0.3486
   11SAPS   H2R 1357   4.879   6.087   6.384 -0.0035  1.0391  0.6387
   11SAPS   H2S 1358   4.734   6.031   6.494  2.1481  1.8711  2.0217
   11SAPS    C3 1359   5.024   5.656   6.195  0.1872 -0.3767 -0.0192
   11SAPS    HX 1360   5.118   5.713   6.179 -0.1567  0.6014  1.3691
   11SAPS    HY 1361   5.003   5.582   6.115  0.1090  0.7028 -1.0208
   11SAPS   O31 1362   5.040   5.601   6.328  0.6287 -0.4395  0.0118
   11SAPS   C31 1363   4.976   5.488   6.351 -0.2652 -0.3956 -0.3427
   11SAPS   O32 1364   4.912   5.421   6.273  0.5893  0.2545 -0.2451
   11SAPS   C32 1365   5.002   5.455   6.501  0.0248  0.2366 -0.0159
   11SAPS   H2X 1366   5.110   5.432   6.514  0.7999  2.0273 -2.8645
   11SAPS   H2Y 1367   4.937   5.371   6.533  1.6738 -0.5223  1.4293
   11SAPS   C23 1368   4.939   5.995   6.560  0.3702  0.1749 -0.6259
   11SAPS   H3R 1369   5.037   5.976   6.512  0.1995 -1.8154 -0.2589
   11SAPS   H3S 1370   4.928   5.900   6.617  0.3493  0.5241 -0.0465
   11SAPS   C24 1371   4.957   6.111   6.656 -0.3903  0.2699 -0.2028
   11SAPS   H4R 1372   4.980   6.205   6.600  1.0930  0.8040  1.2677
   11SAPS   H4S 1373   5.048   6.090   6.715 -0.1303  1.4899 -0.1489
   11SAPS   C25 1374   4.843   6.136   6.756  0.5177 -0.3151  0.6433
   11SAPS   H5R 1375   4.740   6.161   6.726  0.3698  1.8096  2.7374
   11SAPS   C26 1376   4.856   6.127   6.891  0.3004 -0.6727  0.0007
   11SAPS   H6R 1377   4.775   6.133   6.964  1.1637  1.1565  0.8441
   11SAPS   C27 1378   4.991   6.093   6.952 -0.4716  1.1579 -0.5209
   11SAPS   H7R 1379   5.084   6.132   6.907 -0.2798  0.7954 -0.4362
   11SAPS   H7S 1380   5.012   5.985   6.939 -2.7720  0.3755  1.7988
   11SAPS   C28 1381   5.012   6.106   7.094  0.0672 -0.1753  0.5622
   11SAPS   H8R 1382   5.087   6.185   7.111  0.3246  0.0302 -1.4879
   11SAPS   C29 1383   4.954   6.041   7.195  0.3949 -0.4241  0.4429
   11SAPS   H9R 1384   4.984   6.072   7.296 -2.8905  2.4065  0.6623
   11SAPS  C210 1385   4.838   5.944   7.188 -0.2015  0.2223  0.2902
   11SAPS  H10R 1386   4.858   5.863   7.114  2.3914  0.6994  0.4012
   11SAPS  H10S 1387   4.748   5.999   7.152 -0.1376 -0.3221 -0.7355
   11SAPS  C211 1388   4.801   5.874   7.314  0.5033 -0.3641  0.0915
   11SAPS  H11R 1389   4.823   5.767   7.306  1.7717  0.0375 -2.0864
   11SAPS  C212 1390   4.739   5.930   7.415 -0.6480  0.1708  0.1077
   11SAPS  H12R 1391   4.710   5.857   7.492  0.9983 -1.5558 -0.8607
   11SAPS  C213 1392   4.685   6.062   7.441 -0.1652  0.6254  0.4315
   11SAPS  H13R 1393   4.658   6.107   7.343  1.3638 -3.3438 -1.9340
   11SAPS  H13S 1394   4.764   6.130   7.480  0.0738  0.1633  0.7572
   11SAPS  C214 1395   4.569   6.069   7.538  0.0725  0.1792  0.6509
   11SAPS  H14R 1396   4.594   6.100   7.641  1.3471 -1.6157  0.9118
   11SAPS  C215 1397   4.443   6.086   7.501 -0.1024 -0.7956 -0.0696
   11SAPS  H15R 1398   4.365   6.099   7.577 -0.1771  0.2207 -0.3196
   11SAPS  C216 1399   4.384   6.077   7.359  0.1887  0.0135  0.6696
   11SAPS  H16R 1400   4.278   6.047   7.355 -0.1409  1.4565 -2.8321
   11SAPS  H16S 1401   4.428   5.996   7.299 -1.7412 -1.3192  1.0269
   11SAPS  C217 1402   4.382   6.215   7.290 -0.3301 -0.3776 -0.4428
   11SAPS  H17R 1403   4.470   6.281   7.307 -1.1203  0.4668  0.4376
   11SAPS  H17S 1404   4.297   6.266   7.340 -0.8202 -0.4630 -1.1715
   11SAPS  C218 1405   4.348   6.215   7.136 -0.5167  0.2744  0.1090
   11SAPS  H18R 1406   4.312   6.318   7.112 -0.5728 -0.0754 -1.3135
   11SAPS  H18S 1407   4.258   6.155   7.111  0.5289 -1.2149 -0.1469
   11SAPS  C219 1408   4.464   6.172   7.045  0.2415 -1.3725 -0.4115
   11SAPS  H19R 1409   4.557   6.168   7.107  0.5303  0.0517 -0.7239
   11SAPS  H19S 1410   4.481   6.242   6.960  1.0419 -0.7446  0.2509
   11SAPS  C220 1411   4.445   6.032   6.987 -0.2490 -0.1378  0.0850
   11SAPS  H20R 1412   4.353   6.014   6.928  0.5210  2.4711 -2.0155
   11SAPS  H20S 1413   4.444   5.963   7.074 -1.5417  1.8408  1.6996
   11SAPS  H20T 1414   4.535   6.027   6.921  0.9752  0.3643  1.6731
   11SAPS   C33 1415   4.965   5.565   6.601 -0.4269 -0.7571 -0.1874
   11SAPS   H3X 1416   4.855   5.581   6.612 -0.4903  0.0681 -1.8872
   11SAPS   H3Y 1417   5.003   5.658   6.554 -0.1260 -0.8547 -0.1382
   11SAPS   C34 1418   5.023   5.544   6.747  0.2081 -0.1133  0.2296
   11SAPS   H4X 1419   5.134   5.536   6.745  0.2451  0.2534  0.8049
   11SAPS   H4Y 1420   4.987   5.444   6.781 -1.3629  1.1388  2.3327
   11SAPS   C35 1421   4.962   5.648   6.848  0.5119 -0.2522  0.2215
   11SAPS   H5X 1422   4.851   5.638   6.846  0.2065  2.5899  0.4372
   11SAPS   H5Y 1423   4.982   5.756   6.829  0.8547 -0.3669 -0.0732
   11SAPS   C36 1424   5.009   5.609   6.987  0.1222  0.3801 -0.1228
   11SAPS   H6X 1425   5.015   5.499   6.996  0.8959  0.4624  0.3992
   11SAPS   H6Y 1426   4.939   5.643   7.066 -0.9784  0.7223 -1.2342
   11SAPS   C37 1427   5.146   5.667   7.039 -0.1806  0.3802 -0.5401
   11SAPS   H7X 1428   5.136   5.778   7.035  1.2836  0.5616  0.2180
   11SAPS   H7Y 1429   5.226   5.642   6.966 -1.4025 -0.7686 -1.5077
   11SAPS   C38 1430   5.179   5.613   7.186 -0.6171  0.1110 -0.1999
   11SAPS   H8X 1431   5.286   5.626   7.209 -0.3996  0.5920 -1.4458
   11SAPS   H8Y 1432   5.158   5.505   7.205  1.2260  0.0429  1.6088
   11SAPS   C39 1433   5.105   5.687   7.297  0.7450  0.1972 -0.7998
   11SAPS   H9X 1434   4.996   5.693   7.280  1.1152  3.6516 -2.5235
   11SAPS   H9Y 1435   5.133   5.795   7.300 -1.0793  0.6660 -0.2869
   11SAPS  C310 1436   5.119   5.636   7.441  0.3097 -0.3683  0.9986
   11SAPS  H10X 1437   5.225   5.617   7.471  1.2030 -1.3901 -2.5783
   11SAPS  H10Y 1438   5.069   5.537   7.439  1.8299 -1.1651  1.5950
   11SAPS  C311 1439   5.045   5.729   7.547 -0.2108  0.4064 -0.0604
   11SAPS  H11X 1440   4.937   5.741   7.523  0.3108  1.6252 -1.9699
   11SAPS  H11Y 1441   5.106   5.821   7.544  1.7182 -0.8440  0.0265
   11SAPS  C312 1442   5.059   5.669   7.695  0.2700 -0.7942  0.5335
   11SAPS  H12X 1443   5.166   5.673   7.725  0.6920  0.1014 -1.0371
   11SAPS  H12Y 1444   5.024   5.563   7.688 -0.4362 -0.5000 -0.5109
   11SAPS  C313 1445   4.981   5.755   7.797  0.0825 -0.6036 -0.8373
   11SAPS  H13X 1446   5.023   5.856   7.818 -0.8497 -0.9980  3.1321
   11SAPS  H13Y 1447   4.982   5.697   7.892  1.6069  1.3820  0.4012
   11SAPS  C314 1448   4.832   5.773   7.769 -0.3113  0.1697 -0.6390
   11SAPS  H14X 1449   4.790   5.676   7.735 -0.9536  1.1316 -2.6633
   11SAPS  H14Y 1450   4.810   5.845   7.687  1.9098 -0.4383 -1.8133
   11SAPS  C315 1451   4.744   5.812   7.887  0.2125 -0.7246  0.0827
   11SAPS  H15X 1452   4.781   5.911   7.922  3.3883 -2.1901  1.0291
   11SAPS  H15Y 1453   4.745   5.731   7.963  0.8650 -0.5528  0.2607
   11SAPS  C316 1454   4.593   5.837   7.841  0.4874  0.1691  0.7655
   11SAPS  H16X 1455   4.560   5.742   7.793 -0.5621  1.4616 -1.1395
   11SAPS  H16Y 1456   4.572   5.920   7.771 -1.5396 -0.7460  0.2617
   11SAPS  C317 1457   4.501   5.867   7.963 -0.0450 -0.1238 -0.0222
   11SAPS  H17X 1458   4.404   5.873   7.910  0.5191 -0.1202 -1.0711
   11SAPS  H17Y 1459   4.525   5.972   7.988  1.2606 -0.7272  1.2961
   11SAPS  C318 1460   4.480   5.778   8.087 -0.7184 -0.3512  0.2941
   11SAPS  H18X 1461   4.549   5.806   8.169 -2.5618  2.7590  0.8477
   11SAPS  H18Y 1462   4.509   5.672   8.067  0.7163  0.3661 -1.5539
   11SAPS  H18Z 1463   4.375   5.765   8.121 -0.9177 -1.7105 -0.7719
   12SAPS     N 1464   5.102   0.547   5.773  0.3505 -0.2542 -0.1726
   12SAPS   HN1 1465   5.079   0.588   5.865  1.1640  0.2216 -0.1801
   12SAPS   HN2 1466   5.067   0.599   5.690  0.4669 -3.0742 -2.0494
   12SAPS   HN3 1467   5.046   0.459   5.775 -0.4099  0.1526 -2.0060
   12SAPS   C12 1468   5.249   0.515   5.757 -0.5178  0.0121  0.5139
   12SAPS  H12A 1469   5.276   0.440   5.830  0.7817 -0.7743 -0.7469
   12SAPS   C13 1470   5.290   0.465   5.620 -0.0560 -0.1518 -1.2138
   12SAPS  O13A 1471   5.202   0.446   5.533  0.2019 -0.1331 -0.0993
   12SAPS  O13B 1472   5.412   0.444   5.589 -0.2296 -0.6367 -0.1806
   12SAPS   C11 1473   5.336   0.646   5.785 -0.6152 -0.9035  0.6081
   12SAPS  H11A 1474   5.312   0.720   5.705  1.0374 -0.7635  0.2260
   12SAPS  H11B 1475   5.440   0.608   5.791  0.1105  1.2383  2.3272
   12SAPS     P 1476   5.373   0.692   6.046 -0.4778  0.0337  0.6374
   12SAPS   O13 1477   5.486   0.596   6.033  0.4282 -0.0639 -0.3320
   12SAPS   O14 1478   5.404   0.819   6.111 -0.0893 -0.2696  0.2136
   12SAPS   O12 1479   5.303   0.723   5.900  0.0379 -0.9319  0.0592
   12SAPS   O11 1480   5.253   0.611   6.120  0.9789  0.4661  0.1360
   12SAPS    C1 1481   5.220   0.667   6.247  0.6278  0.3375  0.3535
   12SAPS    HA 1482   5.213   0.778   6.243  1.4940  0.4932  2.5407
   12SAPS    HB 1483   5.123   0.626   6.281  0.4205  1.8754  1.6894
   12SAPS    C2 1484   5.322   0.641   6.355  0.6220  0.0808 -0.2593
   12SAPS    HS 1485   5.405   0.714   6.350  1.3155 -0.7286 -0.5913
   12SAPS   O21 1486   5.377   0.508   6.352 -0.4302  0.3202  0.5789
   12SAPS   C21 1487   5.503   0.500   6.385  0.0190  0.1258 -0.8841
   12SAPS   O22 1488   5.586   0.590   6.402  0.1571  0.3592  0.1009
   12SAPS   C22 1489   5.551   0.355   6.387  0.0421  0.5795  0.5354
   12SAPS   H2R 1490   5.465   0.285   6.395  0.9511 -0.5440  0.5487
   12SAPS   H2S 1491   5.603   0.353   6.289  2.1082  1.2673  1.5967
   12SAPS    C3 1492   5.245   0.658   6.489 -0.9587  0.2609  0.4907
   12SAPS    HX 1493   5.167   0.580   6.483 -0.7662  0.1330 -0.3159
   12SAPS    HY 1494   5.196   0.758   6.491  3.4910  2.5899 -1.2020
   12SAPS   O31 1495   5.327   0.630   6.605 -0.1932  0.1721 -0.0556
   12SAPS   C31 1496   5.343   0.721   6.700 -0.4928 -0.7879  0.2942
   12SAPS   O32 1497   5.266   0.818   6.708  0.2650 -0.2323  0.4151
   12SAPS   C32 1498   5.457   0.693   6.792 -0.1248  0.4090 -0.1737
   12SAPS   H2X 1499   5.546   0.691   6.725 -0.0452  2.2212 -0.1413
   12SAPS   H2Y 1500   5.447   0.589   6.831  1.0100  0.4532  0.2463
   12SAPS   C23 1501   5.662   0.331   6.491  0.1638 -0.0058  0.7324
   12SAPS   H3R 1502   5.738   0.412   6.489  1.1322 -0.9280 -3.2238
   12SAPS   H3S 1503   5.723   0.240   6.473 -0.1030  0.2189 -1.3843
   12SAPS   C24 1504   5.601   0.324   6.631  0.0761  0.0815  0.3074
   12SAPS   H4R 1505   5.516   0.395   6.640 -1.7138 -1.9835  0.1029
   12SAPS   H4S 1506   5.674   0.351   6.711  1.8321 -1.2132 -0.8230
   12SAPS   C25 1507   5.540   0.191   6.650 -0.0691  0.6498 -0.5998
   12SAPS   H5R 1508   5.570   0.112   6.579  0.1829  0.3209 -0.1313
   12SAPS   C26 1509   5.475   0.154   6.758 -1.0220 -0.3755 -0.0849
   12SAPS   H6R 1510   5.438   0.051   6.773 -0.0427 -1.0770 -2.3426
   12SAPS   C27 1511   5.451   0.255   6.871 -0.9139 -0.3958  0.3998
   12SAPS   H7R 1512   5.358   0.222   6.921 -0.9184 -1.4082 -0.2604
   12SAPS   H7S 1513   5.443   0.357   6.827 -1.0861 -0.8898 -0.7148
   12SAPS   C28 1514   5.548   0.246   6.982 -0.3266  0.5343 -0.0775
   12SAPS   H8R 1515   5.628   0.321   6.990  0.4820 -0.2189 -0.9255
   12SAPS   C29 1516   5.547   0.149   7.078  0.2184  0.1728  0.0637
   12SAPS   H9R 1517   5.624   0.152   7.156 -0.9295 -1.9180  1.3111
   12SAPS  C210 1518   5.444   0.038   7.086  0.1399  0.4353 -0.3181
   12SAPS  H10R 1519   5.420  -0.010   6.989  0.7141 -0.9172  0.2008
   12SAPS  H10S 1520   5.345   0.082   7.113 -0.0606 -1.3823  2.0457
   12SAPS  C211 1521   5.466  -0.071   7.189  0.0569  0.0169 -0.3384
   12SAPS  H11R 1522   5.511  -0.162   7.147 -0.7170 -1.1688  1.3642
   12SAPS  C212 1523   5.441  -0.071   7.319 -0.0511  0.2425 -0.0898
   12SAPS  H12R 1524   5.459  -0.160   7.380  1.1846  0.1486 -0.5895
   12SAPS  C213 1525   5.372   0.040   7.400  0.3566  0.3591  0.0339
   12SAPS  H13R 1526   5.302   0.002   7.478 -0.0542  2.7499  0.8572
   12SAPS  H13S 1527   5.315   0.099   7.326 -2.2894  0.6297  2.2058
   12SAPS  C214 1528   5.482   0.123   7.461  0.3504 -0.9882  0.0499
   12SAPS  H14R 1529   5.559   0.161   7.391 -0.0817 -0.8631 -0.3639
   12SAPS  C215 1530   5.504   0.148   7.590  0.7531 -0.4452 -0.8516
   12SAPS  H15R 1531   5.595   0.203   7.616 -1.1931  2.4357  0.1938
   12SAPS  C216 1532   5.423   0.110   7.711  0.2799  0.0449  0.1348
   12SAPS  H16R 1533   5.320   0.081   7.681 -0.3919  0.4989  1.9260
   12SAPS  H16S 1534   5.424   0.190   7.788 -0.6212  0.5722 -0.3899
   12SAPS  C217 1535   5.485  -0.007   7.779  0.6628 -0.2405 -0.5189
   12SAPS  H17R 1536   5.578   0.019   7.835  0.6784  0.7967 -1.0130
   12SAPS  H17S 1537   5.499  -0.091   7.708  0.6320  0.2646 -1.1334
   12SAPS  C218 1538   5.406  -0.069   7.895 -0.5170  0.1811  0.4467
   12SAPS  H18R 1539   5.388   0.003   7.978 -3.5530 -0.7751  0.6767
   12SAPS  H18S 1540   5.453  -0.162   7.934 -0.5323  0.1424  0.3725
   12SAPS  C219 1541   5.261  -0.112   7.861 -0.4788  0.1218 -0.3209
   12SAPS  H19R 1542   5.256  -0.159   7.760  3.9659 -0.6302 -0.2994
   12SAPS  H19S 1543   5.183  -0.033   7.863  1.0960  1.6558  2.6794
   12SAPS  C220 1544   5.197  -0.203   7.965  0.7597 -0.0922 -0.2199
   12SAPS  H20R 1545   5.182  -0.156   8.065 -1.5090 -2.0077  0.3902
   12SAPS  H20S 1546   5.250  -0.301   7.972  2.9367  1.1649  1.7102
   12SAPS  H20T 1547   5.095  -0.226   7.929  1.1166 -2.5811  0.2705
   12SAPS   C33 1548   5.479   0.789   6.913  0.1494  0.3637 -0.1481
   12SAPS   H3X 1549   5.385   0.845   6.930 -0.8369 -0.9719 -1.0988
   12SAPS   H3Y 1550   5.555   0.865   6.885  0.1750  0.4672  0.2112
   12SAPS   C34 1551   5.525   0.707   7.036 -0.0140  0.8876 -0.6743
   12SAPS   H4X 1552   5.582   0.773   7.105  0.8123 -1.2947  0.7755
   12SAPS   H4Y 1553   5.599   0.631   7.004 -1.0252 -0.8180  0.9226
   12SAPS   C35 1554   5.408   0.649   7.110  0.8255  0.0165  0.1915
   12SAPS   H5X 1555   5.348   0.568   7.064  0.2926  0.6075 -0.1620
   12SAPS   H5Y 1556   5.334   0.731   7.127 -0.7536 -0.8845 -2.0095
   12SAPS   C36 1557   5.430   0.572   7.244 -0.2231  0.4542 -0.0667
   12SAPS   H6X 1558   5.503   0.639   7.293  1.1128 -0.6729 -0.4695
   12SAPS   H6Y 1559   5.484   0.478   7.220  1.4682  1.1626  0.9077
   12SAPS   C37 1560   5.315   0.565   7.339 -0.1887  0.1376 -0.4681
   12SAPS   H7X 1561   5.239   0.493   7.302  0.1953 -0.9064  0.7198
   12SAPS   H7Y 1562   5.269   0.666   7.336 -1.0905 -0.2498 -0.0394
   12SAPS   C38 1563   5.352   0.513   7.479 -1.2156 -0.4734 -0.0939
   12SAPS   H8X 1564   5.416   0.423   7.464  2.1657  1.6650  1.1014
   12SAPS   H8Y 1565   5.252   0.493   7.525 -1.5127 -1.3121 -1.0894
   12SAPS   C39 1566   5.428   0.621   7.560  0.1196 -0.0936 -0.5449
   12SAPS   H9X 1567   5.377   0.719   7.545  0.9897  0.5076  0.3885
   12SAPS   H9Y 1568   5.531   0.625   7.518 -0.1130  2.8171 -0.9028
   12SAPS  C310 1569   5.442   0.573   7.704  0.9352 -0.5486 -0.0747
   12SAPS  H10X 1570   5.484   0.470   7.695 -2.6739 -2.4350  3.3493
   12SAPS  H10Y 1571   5.338   0.549   7.735  2.1757 -2.0493  3.1378
   12SAPS  C311 1572   5.522   0.666   7.789 -0.0190 -0.2223  0.6327
   12SAPS  H11X 1573   5.506   0.770   7.754 -0.2694 -0.1592  0.9282
   12SAPS  H11Y 1574   5.626   0.636   7.763 -0.1261  0.9191 -1.1968
   12SAPS  C312 1575   5.494   0.652   7.930 -0.3485  0.3414  0.9155
   12SAPS  H12X 1576   5.583   0.684   7.989 -0.7742  2.2771  0.5546
   12SAPS  H12Y 1577   5.490   0.543   7.950 -1.2183  0.2705  0.3866
   12SAPS  C313 1578   5.372   0.725   7.976  0.6919 -0.3710  0.0756
   12SAPS  H13X 1579   5.281   0.672   7.940 -0.0861  0.2433  1.0898
   12SAPS  H13Y 1580   5.356   0.827   7.935 -1.0991 -0.1024  1.3656
   12SAPS  C314 1581   5.349   0.716   8.131  0.2877  0.0880  0.7000
   12SAPS  H14X 1582   5.430   0.772   8.183 -0.8032  1.2720  1.1551
   12SAPS  H14Y 1583   5.360   0.607   8.149  0.4679 -0.3351 -1.7604
   12SAPS  C315 1584   5.215   0.777   8.172  0.0830  0.3375  0.3119
   12SAPS  H15X 1585   5.155   0.818   8.089  0.9369 -0.5304 -0.7446
   12SAPS  H15Y 1586   5.243   0.854   8.248 -0.4513  0.6624  0.1843
   12SAPS  C316 1587   5.120   0.677   8.255 -0.1515  0.4138  0.4883
   12SAPS  H16X 1588   5.177   0.632   8.339  0.1233 -0.0508  0.0521
   12SAPS  H16Y 1589   5.103   0.592   8.185  1.9268 -0.0061  0.4669
   12SAPS  C317 1590   4.992   0.740   8.299 -0.5243  0.7382 -0.3896
   12SAPS  H17X 1591   4.928   0.666   8.350  1.5155 -0.5029  0.4357
   12SAPS  H17Y 1592   4.934   0.790   8.218 -1.0335  1.2464  0.2828
   12SAPS  C318 1593   5.027   0.830   8.415  0.8181  0.5026 -0.2431
   12SAPS  H18X 1594   4.941   0.832   8.486  2.0569 -1.1150  1.3392
   12SAPS  H18Y 1595   5.052   0.932   8.377  3.6079  0.3581  1.0817
   12SAPS  H18Z 1596   5.105   0.781   8.476 -0.7393  0.9377  2.1474
   13SAPS     N 1597   5.723   4.307   6.215 -0.0836  0.6411 -0.0648
   13SAPS   HN1 1598   5.775   4.218   6.200 -1.1808  0.0383 -0.2874
   13SAPS   HN2 1599   5.780   4.393   6.229  2.1242 -0.6609 -0.7277
   13SAPS   HN3 1600   5.665   4.286   6.298 -0.5900 -0.4392 -0.6808
   13SAPS   C12 1601   5.637   4.343   6.098  0.0529 -0.0463 -0.1349
   13SAPS  H12A 1602   5.697   4.323   6.011  0.5536  0.8437 -0.0027
   13SAPS   C13 1603   5.502   4.259   6.078 -0.3150 -0.6704 -0.6835
   13SAPS  O13A 1604   5.473   4.168   6.161 -0.7203  0.0630 -0.3889
   13SAPS  O13B 1605   5.443   4.279   5.970  0.2624 -0.0948 -0.5269
   13SAPS   C11 1606   5.601   4.489   6.097 -0.1283 -0.5102  0.3553
   13SAPS  H11A 1607   5.546   4.513   6.004 -1.9849 -1.4598  1.1684
   13SAPS  H11B 1608   5.694   4.549   6.087 -0.5472 -0.1408 -1.5169
   13SAPS     P 1609   5.412   4.629   6.208 -0.1742  0.1932  0.3448
   13SAPS   O13 1610   5.387   4.676   6.072 -0.1594 -0.2459 -1.0829
   13SAPS   O14 1611   5.293   4.576   6.279  0.6279 -0.3486 -0.1891
   13SAPS   O12 1612   5.524   4.521   6.208 -0.6160  0.2125  0.2020
   13SAPS   O11 1613   5.466   4.760   6.281  0.1019 -0.3403 -0.7944
   13SAPS    C1 1614   5.579   4.741   6.367  0.2958 -0.5426 -0.2136
   13SAPS    HA 1615   5.664   4.696   6.310  0.4545  3.0228 -2.9416
   13SAPS    HB 1616   5.606   4.845   6.397  2.0648 -1.1514  0.4006
   13SAPS    C2 1617   5.556   4.664   6.497  0.6962 -0.1047  0.3645
   13SAPS    HS 1618   5.489   4.578   6.479  0.7299  0.4590 -2.7431
   13SAPS   O21 1619   5.485   4.751   6.587  0.5867  0.9849  0.0609
   13SAPS   C21 1620   5.421   4.692   6.693  0.1540 -0.7988  0.0341
   13SAPS   O22 1621   5.409   4.573   6.707  0.6752  0.7033 -0.8000
   13SAPS   C22 1622   5.366   4.807   6.773  0.3209  0.0409 -0.1920
   13SAPS   H2R 1623   5.346   4.900   6.716  1.9896  1.4015  1.3757
   13SAPS   H2S 1624   5.267   4.773   6.811 -0.2797  0.9736 -0.8843
   13SAPS    C3 1625   5.692   4.621   6.554  0.3415 -0.1491  0.1831
   13SAPS    HX 1626   5.757   4.710   6.570  1.5239 -0.6603 -1.6314
   13SAPS    HY 1627   5.735   4.548   6.482  0.7411 -0.6590  0.9243
   13SAPS   O31 1628   5.671   4.540   6.671 -0.3557  0.0999 -0.0702
   13SAPS   C31 1629   5.711   4.603   6.785  0.1152  0.3732  0.2594
   13SAPS   O32 1630   5.741   4.721   6.799 -0.6479  0.2598  0.3584
   13SAPS   C32 1631   5.711   4.493   6.888  0.1950  0.0581 -0.0356
   13SAPS   H2X 1632   5.799   4.428   6.868  0.9371  0.5427  1.5832
   13SAPS   H2Y 1633   5.619   4.431   6.889 -0.1984  0.5882  3.1313
   13SAPS   C23 1634   5.454   4.862   6.888  0.4852 -0.3400  0.7116
   13SAPS   H3R 1635   5.549   4.901   6.847  0.6545  0.2721  1.6505
   13SAPS   H3S 1636   5.475   4.783   6.963 -0.6017 -1.2100  0.1171
   13SAPS   C24 1637   5.401   4.992   6.955 -0.4570 -0.0167  0.7583
   13SAPS   H4R 1638   5.369   5.073   6.886  1.3465 -0.1673 -0.2851
   13SAPS   H4S 1639   5.485   5.047   7.002  0.0054  0.2144 -0.3108
   13SAPS   C25 1640   5.299   4.951   7.062  0.5597 -0.3460 -0.1651
   13SAPS   H5R 1641   5.195   4.941   7.029  1.7156 -3.2422 -3.2835
   13SAPS   C26 1642   5.327   4.929   7.193  0.0771  0.0491  0.3777
   13SAPS   H6R 1643   5.241   4.901   7.255 -0.5699 -0.8097 -0.8897
   13SAPS   C27 1644   5.457   4.923   7.255  0.2241 -0.0526 -0.6383
   13SAPS   H7R 1645   5.482   5.028   7.280 -0.4952 -0.0239 -0.0364
   13SAPS   H7S 1646   5.531   4.886   7.180  0.4497 -1.3837  0.2283
   13SAPS   C28 1647   5.462   4.831   7.377  1.0741 -0.2952 -0.3806
   13SAPS   H8R 1648   5.492   4.734   7.335 -2.0503 -1.1014 -0.8725
   13SAPS   C29 1649   5.435   4.851   7.511 -0.3445  0.0164  0.6114
   13SAPS   H9R 1650   5.460   4.775   7.587  1.3128  0.4163  0.4898
   13SAPS  C210 1651   5.385   4.980   7.575 -0.5481  0.3168  0.3782
   13SAPS  H10R 1652   5.290   4.958   7.628 -1.1807 -2.6165 -1.8691
   13SAPS  H10S 1653   5.370   5.060   7.499  0.3647  0.3588  0.2440
   13SAPS  C211 1654   5.481   5.038   7.680  0.3182 -1.1548 -0.3272
   13SAPS  H11R 1655   5.558   5.110   7.649 -0.2432  0.4933  2.0176
   13SAPS  C212 1656   5.488   5.000   7.811 -0.3017  0.2498 -0.6282
   13SAPS  H12R 1657   5.559   5.060   7.869  0.1054 -0.3364 -0.5192
   13SAPS  C213 1658   5.407   4.884   7.874  0.3306 -0.4776  0.4647
   13SAPS  H13R 1659   5.388   4.809   7.794 -0.9356  0.5622 -0.2407
   13SAPS  H13S 1660   5.310   4.923   7.911 -0.4041 -0.5179 -1.3689
   13SAPS  C214 1661   5.486   4.816   7.986  0.0643  0.6971  1.0427
   13SAPS  H14R 1662   5.543   4.724   7.965 -0.7912  0.4519 -0.2168
   13SAPS  C215 1663   5.508   4.858   8.114 -0.8525 -0.0162  0.5704
   13SAPS  H15R 1664   5.569   4.800   8.184 -0.1794  1.0878  0.9182
   13SAPS  C216 1665   5.445   4.975   8.180  0.5284  0.1063  0.2624
   13SAPS  H16R 1666   5.383   5.036   8.111 -0.8954 -1.4825  0.1227
   13SAPS  H16S 1667   5.531   5.036   8.216  1.0788 -0.0698 -0.7481
   13SAPS  C217 1668   5.378   4.925   8.312 -0.5619  0.3901 -0.0403
   13SAPS  H17R 1669   5.457   4.887   8.380  1.7477  2.1321 -1.7135
   13SAPS  H17S 1670   5.314   4.837   8.289  1.9137 -0.8834 -2.3594
   13SAPS  C218 1671   5.303   5.038   8.384 -0.7171 -0.8399  0.4782
   13SAPS  H18R 1672   5.378   5.119   8.396 -0.0973 -1.0081 -1.8692
   13SAPS  H18S 1673   5.279   5.003   8.486  0.6921  0.9068  1.4345
   13SAPS  C219 1674   5.173   5.097   8.329  0.5203 -0.2204  0.8614
   13SAPS  H19R 1675   5.202   5.167   8.247 -1.2609 -0.8814 -0.3570
   13SAPS  H19S 1676   5.124   5.155   8.410 -1.6074  0.0893 -0.6172
   13SAPS  C220 1677   5.064   5.002   8.276 -0.5872 -0.4387  0.1350
   13SAPS  H20R 1678   5.108   4.918   8.219 -2.0132  0.0844 -1.7702
   13SAPS  H20S 1679   4.990   5.058   8.216 -1.1186  0.5661  1.6945
   13SAPS  H20T 1680   5.022   4.950   8.365 -0.0739  0.5769  0.9855
   13SAPS   C33 1681   5.733   4.568   7.026 -0.6311 -0.4932  0.1326
   13SAPS   H3X 1682   5.647   4.634   7.052  0.5221  0.9959  0.2122
   13SAPS   H3Y 1683   5.826   4.629   7.017  0.3870 -2.1450 -0.8014
   13SAPS   C34 1684   5.740   4.462   7.140  0.2964 -0.1993  0.2640
   13SAPS   H4X 1685   5.829   4.396   7.140  0.4446 -0.0158 -0.9763
   13SAPS   H4Y 1686   5.662   4.383   7.131  1.8813 -1.8649  0.8345
   13SAPS   C35 1687   5.741   4.518   7.286  0.1599  0.1423  0.8279
   13SAPS   H5X 1688   5.644   4.569   7.303 -0.2644  0.4729 -2.3000
   13SAPS   H5Y 1689   5.831   4.583   7.291 -2.0084  3.7868 -3.6851
   13SAPS   C36 1690   5.743   4.416   7.401  1.0711 -0.1626  0.3810
   13SAPS   H6X 1691   5.820   4.336   7.395  2.7464  1.5515 -1.8326
   13SAPS   H6Y 1692   5.643   4.369   7.405  1.3120 -0.7572 -0.4034
   13SAPS   C37 1693   5.764   4.497   7.524 -0.2509  0.0146 -0.1940
   13SAPS   H7X 1694   5.695   4.581   7.549  0.8683  0.8030  0.3331
   13SAPS   H7Y 1695   5.866   4.540   7.533 -0.3597  0.0334  1.1584
   13SAPS   C38 1696   5.750   4.407   7.646  0.1632 -0.3386  0.3594
   13SAPS   H8X 1697   5.791   4.307   7.620 -0.3435 -0.5117  0.2153
   13SAPS   H8Y 1698   5.642   4.389   7.668  0.0917  0.8954  1.0255
   13SAPS   C39 1699   5.814   4.478   7.764  0.0414  0.1557 -0.2223
   13SAPS   H9X 1700   5.782   4.584   7.756  2.7218  0.8125 -4.1415
   13SAPS   H9Y 1701   5.924   4.470   7.750 -0.3175 -0.2306 -3.2251
   13SAPS  C310 1702   5.769   4.414   7.894  0.0828 -0.2867 -0.2464
   13SAPS  H10X 1703   5.823   4.483   7.963  1.7871 -2.3079  0.4933
   13SAPS  H10Y 1704   5.825   4.320   7.910  0.5406  0.1409  0.7758
   13SAPS  C311 1705   5.622   4.411   7.932 -0.2313 -0.1834 -0.2007
   13SAPS  H11X 1706   5.589   4.322   7.874  1.2650 -0.5703 -0.4755
   13SAPS  H11Y 1707   5.560   4.499   7.901 -2.5046 -1.2453  1.2279
   13SAPS  C312 1708   5.598   4.383   8.083 -0.0497 -0.0310  0.0599
   13SAPS  H12X 1709   5.633   4.474   8.136  0.3291  0.0769 -0.3659
   13SAPS  H12Y 1710   5.654   4.291   8.110 -0.3388  0.8456  3.9535
   13SAPS  C313 1711   5.451   4.357   8.119 -0.0358 -0.4215 -0.2553
   13SAPS  H13X 1712   5.437   4.278   8.195 -2.7201 -1.4110 -1.7044
   13SAPS  H13Y 1713   5.404   4.314   8.029  0.4135 -1.3996 -0.0228
   13SAPS  C314 1714   5.370   4.486   8.160 -0.4749  1.1231  0.6605
   13SAPS  H14X 1715   5.374   4.547   8.067  2.0406  1.5120  0.9876
   13SAPS  H14Y 1716   5.428   4.537   8.240  2.5815  0.8986 -1.3189
   13SAPS  C315 1717   5.229   4.466   8.201 -0.0909  1.1577  0.0020
   13SAPS  H15X 1718   5.215   4.439   8.308 -1.1761  0.0879 -0.4000
   13SAPS  H15Y 1719   5.186   4.382   8.142  2.5706 -0.0978 -0.2216
   13SAPS  C316 1720   5.124   4.579   8.185 -0.2709 -0.1672 -0.1023
   13SAPS  H16X 1721   5.129   4.630   8.087 -0.6204 -1.0658 -0.5934
   13SAPS  H16Y 1722   5.155   4.657   8.258 -1.2705 -0.6753  0.8761
   13SAPS  C317 1723   4.983   4.547   8.217 -0.2708 -0.2435 -0.6480
   13SAPS  H17X 1724   4.985   4.484   8.309  2.3767  0.0875 -0.4426
   13SAPS  H17Y 1725   4.945   4.473   8.143 -1.2903  1.9022 -2.3141
   13SAPS  C318 1726   4.883   4.661   8.227 -0.7678  0.4524 -0.1737
   13SAPS  H18X 1727   4.919   4.738   8.299 -0.0694 -0.7300  0.7582
   13SAPS  H18Y 1728   4.783   4.626   8.258 -1.3093  1.2336 -0.9820
   13SAPS  H18Z 1729   4.871   4.714   8.130  1.7170 -0.8944 -1.2502
   14SAPS     N 1730   5.033   6.730   5.853 -0.1453  1.1047 -0.7791
   14SAPS   HN1 1731   5.098   6.809   5.835  1.7679 -0.0613  0.8318
   14SAPS   HN2 1732   5.008   6.697   5.949 -1.6079  0.4581 -1.3496
   14SAPS   HN3 1733   5.093   6.651   5.822 -1.2106  0.0943 -0.3261
   14SAPS   C12 1734   4.912   6.718   5.762 -0.0477  0.1161 -0.2453
   14SAPS  H12A 1735   4.955   6.736   5.664  0.0306  2.3363  0.1745
   14SAPS   C13 1736   4.848   6.573   5.761  0.0135 -0.1659  0.0667
   14SAPS  O13A 1737   4.864   6.501   5.858 -0.7287  0.1513 -0.3081
   14SAPS  O13B 1738   4.769   6.538   5.670  0.6329 -0.5424 -0.0923
   14SAPS   C11 1739   4.805   6.830   5.801 -0.6865 -0.0319  0.4385
   14SAPS  H11A 1740   4.770   6.810   5.905 -0.4820  0.5903  0.6320
   14SAPS  H11B 1741   4.714   6.821   5.739 -0.0490 -0.5343 -0.4371
   14SAPS     P 1742   4.843   7.080   5.861 -0.0739 -0.1357 -0.2772
   14SAPS   O13 1743   4.976   7.149   5.859  0.0922  0.1630 -0.0506
   14SAPS   O14 1744   4.725   7.144   5.812 -0.3369  0.1408  0.7057
   14SAPS   O12 1745   4.865   6.955   5.780  0.1501 -0.0017  0.1967
   14SAPS   O11 1746   4.825   7.026   6.004  0.4347  0.2091  0.7824
   14SAPS    C1 1747   4.817   7.120   6.110  0.0446  0.5237  0.1334
   14SAPS    HA 1748   4.917   7.166   6.126 -1.2574  2.7944  2.1046
   14SAPS    HB 1749   4.757   7.211   6.087  0.9501  1.1355  0.1760
   14SAPS    C2 1750   4.780   7.062   6.252 -1.1645 -1.2833 -0.1130
   14SAPS    HS 1751   4.730   7.142   6.310 -1.2835  0.0721 -2.0568
   14SAPS   O21 1752   4.899   7.018   6.314  0.1820  0.5790  0.6239
   14SAPS   C21 1753   4.983   7.113   6.356  0.3366  0.7162 -0.1273
   14SAPS   O22 1754   4.961   7.229   6.364 -0.2103  0.1142 -0.1001
   14SAPS   C22 1755   5.116   7.044   6.394 -0.7662  0.5819  0.0675
   14SAPS   H2R 1756   5.102   6.935   6.383 -1.4867  0.4845  1.8644
   14SAPS   H2S 1757   5.177   7.070   6.304 -0.2193  0.9648  0.5439
   14SAPS    C3 1758   4.675   6.953   6.241 -0.3970  0.0399 -0.0581
   14SAPS    HX 1759   4.705   6.874   6.169 -0.4349  1.3686 -1.5504
   14SAPS    HY 1760   4.580   6.989   6.195 -1.4501 -1.0757  1.1596
   14SAPS   O31 1761   4.643   6.894   6.373 -0.1461  0.0361  0.1423
   14SAPS   C31 1762   4.699   6.776   6.400 -0.2669  0.6535 -0.5736
   14SAPS   O32 1763   4.759   6.709   6.318  0.2153  0.1143  0.7775
   14SAPS   C32 1764   4.650   6.733   6.535  0.4351 -0.8664 -0.5916
   14SAPS   H2X 1765   4.539   6.727   6.535  0.2147  2.1851  0.3908
   14SAPS   H2Y 1766   4.672   6.825   6.593  0.9327 -1.2376 -0.1853
   14SAPS   C23 1767   5.183   7.074   6.533 -0.1470 -0.3879  0.2484
   14SAPS   H3R 1768   5.207   7.182   6.544 -0.1189 -0.3838  0.1468
   14SAPS   H3S 1769   5.284   7.027   6.530  0.6096  1.2636 -1.0905
   14SAPS   C24 1770   5.112   7.030   6.658 -0.3081 -0.1388  0.2988
   14SAPS   H4R 1771   5.010   7.073   6.647  0.0653  0.7027  0.1254
   14SAPS   H4S 1772   5.146   7.070   6.755  1.6084 -1.7499  0.3246
   14SAPS   C25 1773   5.099   6.880   6.667 -0.4369 -0.2044 -0.6481
   14SAPS   H5R 1774   5.088   6.828   6.571  1.5625  1.3049 -1.7227
   14SAPS   C26 1775   5.090   6.802   6.778 -0.1510 -0.2892 -0.8886
   14SAPS   H6R 1776   5.084   6.692   6.766  1.7188 -0.4451 -0.4776
   14SAPS   C27 1777   5.095   6.855   6.919  0.4838 -1.1640 -0.7802
   14SAPS   H7R 1778   5.151   6.950   6.931 -1.9147  0.2110 -0.2384
   14SAPS   H7S 1779   5.149   6.785   6.986 -0.8826 -0.7063  0.8599
   14SAPS   C28 1780   4.959   6.869   6.981 -0.0872  0.9038  0.2726
   14SAPS   H8R 1781   4.874   6.861   6.912 -1.1069  0.4586  1.5524
   14SAPS   C29 1782   4.930   6.878   7.112 -0.1584  0.0212 -0.4863
   14SAPS   H9R 1783   4.824   6.876   7.144 -0.6863  1.6479 -2.0706
   14SAPS  C210 1784   5.036   6.875   7.223  0.1951 -0.1802  0.3856
   14SAPS  H10R 1785   5.135   6.841   7.185  0.9081 -0.3380  2.3421
   14SAPS  H10S 1786   5.000   6.786   7.279  0.2285 -0.0297  0.6465
   14SAPS  C211 1787   5.059   6.994   7.308  0.5267  0.4554  0.0267
   14SAPS  H11R 1788   5.061   7.095   7.265  0.3914  0.7262  0.6417
   14SAPS  C212 1789   5.053   7.001   7.445 -0.7471 -0.4099  0.8145
   14SAPS  H12R 1790   5.067   7.103   7.483 -1.5423  0.5123 -1.2716
   14SAPS  C213 1791   5.028   6.887   7.547  0.0775  0.2721 -0.0565
   14SAPS  H13R 1792   5.109   6.883   7.623 -0.4973 -1.0764  0.5046
   14SAPS  H13S 1793   5.027   6.783   7.506  1.2040  0.8276 -1.5228
   14SAPS  C214 1794   4.911   6.914   7.635  0.6219  0.2739 -0.3005
   14SAPS  H14R 1795   4.820   6.863   7.600  1.5668  1.2841 -4.4965
   14SAPS  C215 1796   4.907   6.993   7.748 -0.1916 -0.2417  0.0335
   14SAPS  H15R 1797   4.809   7.006   7.797 -0.9918 -2.3501 -0.9142
   14SAPS  C216 1798   5.016   7.077   7.807  0.1324  0.0152  0.3134
   14SAPS  H16R 1799   5.004   7.185   7.783  3.6731  0.1171 -1.2326
   14SAPS  H16S 1800   5.114   7.034   7.777 -0.3540 -1.6552  1.0676
   14SAPS  C217 1801   5.033   7.073   7.961 -0.1071  1.3072  0.0925
   14SAPS  H17R 1802   5.039   6.967   7.993  4.2396  1.1090 -1.1378
   14SAPS  H17S 1803   4.945   7.114   8.015 -1.3390 -1.3860  0.1987
   14SAPS  C218 1804   5.162   7.151   7.993 -0.2855  0.0966  0.5616
   14SAPS  H18R 1805   5.146   7.260   7.980 -1.7464  0.0779  1.9554
   14SAPS  H18S 1806   5.245   7.117   7.927  1.0980 -1.8385  3.1495
   14SAPS  C219 1807   5.212   7.132   8.136  0.8404 -0.3281  0.2013
   14SAPS  H19R 1808   5.125   7.133   8.205  0.8472  0.4226  0.1994
   14SAPS  H19S 1809   5.279   7.218   8.155  0.3609 -0.2671  1.6578
   14SAPS  C220 1810   5.296   7.011   8.172 -0.6466 -0.3856  0.7175
   14SAPS  H20R 1811   5.318   6.997   8.280  1.2105 -0.9706  0.2882
   14SAPS  H20S 1812   5.397   7.004   8.125 -0.7931 -2.5208  0.6966
   14SAPS  H20T 1813   5.242   6.917   8.148  0.5198 -0.7630 -0.5024
   14SAPS   C33 1814   4.737   6.618   6.592 -1.0441  0.0121 -0.2928
   14SAPS   H3X 1815   4.845   6.641   6.588 -1.4076  1.6132 -2.5797
   14SAPS   H3Y 1816   4.722   6.532   6.523 -2.8372  0.7079 -0.8069
   14SAPS   C34 1817   4.703   6.606   6.742  0.0949 -0.4889  0.4139
   14SAPS   H4X 1818   4.594   6.586   6.738 -0.4200  2.1617  0.4464
   14SAPS   H4Y 1819   4.725   6.698   6.801 -0.8009  1.0709 -1.6152
   14SAPS   C35 1820   4.767   6.496   6.812  0.0468  0.5189  0.0220
   14SAPS   H5X 1821   4.876   6.512   6.810 -0.2175  2.4164  0.1260
   14SAPS   H5Y 1822   4.751   6.400   6.758 -0.6762  0.6191  0.0413
   14SAPS   C36 1823   4.697   6.458   6.947 -0.9821 -0.2502 -0.0080
   14SAPS   H6X 1824   4.727   6.355   6.976 -1.0028 -0.3807 -0.4443
   14SAPS   H6Y 1825   4.589   6.442   6.929 -0.7988 -3.2225  1.3305
   14SAPS   C37 1826   4.722   6.546   7.073 -0.0050  0.1799 -0.3143
   14SAPS   H7X 1827   4.686   6.648   7.049 -0.0470  0.6725  1.7937
   14SAPS   H7Y 1828   4.831   6.558   7.091 -0.3578 -0.0217  2.0517
   14SAPS   C38 1829   4.659   6.496   7.199 -0.0115 -0.4213  0.0222
   14SAPS   H8X 1830   4.672   6.386   7.210  2.5305 -0.0568  1.2624
   14SAPS   H8Y 1831   4.552   6.525   7.199  0.1789  0.3103 -0.4619
   14SAPS   C39 1832   4.711   6.568   7.318 -0.6559 -0.4260 -0.3025
   14SAPS   H9X 1833   4.686   6.676   7.305  5.1646  0.8465 -2.7773
   14SAPS   H9Y 1834   4.822   6.566   7.325 -0.5625  1.0749 -1.2631
   14SAPS  C310 1835   4.654   6.518   7.451 -0.0836  0.3728  0.6627
   14SAPS  H10X 1836   4.700   6.418   7.458  1.2343  0.9234 -0.0712
   14SAPS  H10Y 1837   4.544   6.509   7.437 -0.4055  2.3017  1.7084
   14SAPS  C311 1838   4.701   6.598   7.572  0.4577  0.6400  0.3042
   14SAPS  H11X 1839   4.671   6.705   7.572 -0.6174  0.3772 -1.6379
   14SAPS  H11Y 1840   4.812   6.597   7.572  0.5036 -2.2579  1.7363
   14SAPS  C312 1841   4.643   6.542   7.703  0.3923  0.6210 -0.3382
   14SAPS  H12X 1842   4.664   6.433   7.696 -0.7189  0.3027  0.8914
   14SAPS  H12Y 1843   4.534   6.567   7.710  0.4733  0.3304  2.4592
   14SAPS  C313 1844   4.712   6.596   7.832 -0.3063 -0.3686  0.6189
   14SAPS  H13X 1845   4.821   6.603   7.812 -0.0152 -3.5493  0.8104
   14SAPS  H13Y 1846   4.691   6.522   7.912  0.5039 -0.5506  0.6687
   14SAPS  C314 1847   4.660   6.736   7.880 -0.2067 -0.2293 -0.0902
   14SAPS  H14X 1848   4.554   6.712   7.902  0.1120  0.0293  1.8006
   14SAPS  H14Y 1849   4.666   6.811   7.798 -1.9327  0.7250  0.6328
   14SAPS  C315 1850   4.723   6.798   8.006  0.0522  0.0137 -0.1715
   14SAPS  H15X 1851   4.680   6.898   8.028  2.8735  0.5610  3.3085
   14SAPS  H15Y 1852   4.831   6.804   7.984  0.3727 -1.0784  1.0801
   14SAPS  C316 1853   4.693   6.710   8.132  0.2233  0.5879  0.1757
   14SAPS  H16X 1854   4.720   6.603   8.121 -0.6654  0.4439 -0.7273
   14SAPS  H16Y 1855   4.583   6.705   8.142  0.0970  1.8479 -0.4874
   14SAPS  C317 1856   4.747   6.764   8.262  0.8590  0.8611  0.4022
   14SAPS  H17X 1857   4.710   6.700   8.345  0.8162 -0.0300 -0.2963
   14SAPS  H17Y 1858   4.705   6.865   8.282 -0.0309  0.0482  2.7522
   14SAPS  C318 1859   4.898   6.764   8.282 -0.7947 -0.6411  0.1070
   14SAPS  H18X 1860   4.951   6.818   8.201  0.3515 -3.1314 -0.8691
   14SAPS  H18Y 1861   4.935   6.659   8.287 -0.1311 -0.4004  0.2153
   14SAPS  H18Z 1862   4.919   6.816   8.378  1.0753  2.3936 -1.8612
   15SAPS     N 1863   5.057   6.312   5.896  0.3516 -0.4048  0.4036
   15SAPS   HN1 1864   5.089   6.347   5.989  2.4061  1.4624 -0.9407
   15SAPS   HN2 1865   5.004   6.391   5.855  2.3941  0.2815 -0.9988
   15SAPS   HN3 1866   4.999   6.226   5.894 -0.7009  0.3263 -1.1868
   15SAPS   C12 1867   5.187   6.283   5.807 -0.8955  0.5193 -0.3968
   15SAPS  H12A 1868   5.156   6.227   5.720  1.0378 -0.6408 -0.3677
   15SAPS   C13 1869   5.247   6.414   5.754 -0.4155  0.0135  0.6776
   15SAPS  O13A 1870   5.188   6.524   5.783  0.1985 -0.2374 -0.5102
   15SAPS  O13B 1871   5.358   6.413   5.704 -0.0581 -0.2284  0.4767
   15SAPS   C11 1872   5.298   6.209   5.885 -0.9573  0.1702  0.2929
   15SAPS  H11A 1873   5.312   6.275   5.973  1.8290 -0.3781  0.3115
   15SAPS  H11B 1874   5.395   6.203   5.831  0.2000 -0.1920  2.3928
   15SAPS     P 1875   5.353   5.988   6.012 -0.2163  0.3505  0.1838
   15SAPS   O13 1876   5.277   5.874   6.051 -1.0105 -0.0594 -0.0132
   15SAPS   O14 1877   5.476   5.964   5.927  0.0522 -0.0858 -0.2783
   15SAPS   O12 1878   5.256   6.079   5.925 -0.2512  0.7745  0.1309
   15SAPS   O11 1879   5.387   6.081   6.138 -0.2985 -0.0729 -0.5283
   15SAPS    C1 1880   5.282   6.128   6.221  0.4650  0.4017 -0.2391
   15SAPS    HA 1881   5.252   6.231   6.191  0.8702  0.2794 -1.0872
   15SAPS    HB 1882   5.187   6.074   6.203  1.6106 -1.7630  0.0878
   15SAPS    C2 1883   5.319   6.116   6.376  0.3752  0.4431  0.1410
   15SAPS    HS 1884   5.222   6.114   6.429 -0.0901  0.0664 -0.7247
   15SAPS   O21 1885   5.400   6.227   6.432 -0.7619  0.8076  0.3528
   15SAPS   C21 1886   5.348   6.346   6.425  0.4675 -0.4035  0.2295
   15SAPS   O22 1887   5.237   6.377   6.379 -0.1256 -0.0255 -0.2731
   15SAPS   C22 1888   5.445   6.448   6.475 -0.0822  0.1826 -0.1624
   15SAPS   H2R 1889   5.533   6.395   6.517 -0.0209  1.5844  1.5165
   15SAPS   H2S 1890   5.474   6.517   6.393  3.0977 -0.6284  0.1916
   15SAPS    C3 1891   5.383   5.976   6.414 -0.7384  0.6872  0.5402
   15SAPS    HX 1892   5.470   5.973   6.345  1.3052  1.3291  2.9856
   15SAPS    HY 1893   5.315   5.890   6.396  1.5841 -1.5481  2.1378
   15SAPS   O31 1894   5.439   5.987   6.541  0.5332  0.3018  0.3163
   15SAPS   C31 1895   5.345   5.960   6.636 -0.6388  0.2956  0.3073
   15SAPS   O32 1896   5.241   5.899   6.620  0.0053 -0.0088 -0.1434
   15SAPS   C32 1897   5.387   6.027   6.759 -0.4511 -0.0423 -0.4931
   15SAPS   H2X 1898   5.350   6.131   6.748 -1.2625 -0.3477 -0.7124
   15SAPS   H2Y 1899   5.498   6.027   6.766 -0.3411  0.4907 -2.1784
   15SAPS   C23 1900   5.381   6.548   6.581 -0.3428  0.0084 -0.0905
   15SAPS   H3R 1901   5.274   6.568   6.560 -0.1526  0.0856 -0.9678
   15SAPS   H3S 1902   5.446   6.638   6.582  0.0365 -0.2443 -1.5495
   15SAPS   C24 1903   5.388   6.486   6.725  0.4378  0.0956  0.4632
   15SAPS   H4R 1904   5.398   6.574   6.792  1.0976 -1.1806  2.0572
   15SAPS   H4S 1905   5.478   6.421   6.721  1.3719  1.3167  1.1475
   15SAPS   C25 1906   5.259   6.412   6.755  0.2027  0.0249  0.0512
   15SAPS   H5R 1907   5.196   6.375   6.673 -1.6915  0.5884  1.2163
   15SAPS   C26 1908   5.206   6.384   6.879  0.4916 -0.6220  0.9149
   15SAPS   H6R 1909   5.108   6.336   6.880  0.9712 -1.6778 -0.8911
   15SAPS   C27 1910   5.265   6.427   7.016 -0.3889  0.3767  0.9287
   15SAPS   H7R 1911   5.338   6.509   7.002 -0.5653  0.6597  1.6693
   15SAPS   H7S 1912   5.323   6.345   7.062  0.3697  0.0024 -0.6538
   15SAPS   C28 1913   5.155   6.480   7.107 -1.1385  0.7725 -0.1526
   15SAPS   H8R 1914   5.067   6.518   7.053 -1.2986 -1.9724 -1.9384
   15SAPS   C29 1915   5.135   6.481   7.236  0.1732 -0.6077 -0.1341
   15SAPS   H9R 1916   5.055   6.544   7.278 -1.2693 -1.7029 -1.1995
   15SAPS  C210 1917   5.224   6.426   7.336 -0.6319  0.6723 -0.1613
   15SAPS  H10R 1918   5.331   6.446   7.312 -1.2839  0.1969 -3.6783
   15SAPS  H10S 1919   5.214   6.317   7.317  0.2905  0.3691  1.0552
   15SAPS  C211 1920   5.199   6.464   7.477 -0.7606 -0.4709 -0.1783
   15SAPS  H11R 1921   5.262   6.543   7.521  1.2405 -2.1313  0.0086
   15SAPS  C212 1922   5.111   6.416   7.565  1.3137  0.5300  0.0741
   15SAPS  H12R 1923   5.100   6.455   7.667 -1.1084 -1.1709  0.5188
   15SAPS  C213 1924   4.999   6.318   7.526 -0.0688  0.2268 -0.0987
   15SAPS  H13R 1925   4.992   6.309   7.415 -1.1858 -1.7173  0.1025
   15SAPS  H13S 1926   4.901   6.361   7.554  0.5932  1.5207  0.2536
   15SAPS  C214 1927   5.019   6.181   7.583  0.5591  0.0815 -0.4974
   15SAPS  H14R 1928   5.075   6.104   7.529  0.8517 -0.1502  0.1327
   15SAPS  C215 1929   4.968   6.130   7.697  0.0929 -0.8900 -0.9846
   15SAPS  H15R 1930   4.980   6.022   7.712 -0.2164 -0.8451 -0.3841
   15SAPS  C216 1931   4.885   6.209   7.792 -0.0859  0.3292  1.1951
   15SAPS  H16R 1932   4.778   6.180   7.796  0.3262 -1.2561  0.8691
   15SAPS  H16S 1933   4.890   6.316   7.761 -1.1885  0.8942  2.8594
   15SAPS  C217 1934   4.942   6.193   7.935  0.0203  0.4643 -0.5592
   15SAPS  H17R 1935   5.030   6.256   7.958  1.2120 -1.0794 -0.7734
   15SAPS  H17S 1936   4.986   6.093   7.956  2.7955  1.8166  0.3158
   15SAPS  C218 1937   4.839   6.235   8.038 -1.0654 -0.9960  0.4746
   15SAPS  H18R 1938   4.736   6.208   8.008 -0.7245  1.4667 -3.3343
   15SAPS  H18S 1939   4.825   6.345   8.024 -0.3739 -1.1885 -1.9311
   15SAPS  C219 1940   4.864   6.208   8.188  0.0426  0.1566 -0.0609
   15SAPS  H19R 1941   4.916   6.112   8.206 -1.5032 -0.3424  1.9890
   15SAPS  H19S 1942   4.759   6.192   8.223 -0.2936  0.4266 -0.9350
   15SAPS  C220 1943   4.944   6.321   8.251  0.1624 -0.3961  0.6644
   15SAPS  H20R 1944   4.998   6.365   8.165 -1.8821  3.6755  1.3514
   15SAPS  H20S 1945   5.026   6.282   8.316 -0.1635  1.5736  2.3154
   15SAPS  H20T 1946   4.887   6.394   8.313 -0.3698 -1.6279  1.6570
   15SAPS   C33 1947   5.344   5.952   6.887 -0.5966 -0.3051  0.0580
   15SAPS   H3X 1948   5.405   5.859   6.887 -1.2124 -0.7130  0.0430
   15SAPS   H3Y 1949   5.240   5.912   6.886 -1.4445  1.7576  1.7318
   15SAPS   C34 1950   5.382   6.028   7.018  0.5436  0.3976  0.6296
   15SAPS   H4X 1951   5.332   6.127   7.013 -2.2792 -1.0687 -1.9589
   15SAPS   H4Y 1952   5.492   6.034   7.026  0.5257  0.2596  1.0225
   15SAPS   C35 1953   5.325   5.954   7.144  0.0731  0.0013 -0.5320
   15SAPS   H5X 1954   5.358   5.848   7.137  0.2904 -0.1402  2.0567
   15SAPS   H5Y 1955   5.214   5.954   7.144 -0.0117  4.4540 -0.8460
   15SAPS   C36 1956   5.387   6.040   7.261  0.1246  1.2317 -0.1201
   15SAPS   H6X 1957   5.356   6.145   7.240 -0.0966  1.6273  2.0026
   15SAPS   H6Y 1958   5.497   6.044   7.242  0.5598  2.3713  2.4146
   15SAPS   C37 1959   5.365   5.980   7.395  0.1857 -0.2349  0.1339
   15SAPS   H7X 1960   5.436   5.898   7.417 -2.0353 -1.8152  1.5872
   15SAPS   H7Y 1961   5.263   5.937   7.394  0.2989 -0.4928 -0.2469
   15SAPS   C38 1962   5.382   6.081   7.514  0.2197  0.0503 -0.6826
   15SAPS   H8X 1963   5.318   6.172   7.508  1.3490  1.1111  2.4995
   15SAPS   H8Y 1964   5.487   6.111   7.533 -0.2395  0.4461  1.3660
   15SAPS   C39 1965   5.343   6.004   7.642 -0.7178  0.4799 -0.2034
   15SAPS   H9X 1966   5.415   5.921   7.652 -0.6303  0.3263 -1.9651
   15SAPS   H9Y 1967   5.241   5.961   7.633 -0.5426  0.0570 -0.1498
   15SAPS  C310 1968   5.334   6.090   7.770 -0.1612  0.2144 -0.8649
   15SAPS  H10X 1969   5.245   6.157   7.767  1.5479  2.5035 -3.9757
   15SAPS  H10Y 1970   5.424   6.155   7.782  0.7848 -1.6061  2.6263
   15SAPS  C311 1971   5.329   6.015   7.911 -0.2077  0.2866 -0.5688
   15SAPS  H11X 1972   5.245   5.945   7.890  0.1926  0.3070 -2.3424
   15SAPS  H11Y 1973   5.310   6.090   7.991 -2.7798 -0.3729 -0.5272
   15SAPS  C312 1974   5.461   5.939   7.931 -0.4745 -0.0390 -0.6526
   15SAPS  H12X 1975   5.536   6.015   7.963 -0.5151  0.2813 -1.3106
   15SAPS  H12Y 1976   5.503   5.888   7.842  1.2946 -0.1826  0.2606
   15SAPS  C313 1977   5.456   5.825   8.040 -0.4425  0.0443  0.0282
   15SAPS  H13X 1978   5.433   5.866   8.140  1.3106  1.9172 -0.3008
   15SAPS  H13Y 1979   5.563   5.795   8.040 -0.4262  0.1123  0.5193
   15SAPS  C314 1980   5.365   5.706   8.014  0.5984  0.0001 -0.1882
   15SAPS  H14X 1981   5.411   5.669   7.920  1.7659 -2.0846  1.1432
   15SAPS  H14Y 1982   5.260   5.736   7.994 -0.0584 -1.8009  0.4318
   15SAPS  C315 1983   5.375   5.592   8.117 -0.2777 -0.3568 -1.1220
   15SAPS  H15X 1984   5.475   5.553   8.145  0.1885  1.5379 -0.0675
   15SAPS  H15Y 1985   5.330   5.503   8.069 -0.5298 -1.3779  0.9235
   15SAPS  C316 1986   5.297   5.616   8.248  0.3025  0.0834  0.1618
   15SAPS  H16X 1987   5.199   5.652   8.211 -0.5405 -2.0321  0.2807
   15SAPS  H16Y 1988   5.340   5.690   8.319 -2.5235  0.4753  1.5267
   15SAPS  C317 1989   5.287   5.485   8.317 -1.0542  0.4683 -0.2764
   15SAPS  H17X 1990   5.245   5.403   8.255  1.3817  0.5685 -2.1113
   15SAPS  H17Y 1991   5.209   5.494   8.396 -0.7811 -2.0025  0.3344
   15SAPS  C318 1992   5.412   5.436   8.392  0.2947 -0.4164  0.7333
   15SAPS  H18X 1993   5.447   5.518   8.459  1.7554  0.6185 -1.2582
   15SAPS  H18Y 1994   5.487   5.418   8.313 -1.1507 -1.3384 -0.4542
   15SAPS  H18Z 1995   5.396   5.352   8.464  0.5754 -0.8048  0.3412
   16SAPS     N 1996   0.735   1.537   6.240  0.4033  0.3876  0.0076
   16SAPS   HN1 1997   0.818   1.544   6.303  2.1802  1.2012 -2.3758
   16SAPS   HN2 1998   0.756   1.474   6.160 -2.1899  0.1738 -0.5449
   16SAPS   HN3 1999   0.712   1.635   6.213 -0.0280  1.0149  2.5200
   16SAPS   C12 2000   0.610   1.477   6.302 -0.1556  0.5423  0.0082
   16SAPS  H12A 2001   0.593   1.533   6.393 -1.2970  0.3767 -0.0945
   16SAPS   C13 2002   0.484   1.483   6.212  0.5853 -0.2217  0.0853
   16SAPS  O13A 2003   0.494   1.514   6.089  0.4203 -0.0589  0.3022
   16SAPS  O13B 2004   0.373   1.461   6.268 -0.9833  0.6288  0.3654
   16SAPS   C11 2005   0.633   1.330   6.337 -0.4339 -0.7934  0.0069
   16SAPS  H11A 2006   0.658   1.281   6.240  2.2217 -0.6831  0.5924
   16SAPS  H11B 2007   0.534   1.295   6.375 -0.6280  0.0100  0.2508
   16SAPS     P 2008   0.732   1.224   6.543  0.0235 -0.3584 -0.2221
   16SAPS   O13 2009   0.636   1.116   6.506 -0.3042 -0.2093  0.1353
   16SAPS   O14 2010   0.865   1.182   6.590  0.3219  0.3479  0.3459
   16SAPS   O12 2011   0.749   1.322   6.422  0.1193  0.1878  0.2513
   16SAPS   O11 2012   0.668   1.317   6.651 -0.1096  0.0074  0.8243
   16SAPS    C1 2013   0.740   1.418   6.712 -0.2148 -1.0113 -0.2241
   16SAPS    HA 2014   0.825   1.366   6.762 -0.2102  0.0184  0.8739
   16SAPS    HB 2015   0.778   1.493   6.639 -0.8847  0.8172  1.2552
   16SAPS    C2 2016   0.646   1.493   6.814  0.0401 -0.3712 -0.6205
   16SAPS    HS 2017   0.703   1.574   6.866 -1.1719 -0.1178  0.3431
   16SAPS   O21 2018   0.581   1.400   6.905 -0.4141  0.2592  0.5367
   16SAPS   C21 2019   0.658   1.350   6.994  0.1767  0.1159 -0.7147
   16SAPS   O22 2020   0.772   1.375   7.016 -0.4127  0.3519 -0.6380
   16SAPS   C22 2021   0.572   1.274   7.106 -0.0822 -0.1197  0.2580
   16SAPS   H2R 2022   0.593   1.166   7.093 -0.3064  0.1070 -2.0432
   16SAPS   H2S 2023   0.607   1.302   7.208 -1.2842 -0.4905  0.7897
   16SAPS    C3 2024   0.530   1.565   6.740  0.4335 -1.1655  1.1401
   16SAPS    HX 2025   0.473   1.502   6.668 -0.2885  0.9718 -0.1977
   16SAPS    HY 2026   0.578   1.640   6.674  1.9213 -2.4906  0.6993
   16SAPS   O31 2027   0.437   1.630   6.838  0.2689  0.0091 -0.6224
   16SAPS   C31 2028   0.323   1.573   6.862  0.1941  0.0834  0.2665
   16SAPS   O32 2029   0.280   1.470   6.812 -0.0752 -0.0969 -0.3543
   16SAPS   C32 2030   0.256   1.666   6.963 -0.3932  0.2070  0.6301
   16SAPS   H2X 2031   0.238   1.762   6.909 -1.2871  0.8829  2.1026
   16SAPS   H2Y 2032   0.341   1.677   7.033  1.5863  0.6666 -1.8121
   16SAPS   C23 2033   0.423   1.308   7.105  0.4440  0.2057 -0.2114
   16SAPS   H3R 2034   0.359   1.268   7.023 -0.5190 -1.4947  1.3310
   16SAPS   H3S 2035   0.413   1.418   7.091 -2.5066  0.0640  0.3926
   16SAPS   C24 2036   0.350   1.256   7.235 -0.4282  1.1945  0.0034
   16SAPS   H4R 2037   0.241   1.279   7.234 -0.7828 -0.4474  0.3497
   16SAPS   H4S 2038   0.393   1.322   7.313 -1.8756  0.0245  1.8222
   16SAPS   C25 2039   0.363   1.106   7.241 -0.0207  0.2880 -0.4583
   16SAPS   H5R 2040   0.348   1.052   7.146 -1.9363  2.2703 -1.3248
   16SAPS   C26 2041   0.394   1.034   7.347 -0.4105  0.1931  0.5777
   16SAPS   H6R 2042   0.401   0.924   7.340  2.5087  0.2305  2.0105
   16SAPS   C27 2043   0.423   1.092   7.486  0.3470 -0.4212 -0.1149
   16SAPS   H7R 2044   0.368   1.036   7.565  0.7227 -1.5023 -0.6222
   16SAPS   H7S 2045   0.385   1.196   7.498  1.8171  0.0895  0.1258
   16SAPS   C28 2046   0.568   1.101   7.524 -0.6499  0.6862 -0.3424
   16SAPS   H8R 2047   0.633   1.062   7.444  0.7839  1.7598  0.2616
   16SAPS   C29 2048   0.615   1.163   7.631 -0.0063  0.8141 -0.6428
   16SAPS   H9R 2049   0.719   1.138   7.659 -0.9127 -1.1346  1.1156
   16SAPS  C210 2050   0.533   1.226   7.736  0.2867 -0.8627 -0.8742
   16SAPS  H10R 2051   0.530   1.153   7.819  1.0955  0.2833  0.1869
   16SAPS  H10S 2052   0.426   1.237   7.710  0.1595  0.9220  0.3435
   16SAPS  C211 2053   0.565   1.367   7.775 -0.0741  0.4483  0.3224
   16SAPS  H11R 2054   0.595   1.432   7.692 -1.7881  1.3305  0.3643
   16SAPS  C212 2055   0.572   1.416   7.901 -0.0967 -0.5833  0.3923
   16SAPS  H12R 2056   0.576   1.525   7.916 -0.1722 -0.8028  2.1666
   16SAPS  C213 2057   0.547   1.342   8.028 -0.1129 -0.2059 -0.4507
   16SAPS  H13R 2058   0.528   1.234   8.007 -0.9241  0.4644 -3.3709
   16SAPS  H13S 2059   0.451   1.371   8.075  0.4225  1.3168 -0.2864
   16SAPS  C214 2060   0.654   1.359   8.136 -0.0630 -0.6004 -0.6130
   16SAPS  H14R 2061   0.728   1.437   8.112 -0.3310 -0.0081  0.4635
   16SAPS  C215 2062   0.664   1.292   8.256 -0.6044  0.3474  0.0238
   16SAPS  H15R 2063   0.732   1.327   8.336  0.1385 -1.8840  0.3918
   16SAPS  C216 2064   0.569   1.181   8.304 -0.4628  0.5056  0.0548
   16SAPS  H16R 2065   0.613   1.127   8.390  2.9929  0.0278 -1.9025
   16SAPS  H16S 2066   0.569   1.106   8.222 -0.1204 -1.0013  1.4047
   16SAPS  C217 2067   0.419   1.206   8.336  0.0708  0.0669  0.2454
   16SAPS  H17R 2068   0.377   1.119   8.390 -2.6980  1.2309  0.0807
   16SAPS  H17S 2069   0.360   1.223   8.244  1.9615  3.1044 -0.4771
   16SAPS  C218 2070   0.390   1.324   8.427  0.4777 -0.3235  0.7391
   16SAPS  H18R 2071   0.455   1.406   8.389  0.4945 -1.8694 -2.6679
   16SAPS  H18S 2072   0.433   1.305   8.528  0.4656 -1.4014  0.5389
   16SAPS  C219 2073   0.247   1.376   8.436 -0.1707 -0.3666  0.2215
   16SAPS  H19R 2074   0.178   1.293   8.458 -0.5292  0.1429  1.0500
   16SAPS  H19S 2075   0.235   1.409   8.330  1.4985 -2.4672 -0.6504
   16SAPS  C220 2076   0.230   1.506   8.518  0.0744 -0.6070 -0.4407
   16SAPS  H20R 2077   0.123   1.535   8.525  0.3354 -0.1187  2.2555
   16SAPS  H20S 2078   0.280   1.584   8.458  0.8331 -1.5397 -1.0298
   16SAPS  H20T 2079   0.257   1.509   8.626 -1.7956 -2.5334  0.1426
   16SAPS   C33 2080   0.126   1.610   7.021  0.2854 -0.5341 -0.8174
   16SAPS   H3X 2081   0.157   1.515   7.069 -0.7402 -1.6978 -2.3834
   16SAPS   H3Y 2082   0.048   1.578   6.948 -0.2985  1.8533 -1.2870
   16SAPS   C34 2083   0.066   1.685   7.142 -0.0548  0.1632 -0.0274
   16SAPS   H4X 2084  -0.002   1.763   7.102  0.8483  0.0636 -1.8023
   16SAPS   H4Y 2085   0.142   1.736   7.204 -0.2342  0.7192 -0.2648
   16SAPS   C35 2086  -0.033   1.603   7.231 -0.2901 -0.5549 -0.1840
   16SAPS   H5X 2087   0.022   1.509   7.252 -0.5137 -0.5476  0.4441
   16SAPS   H5Y 2088  -0.122   1.575   7.170  0.1477  0.5710 -1.3414
   16SAPS   C36 2089  -0.073   1.676   7.358  0.0637  0.3206 -0.4881
   16SAPS   H6X 2090  -0.125   1.772   7.338  1.1102  0.5650 -2.2040
   16SAPS   H6Y 2091   0.011   1.693   7.429 -0.9509  0.7701  0.6107
   16SAPS   C37 2092  -0.174   1.584   7.441 -0.4635  0.1345 -0.2327
   16SAPS   H7X 2093  -0.147   1.477   7.428 -0.8573 -0.0238  0.2483
   16SAPS   H7Y 2094  -0.281   1.590   7.411 -0.9429  1.3523  1.6410
   16SAPS   C38 2095  -0.163   1.619   7.596 -0.0901 -0.5465 -0.2164
   16SAPS   H8X 2096  -0.062   1.585   7.629  0.3505 -1.7502 -2.6480
   16SAPS   H8Y 2097  -0.237   1.552   7.645  0.8377 -0.9827  0.6184
   16SAPS   C39 2098  -0.196   1.758   7.641  0.2746  0.4580  0.8459
   16SAPS   H9X 2099  -0.307   1.765   7.645  0.2552  0.7868 -0.1455
   16SAPS   H9Y 2100  -0.150   1.830   7.570 -0.4437  0.7627  0.6795
   16SAPS  C310 2101  -0.144   1.791   7.784 -0.3730 -0.3242 -0.3159
   16SAPS  H10X 2102  -0.034   1.787   7.790 -0.3545  0.8587  0.4864
   16SAPS  H10Y 2103  -0.187   1.709   7.845  0.3984 -0.4308  0.0900
   16SAPS  C311 2104  -0.201   1.927   7.832  0.2919 -0.4491  0.3156
   16SAPS  H11X 2105  -0.313   1.929   7.832  0.2503 -0.8398 -2.2086
   16SAPS  H11Y 2106  -0.165   2.000   7.756 -1.8817  0.6283  0.2849
   16SAPS  C312 2107  -0.155   1.975   7.968  0.2678  0.4752  0.2505
   16SAPS  H12X 2108  -0.044   1.974   7.977  0.3390  2.2485 -0.2939
   16SAPS  H12Y 2109  -0.175   1.910   8.056  3.9676  0.6187  1.3029
   16SAPS  C313 2110  -0.195   2.119   8.008  0.7440 -0.2082  0.5166
   16SAPS  H13X 2111  -0.305   2.118   8.026  0.4269  2.1543 -1.0488
   16SAPS  H13Y 2112  -0.181   2.177   7.914  1.0667  1.3604  1.5229
   16SAPS  C314 2113  -0.120   2.180   8.124  0.1566  0.0280 -0.0802
   16SAPS  H14X 2114  -0.025   2.222   8.087 -0.1673  1.1879  0.3706
   16SAPS  H14Y 2115  -0.087   2.104   8.198 -2.2267  0.2399  1.2540
   16SAPS  C315 2116  -0.203   2.284   8.198  0.4374 -0.0374  0.5810
   16SAPS  H15X 2117  -0.297   2.247   8.243 -0.4358  0.8339 -0.5171
   16SAPS  H15Y 2118  -0.235   2.360   8.123 -0.1785 -1.3174 -0.4647
   16SAPS  C316 2119  -0.124   2.359   8.305 -0.3413  0.5190  0.8752
   16SAPS  H16X 2120  -0.063   2.446   8.274 -0.7130  0.4329 -0.1144
   16SAPS  H16Y 2121  -0.061   2.284   8.358 -0.3261  0.5429  0.8891
   16SAPS  C317 2122  -0.214   2.407   8.419  0.6584  0.2508 -0.0643
   16SAPS  H17X 2123  -0.270   2.321   8.459 -0.6265  1.8043  1.5567
   16SAPS  H17Y 2124  -0.302   2.467   8.389  0.5749 -0.9618 -2.3327
   16SAPS  C318 2125  -0.136   2.469   8.531  0.3290 -0.0616  0.4377
   16SAPS  H18X 2126  -0.073   2.555   8.501  0.2318  0.3282  1.3384
   16SAPS  H18Y 2127  -0.073   2.386   8.570 -0.0893 -0.3149  0.5774
   16SAPS  H18Z 2128  -0.207   2.496   8.612 -0.6820 -0.8168 -0.1951
   17SAPC     N 2129   5.757   4.265  10.448  0.7255 -0.1075 -0.0169
   17SAPC   C12 2130   5.685   4.155  10.368  0.3987 -0.7666  0.2916
   17SAPC  H12A 2131   5.759   4.091  10.323 -0.4705 -1.6975  0.1561
   17SAPC  H12B 2132   5.631   4.209  10.292 -0.5295  0.0752  1.5129
   17SAPC   C13 2133   5.817   4.189  10.563 -0.2804 -0.5676  0.0307
   17SAPC  H13A 2134   5.742   4.132  10.616  1.3591 -2.3703  0.5050
   17SAPC  H13B 2135   5.894   4.119  10.532  1.0284  0.5082  0.8337
   17SAPC  H13C 2136   5.876   4.253  10.627  1.0709 -0.4837 -1.2619
   17SAPC   C14 2137   5.863   4.329  10.363 -0.9324 -0.2385 -0.0514
   17SAPC  H14A 2138   5.933   4.390  10.419  0.3467 -1.8396  0.1470
   17SAPC  H14B 2139   5.932   4.255  10.324 -2.0728 -2.1192  1.4069
   17SAPC  H14C 2140   5.820   4.390  10.286 -0.5059 -0.5288 -0.5321
   17SAPC   C15 2141   5.665   4.367  10.505 -0.0816  0.2261  0.1455
   17SAPC  H15A 2142   5.590   4.317  10.566 -2.6786  0.7870 -2.4814
   17SAPC  H15B 2143   5.715   4.442  10.565  1.6952  0.2835 -1.3644
   17SAPC  H15C 2144   5.617   4.429  10.431 -0.5433 -1.3461 -0.9118
   17SAPC   C11 2145   5.574   4.066  10.446 -0.0992  0.0249 -0.6907
   17SAPC  H11A 2146   5.501   4.018  10.376  0.4027 -0.5844 -0.7950
   17SAPC  H11B 2147   5.502   4.125  10.506  2.3137  1.1044  1.1903
   17SAPC     P 2148   5.706   3.851  10.474  0.5572 -0.0314  0.4823
   17SAPC   O13 2149   5.833   3.901  10.415 -0.4855 -0.9711 -0.8201
   17SAPC   O14 2150   5.716   3.736  10.566 -0.4788 -0.4871 -0.5777
   17SAPC   O12 2151   5.631   3.970  10.537  0.0020 -0.0854  0.1376
   17SAPC   O11 2152   5.600   3.808  10.364 -0.0812 -0.4366 -0.0419
   17SAPC    C1 2153   5.642   3.735  10.246  0.5326  1.1155  0.3201
   17SAPC    HA 2154   5.738   3.680  10.255 -1.2917 -2.4061 -0.7646
   17SAPC    HB 2155   5.559   3.661  10.236  2.5340 -0.9558 -1.7843
   17SAPC    C2 2156   5.640   3.819  10.117 -0.5474  0.7402  0.7923
   17SAPC    HS 2157   5.726   3.889  10.123  0.6016 -0.3370 -2.1862
   17SAPC   O21 2158   5.513   3.891  10.111  0.9488  0.3448 -0.1830
   17SAPC   C21 2159   5.518   4.012  10.072 -0.7883  0.3425  0.5851
   17SAPC   O22 2160   5.623   4.072  10.065 -0.1325  0.4448  0.4781
   17SAPC   C22 2161   5.380   4.073  10.046 -0.1488  0.1234 -0.0804
   17SAPC   H2R 2162   5.308   3.989  10.054  2.2143 -1.9825 -0.3862
   17SAPC   H2S 2163   5.357   4.141  10.131 -2.5208  0.7502 -1.1708
   17SAPC    C3 2164   5.662   3.731   9.991  0.6651  0.8584  0.2482
   17SAPC    HX 2165   5.566   3.675   9.981  1.1027  0.3368 -1.1258
   17SAPC    HY 2166   5.748   3.661  10.001 -0.5122 -0.7283 -0.4509
   17SAPC   O31 2167   5.669   3.809   9.870  0.0987 -0.0092 -0.0677
   17SAPC   C31 2168   5.796   3.843   9.834 -0.2025 -0.8192 -0.7362
   17SAPC   O32 2169   5.900   3.826   9.897  0.4155  0.3851  0.2719
   17SAPC   C32 2170   5.800   3.892   9.687  0.4336  0.0134 -0.8640
   17SAPC   H2X 2171   5.874   3.975   9.683  2.1792 -1.4168  0.7560
   17SAPC   H2Y 2172   5.701   3.927   9.650  1.0869  1.4533 -1.3146
   17SAPC   C23 2173   5.345   4.141   9.915 -0.3059  0.2126  0.4028
   17SAPC   H3R 2174   5.354   4.251   9.921 -0.1192  0.2711 -0.9037
   17SAPC   H3S 2175   5.235   4.122   9.906 -0.2468  0.1909 -0.2587
   17SAPC   C24 2176   5.421   4.097   9.790  0.2770  0.4350  0.2537
   17SAPC   H4R 2177   5.529   4.111   9.811  0.1541  2.3932 -0.3292
   17SAPC   H4S 2178   5.395   4.178   9.719  0.4669  0.0128 -0.2967
   17SAPC   C25 2179   5.395   3.953   9.757 -0.1308 -0.1420 -0.0636
   17SAPC   H5R 2180   5.423   3.878   9.832  1.8961  0.2655 -0.4033
   17SAPC   C26 2181   5.341   3.905   9.642 -0.2931  0.4997  0.2775
   17SAPC   H6R 2182   5.317   3.798   9.626  0.7562  0.3624 -0.3788
   17SAPC   C27 2183   5.309   3.987   9.518  0.0607 -0.1366 -0.5344
   17SAPC   H7R 2184   5.267   4.088   9.538 -0.4021 -0.1238 -1.5084
   17SAPC   H7S 2185   5.233   3.929   9.460 -1.5555  0.4292  0.9620
   17SAPC   C28 2186   5.428   4.005   9.435 -0.3868  0.3750  1.0214
   17SAPC   H8R 2187   5.504   4.063   9.490  1.1221 -3.2744  2.9929
   17SAPC   C29 2188   5.453   3.973   9.308  0.4975 -0.2680 -0.1616
   17SAPC   H9R 2189   5.551   3.997   9.263  2.1879 -0.9140  3.0746
   17SAPC  C210 2190   5.354   3.912   9.211  0.3908  0.6690 -0.3937
   17SAPC  H10R 2191   5.261   3.902   9.271 -0.0409  2.3749 -0.7645
   17SAPC  H10S 2192   5.371   3.802   9.201 -0.4111  0.6661 -2.0039
   17SAPC  C211 2193   5.345   3.964   9.067 -0.6090  0.4166 -0.5303
   17SAPC  H11R 2194   5.395   3.905   8.988 -0.6003  0.0225 -0.2332
   17SAPC  C212 2195   5.294   4.085   9.040  0.0205  0.1485  0.1633
   17SAPC  H12R 2196   5.290   4.122   8.936  2.3454 -0.7791 -0.2784
   17SAPC  C213 2197   5.240   4.177   9.153  0.6449  0.0080 -0.4345
   17SAPC  H13R 2198   5.301   4.265   9.181 -1.3203 -0.0163  4.2710
   17SAPC  H13S 2199   5.235   4.121   9.249 -0.2943  0.4807 -0.2067
   17SAPC  C214 2200   5.100   4.223   9.114 -0.5336  0.0662  0.3763
   17SAPC  H14R 2201   5.097   4.301   9.036 -1.9755 -1.6507 -1.3299
   17SAPC  C215 2202   4.986   4.182   9.168 -0.2131 -0.3017  1.5507
   17SAPC  H15R 2203   4.893   4.213   9.119  0.5517 -3.4125 -2.1426
   17SAPC  C216 2204   4.965   4.083   9.281  0.1932  0.5684 -0.4172
   17SAPC  H16R 2205   5.046   4.007   9.277 -0.0840  0.1333  1.8380
   17SAPC  H16S 2206   4.869   4.026   9.277 -0.0185  0.8883  0.1402
   17SAPC  C217 2207   4.974   4.149   9.421  0.2648  0.3353  0.0351
   17SAPC  H17R 2208   4.899   4.230   9.431  0.9460  1.2008 -1.6932
   17SAPC  H17S 2209   5.071   4.202   9.423 -0.2867  1.4112 -0.9814
   17SAPC  C218 2210   4.962   4.058   9.548 -0.1252 -0.1539 -0.1092
   17SAPC  H18R 2211   5.030   3.971   9.550 -2.1016 -1.7079  1.4268
   17SAPC  H18S 2212   4.863   4.007   9.545 -1.2506  1.8827  0.5986
   17SAPC  C219 2213   4.978   4.136   9.680 -0.6920 -0.1000 -0.5083
   17SAPC  H19R 2214   4.914   4.226   9.665  0.6970  0.6519 -2.0584
   17SAPC  H19S 2215   5.084   4.162   9.697 -0.2471 -1.3920 -1.2031
   17SAPC  C220 2216   4.933   4.053   9.800  0.3141 -0.0478 -0.2727
   17SAPC  H20R 2217   4.943   4.112   9.894 -0.8187  2.3169 -1.5797
   17SAPC  H20S 2218   4.997   3.963   9.810  2.0732  1.2863  0.8026
   17SAPC  H20T 2219   4.827   4.022   9.788 -0.1607  0.6682  1.8626
   17SAPC   C33 2220   5.843   3.774   9.592 -0.5935  0.0022  0.1338
   17SAPC   H3X 2221   5.768   3.693   9.581 -1.9243  1.3199 -0.5582
   17SAPC   H3Y 2222   5.936   3.730   9.636 -1.5544 -3.2025 -0.9401
   17SAPC   C34 2223   5.866   3.815   9.452  0.7402 -0.2896 -0.3547
   17SAPC   H4X 2224   5.937   3.900   9.461  1.4479 -0.9863  0.9315
   17SAPC   H4Y 2225   5.766   3.847   9.416  1.1305  2.1522  0.6621
   17SAPC   C35 2226   5.939   3.712   9.360 -0.4602  0.2519  1.2339
   17SAPC   H5X 2227   5.884   3.616   9.356 -0.2614  0.1887 -0.3598
   17SAPC   H5Y 2228   6.043   3.692   9.393  0.1659  3.0068  1.0188
   17SAPC   C36 2229   5.937   3.759   9.213  0.1108 -0.4021  0.2103
   17SAPC   H6X 2230   5.979   3.676   9.152 -0.3074 -0.1454 -0.4332
   17SAPC   H6Y 2231   6.009   3.842   9.200 -1.5397  1.4135  2.1907
   17SAPC   C37 2232   5.797   3.777   9.160 -0.2996  0.1545 -0.0231
   17SAPC   H7X 2233   5.750   3.871   9.197  1.0455  0.4577  0.9584
   17SAPC   H7Y 2234   5.727   3.693   9.182 -1.5590  1.3477  0.6166
   17SAPC   C38 2235   5.800   3.788   9.003 -0.8917  0.3004 -0.0206
   17SAPC   H8X 2236   5.812   3.685   8.962  0.4629  1.4228 -2.5549
   17SAPC   H8Y 2237   5.889   3.852   8.983  0.2301 -1.3554 -0.5212
   17SAPC   C39 2238   5.672   3.846   8.944  0.2173  0.3278 -0.1509
   17SAPC   H9X 2239   5.656   3.943   8.996  0.0222  0.2590 -0.0813
   17SAPC   H9Y 2240   5.590   3.774   8.963  0.7980 -0.6983 -1.4389
   17SAPC  C310 2241   5.687   3.856   8.789 -0.1223  0.0929 -0.1027
   17SAPC  H10X 2242   5.674   3.752   8.751 -1.5897  0.6736 -1.2714
   17SAPC  H10Y 2243   5.785   3.901   8.762  0.7522 -0.8745  1.4061
   17SAPC  C311 2244   5.574   3.931   8.720 -0.0891 -0.0451 -0.0276
   17SAPC  H11X 2245   5.483   3.888   8.766 -0.2580 -0.7964 -1.0683
   17SAPC  H11Y 2246   5.566   3.919   8.610  0.2052  1.4024 -0.2148
   17SAPC  C312 2247   5.561   4.087   8.741 -0.1333 -0.0811 -0.0862
   17SAPC  H12X 2248   5.644   4.137   8.687 -0.0786  0.7946  0.8018
   17SAPC  H12Y 2249   5.566   4.110   8.849  2.2915 -1.9003  0.2341
   17SAPC  C313 2250   5.426   4.142   8.688  0.2331  0.0872  0.0487
   17SAPC  H13X 2251   5.341   4.109   8.752  0.6252 -0.1980  0.4346
   17SAPC  H13Y 2252   5.402   4.102   8.587  1.0095 -1.1965  0.3559
   17SAPC  C314 2253   5.428   4.299   8.671  0.1593 -0.0749  0.6890
   17SAPC  H14X 2254   5.486   4.332   8.582  0.7650  1.3498  1.6089
   17SAPC  H14Y 2255   5.455   4.350   8.765  0.0768  3.1461 -0.9792
   17SAPC  C315 2256   5.286   4.355   8.639 -0.2036 -0.0983  0.1727
   17SAPC  H15X 2257   5.217   4.297   8.703  1.0646 -0.5983  1.1108
   17SAPC  H15Y 2258   5.251   4.333   8.536 -0.1262  2.8409 -0.5391
   17SAPC  C316 2259   5.264   4.509   8.664 -0.3835  0.5436 -0.5050
   17SAPC  H16X 2260   5.342   4.561   8.606  2.0864 -1.9554  0.4715
   17SAPC  H16Y 2261   5.289   4.525   8.771 -0.6726  0.9263 -0.4932
   17SAPC  C317 2262   5.125   4.563   8.637 -0.3019 -0.2351  0.3199
   17SAPC  H17X 2263   5.055   4.544   8.721 -0.0541 -0.8894  0.3832
   17SAPC  H17Y 2264   5.093   4.515   8.542  2.6849  1.0658 -1.4072
   17SAPC  C318 2265   5.135   4.708   8.591 -0.2609 -0.2061 -1.3349
   17SAPC  H18X 2266   5.190   4.771   8.664  1.1014 -1.0388 -1.6403
   17SAPC  H18Y 2267   5.185   4.719   8.493  0.1237 -0.3651 -1.1568
   17SAPC  H18Z 2268   5.037   4.760   8.589  1.3763  3.0376 -0.6778
   18SAPC     N 2269   6.456   3.988  10.816 -0.0029 -0.1181 -0.2891
   18SAPC   C12 2270   6.376   3.867  10.798  0.0930 -0.5984  0.4979
   18SAPC  H12A 2271   6.272   3.896  10.792 -0.6308 -3.4978 -2.3028
   18SAPC  H12B 2272   6.382   3.811  10.890 -1.8642 -2.1225 -0.2669
   18SAPC   C13 2273   6.435   4.041  10.951 -0.1564  0.1951 -0.5225
   18SAPC  H13A 2274   6.483   4.134  10.974  0.7416 -0.0170 -1.5444
   18SAPC  H13B 2275   6.329   4.058  10.968 -0.0352 -0.6605  1.2805
   18SAPC  H13C 2276   6.457   3.970  11.031  1.5637  1.4165  0.1111
   18SAPC   C14 2277   6.603   3.962  10.804  0.3646 -0.4161 -1.2299
   18SAPC  H14A 2278   6.621   3.896  10.720 -1.0141 -1.1981 -0.9175
   18SAPC  H14B 2279   6.663   4.046  10.771  0.8041 -1.2218 -2.5253
   18SAPC  H14C 2280   6.642   3.918  10.894 -2.0394 -1.5484 -0.7108
   18SAPC   C15 2281   6.420   4.094  10.720  1.0190  0.5516  0.0383
   18SAPC  H15A 2282   6.479   4.182  10.744 -1.4718  2.2507  0.1076
   18SAPC  H15B 2283   6.436   4.054  10.621  0.8566  0.4981  0.0338
   18SAPC  H15C 2284   6.314   4.110  10.714  1.1024  1.2302  0.3066
   18SAPC   C11 2285   6.408   3.784  10.673 -0.3670 -0.0801  0.1887
   18SAPC  H11A 2286   6.425   3.858  10.592  0.1731 -0.8339 -0.3865
   18SAPC  H11B 2287   6.318   3.729  10.639 -1.6593  1.0763  1.6545
   18SAPC     P 2288   6.541   3.553  10.690  0.1684  0.1848  0.2674
   18SAPC   O13 2289   6.674   3.507  10.732 -0.6342 -0.3243 -0.8441
   18SAPC   O14 2290   6.425   3.491  10.757 -0.2109  0.1560  0.2058
   18SAPC   O12 2291   6.527   3.707  10.693  0.2478  0.3483  0.2503
   18SAPC   O11 2292   6.522   3.510  10.535 -0.2311 -0.3536  0.8675
   18SAPC    C1 2293   6.615   3.565  10.439 -0.0576  0.1579  0.5417
   18SAPC    HA 2294   6.635   3.672  10.461  3.5735 -0.8810  2.6171
   18SAPC    HB 2295   6.721   3.534  10.443  0.2225  1.2056  1.4970
   18SAPC    C2 2296   6.562   3.546  10.293  0.3725  0.1242  0.8269
   18SAPC    HS 2297   6.578   3.646  10.247  0.9013  0.4853  1.7688
   18SAPC   O21 2298   6.424   3.504  10.279  0.0743 -0.8264  0.5433
   18SAPC   C21 2299   6.335   3.601  10.312 -0.6612 -0.8888 -0.6323
   18SAPC   O22 2300   6.352   3.716  10.281 -0.2543  0.4474  0.9202
   18SAPC   C22 2301   6.207   3.543  10.371 -0.9473  0.5527  1.0849
   18SAPC   H2R 2302   6.178   3.446  10.324  1.4810  0.7676 -0.9895
   18SAPC   H2S 2303   6.241   3.524  10.475  1.6814  1.6360  0.4819
   18SAPC    C3 2304   6.651   3.449  10.217 -0.3586 -0.1102 -0.0561
   18SAPC    HX 2305   6.640   3.342  10.245  1.5344 -0.3927 -0.3293
   18SAPC    HY 2306   6.757   3.469  10.240 -0.4980 -0.7360  1.1585
   18SAPC   O31 2307   6.632   3.466  10.081 -0.0696 -0.9047  0.3629
   18SAPC   C31 2308   6.563   3.384  10.009  0.5944  0.7472 -0.3262
   18SAPC   O32 2309   6.513   3.278  10.048 -0.1953 -0.9282  0.2160
   18SAPC   C32 2310   6.569   3.418   9.865 -0.4131 -0.9642  0.2087
   18SAPC   H2X 2311   6.666   3.464   9.837 -0.2015 -0.2300  2.1051
   18SAPC   H2Y 2312   6.487   3.490   9.845 -0.2153 -0.8368 -0.1582
   18SAPC   C23 2313   6.095   3.648  10.377 -0.5872  0.1468 -0.3083
   18SAPC   H3R 2314   6.137   3.746  10.407 -1.9847 -0.0937  2.6027
   18SAPC   H3S 2315   6.020   3.623  10.455  0.1063  0.4849  0.4614
   18SAPC   C24 2316   6.013   3.672  10.248 -0.3604  0.3421  0.5753
   18SAPC   H4R 2317   6.077   3.717  10.169  0.1492 -0.1291  0.7144
   18SAPC   H4S 2318   5.939   3.754  10.262 -1.7451 -0.9934  1.3133
   18SAPC   C25 2319   5.944   3.541  10.205 -0.0241 -0.0077  0.3363
   18SAPC   H5R 2320   5.874   3.503  10.281  0.2136 -0.1232  0.4973
   18SAPC   C26 2321   5.967   3.477  10.087 -0.3964 -0.0183 -0.0088
   18SAPC   H6R 2322   5.924   3.377  10.071 -0.5886 -0.3374  2.3244
   18SAPC   C27 2323   6.042   3.529   9.971  0.6902  0.1054 -0.0789
   18SAPC   H7R 2324   6.088   3.628   9.989  0.6122 -0.0306  0.8750
   18SAPC   H7S 2325   5.967   3.532   9.889  0.1395 -2.6913  0.2745
   18SAPC   C28 2326   6.153   3.426   9.939  0.3070 -0.3745  0.2991
   18SAPC   H8R 2327   6.231   3.429  10.017  0.9331  3.5142 -0.4245
   18SAPC   C29 2328   6.149   3.323   9.848 -0.3970 -0.6904  0.5175
   18SAPC   H9R 2329   6.243   3.269   9.829  0.4731  0.7332  0.7213
   18SAPC  C210 2330   6.036   3.298   9.752  0.0155  0.1512 -0.2747
   18SAPC  H10R 2331   5.938   3.308   9.804  1.1656  0.1043  1.9697
   18SAPC  H10S 2332   6.043   3.190   9.725  2.4132  0.2581 -0.1927
   18SAPC  C211 2333   6.036   3.377   9.619  0.0490  0.2492 -0.4834
   18SAPC  H11R 2334   6.057   3.485   9.623  1.4945 -0.0599  0.3438
   18SAPC  C212 2335   6.005   3.326   9.501 -0.4212  0.3467  0.7919
   18SAPC  H12R 2336   5.995   3.402   9.422  0.1311 -0.7971 -0.3856
   18SAPC  C213 2337   5.967   3.181   9.468  0.5416  0.0472 -0.4298
   18SAPC  H13R 2338   5.954   3.108   9.551 -3.2549  1.5831  0.3895
   18SAPC  H13S 2339   6.050   3.137   9.408  1.4582  0.6133  0.4082
   18SAPC  C214 2340   5.839   3.178   9.390 -0.1891 -0.2334  0.5206
   18SAPC  H14R 2341   5.751   3.145   9.447 -1.0073  2.6362  0.9802
   18SAPC  C215 2342   5.824   3.197   9.253 -0.7991  0.6458 -0.1498
   18SAPC  H15R 2343   5.723   3.204   9.210 -0.7487  1.9322 -0.0884
   18SAPC  C216 2344   5.931   3.235   9.150  0.3882  0.1166 -0.8444
   18SAPC  H16R 2345   5.943   3.151   9.077  1.7199  0.7063 -1.3083
   18SAPC  H16S 2346   6.029   3.228   9.201  0.5482  0.5031 -1.1023
   18SAPC  C217 2347   5.892   3.364   9.076  0.1137 -0.3177  0.3139
   18SAPC  H17R 2348   5.877   3.450   9.146  0.0244  1.2082 -1.5306
   18SAPC  H17S 2349   5.807   3.337   9.010 -0.3822 -1.9099  1.5703
   18SAPC  C218 2350   6.004   3.421   8.979 -0.1252  0.3930 -0.8092
   18SAPC  H18R 2351   5.968   3.509   8.922 -0.3220  0.1679 -1.0308
   18SAPC  H18S 2352   6.026   3.345   8.902 -0.0138  1.2716 -1.6555
   18SAPC  C219 2353   6.137   3.442   9.070  0.3002  0.4263  0.3622
   18SAPC  H19R 2354   6.174   3.347   9.113  0.6146  0.0778 -0.6572
   18SAPC  H19S 2355   6.114   3.515   9.150  3.0303  1.4534  0.2863
   18SAPC  C220 2356   6.254   3.496   8.987  0.2282 -0.1537  0.7584
   18SAPC  H20R 2357   6.213   3.587   8.937  0.5651 -0.1985  0.4006
   18SAPC  H20S 2358   6.272   3.410   8.918 -0.4348  1.6452 -1.7593
   18SAPC  H20T 2359   6.342   3.530   9.045 -0.5366  2.4433  0.4631
   18SAPC   C33 2360   6.532   3.294   9.776  0.0747 -0.4396  0.0286
   18SAPC   H3X 2361   6.440   3.252   9.821  0.0234  0.7760  1.0856
   18SAPC   H3Y 2362   6.612   3.218   9.772  1.4486  0.9492  0.5557
   18SAPC   C34 2363   6.497   3.327   9.628 -0.5631 -0.0476 -0.1479
   18SAPC   H4X 2364   6.586   3.376   9.582 -0.6792 -0.6551 -1.0346
   18SAPC   H4Y 2365   6.408   3.393   9.633 -0.3185  0.4795 -2.0520
   18SAPC   C35 2366   6.432   3.220   9.542 -0.3038 -0.9447 -0.8416
   18SAPC   H5X 2367   6.354   3.255   9.472 -1.2400 -3.4732 -1.1184
   18SAPC   H5Y 2368   6.391   3.141   9.609  0.9444  2.0254  3.6412
   18SAPC   C36 2369   6.537   3.133   9.464 -0.2935 -0.0249  0.5130
   18SAPC   H6X 2370   6.625   3.101   9.523 -0.0654 -0.2716  0.0445
   18SAPC   H6Y 2371   6.573   3.197   9.381  2.1641  0.3139  1.7863
   18SAPC   C37 2372   6.476   3.003   9.408  0.0310 -0.1756  0.1986
   18SAPC   H7X 2373   6.432   2.952   9.496 -0.5090  2.2567  1.3998
   18SAPC   H7Y 2374   6.549   2.938   9.356 -0.0905  1.3329 -1.9364
   18SAPC   C38 2375   6.361   3.021   9.306  0.2258  0.5321  0.8370
   18SAPC   H8X 2376   6.278   3.080   9.349  0.1304  0.4403  0.7810
   18SAPC   H8Y 2377   6.324   2.917   9.291  0.1407  0.2904  2.6590
   18SAPC   C39 2378   6.408   3.083   9.172 -0.5799  0.4036 -0.8839
   18SAPC   H9X 2379   6.515   3.056   9.159 -0.6421  0.0845 -0.7511
   18SAPC   H9Y 2380   6.409   3.192   9.195 -1.5510  0.4364 -0.9812
   18SAPC  C310 2381   6.332   3.037   9.045 -0.0412  0.3964 -0.8344
   18SAPC  H10X 2382   6.239   3.097   9.045 -0.8340 -0.8122  0.6522
   18SAPC  H10Y 2383   6.305   2.931   9.062 -1.2009  0.8305  0.1737
   18SAPC  C311 2384   6.407   3.040   8.911  0.3116  0.6271 -0.4804
   18SAPC  H11X 2385   6.503   2.985   8.923 -0.5172 -1.1440 -1.7612
   18SAPC  H11Y 2386   6.428   3.146   8.885 -3.4171  1.4131 -0.6364
   18SAPC  C312 2387   6.338   2.979   8.792 -0.1814 -0.7818  0.4964
   18SAPC  H12X 2388   6.286   2.882   8.805 -0.4751 -0.5165  1.2832
   18SAPC  H12Y 2389   6.406   2.950   8.709  0.7778 -0.0786  1.0265
   18SAPC  C313 2390   6.248   3.088   8.729  0.5979  0.5742 -0.6330
   18SAPC  H13X 2391   6.315   3.139   8.657  1.2871  0.4619 -0.0689
   18SAPC  H13Y 2392   6.211   3.163   8.801  0.4426  0.4701 -0.6019
   18SAPC  C314 2393   6.116   3.042   8.660  0.1719 -0.1335  0.4146
   18SAPC  H14X 2394   6.080   3.131   8.604 -2.8211 -2.0238 -0.8172
   18SAPC  H14Y 2395   6.043   3.024   8.741  0.9173  0.7485  1.2892
   18SAPC  C315 2396   6.143   2.922   8.562  0.0766  0.1298 -0.0929
   18SAPC  H15X 2397   6.175   2.835   8.623  0.7790  0.0409 -0.5849
   18SAPC  H15Y 2398   6.228   2.962   8.502  0.3950 -1.9818 -1.1060
   18SAPC  C316 2399   6.024   2.885   8.462 -0.4906  1.0257  0.5633
   18SAPC  H16X 2400   6.053   2.806   8.389  0.4454 -0.2731  2.3020
   18SAPC  H16Y 2401   5.998   2.981   8.413  3.4166  1.4450 -0.8808
   18SAPC  C317 2402   5.902   2.842   8.534  1.0120 -0.5194 -0.0600
   18SAPC  H17X 2403   5.816   2.835   8.465 -0.4666  0.0404  1.6812
   18SAPC  H17Y 2404   5.879   2.917   8.613 -0.8224 -0.3769 -0.7070
   18SAPC  C318 2405   5.906   2.701   8.599 -0.6907 -0.8578  0.8573
   18SAPC  H18X 2406   5.954   2.624   8.535 -1.2158 -1.7352  1.5111
   18SAPC  H18Y 2407   5.801   2.676   8.627 -1.9906  1.7023 -1.4792
   18SAPC  H18Z 2408   5.961   2.711   8.694  1.2074 -0.8000 -0.2315
   19SAPC     N 2409   4.990   5.273  10.665  0.9397 -0.4973 -0.7590
   19SAPC   C12 2410   4.859   5.195  10.648  0.3377  0.3547  0.1434
   19SAPC  H12A 2411   4.842   5.153  10.746 -0.5831  0.0010 -0.1631
   19SAPC  H12B 2412   4.857   5.117  10.573  0.1032  0.7044 -0.2204
   19SAPC   C13 2413   4.978   5.388  10.761  0.1254  0.1996 -0.2199
   19SAPC  H13A 2414   5.063   5.455  10.756  0.7922 -0.6679 -0.5888
   19SAPC  H13B 2415   4.894   5.441  10.720 -0.1575 -0.0930 -0.0166
   19SAPC  H13C 2416   4.951   5.363  10.863  0.5028  1.6717  0.2618
   19SAPC   C14 2417   5.102   5.186  10.709 -0.6438  0.7111  0.4153
   19SAPC  H14A 2418   5.134   5.117  10.633 -0.5464  1.6597 -0.4247
   19SAPC  H14B 2419   5.190   5.245  10.731 -0.2944  0.6297 -0.7363
   19SAPC  H14C 2420   5.056   5.121  10.782  0.7474 -0.9903 -0.1902
   19SAPC   C15 2421   5.030   5.337  10.529  0.1107  0.6077  0.2098
   19SAPC  H15A 2422   5.130   5.376  10.526  0.4062 -0.2425 -1.8795
   19SAPC  H15B 2423   5.043   5.261  10.454  1.6771 -2.0547  3.0817
   19SAPC  H15C 2424   4.960   5.413  10.498 -0.8832  0.3265  1.6865
   19SAPC   C11 2425   4.727   5.278  10.624  0.4951 -0.3104 -0.7709
   19SAPC  H11A 2426   4.740   5.316  10.521  2.0773 -2.3879 -1.3611
   19SAPC  H11B 2427   4.713   5.360  10.698 -2.0330 -1.1383 -0.2607
   19SAPC     P 2428   4.570   5.098  10.517 -0.1951  0.1465 -0.0580
   19SAPC   O13 2429   4.677   4.990  10.517 -0.7296 -0.4172 -0.0624
   19SAPC   O14 2430   4.428   5.059  10.527 -0.4430  0.7069  0.1642
   19SAPC   O12 2431   4.612   5.196  10.635 -0.5456 -0.4597  0.2748
   19SAPC   O11 2432   4.598   5.182  10.389 -0.0355 -0.3155 -0.3729
   19SAPC    C1 2433   4.499   5.250  10.318  0.5090 -0.4019  0.0652
   19SAPC    HA 2434   4.412   5.182  10.306 -0.3254  0.2151  2.3565
   19SAPC    HB 2435   4.455   5.331  10.380  0.4675 -0.9992  0.8184
   19SAPC    C2 2436   4.538   5.325  10.187 -0.3975  0.3415  0.4589
   19SAPC    HS 2437   4.448   5.341  10.125 -1.7885 -1.9776  1.7992
   19SAPC   O21 2438   4.635   5.251  10.108  0.6301  0.2314  0.2701
   19SAPC   C21 2439   4.585   5.130  10.071  0.2081  0.0839  0.3761
   19SAPC   O22 2440   4.464   5.105  10.055  0.2000 -0.4363 -0.4729
   19SAPC   C22 2441   4.705   5.039  10.040 -0.0349 -0.0841 -0.6498
   19SAPC   H2R 2442   4.783   5.058  10.116  0.9096 -0.4882 -1.5081
   19SAPC   H2S 2443   4.677   4.932  10.049  2.3705 -1.0109 -3.5535
   19SAPC    C3 2444   4.601   5.460  10.217 -0.2175  0.8943 -0.3136
   19SAPC    HX 2445   4.679   5.448  10.295 -0.0498 -3.8638 -1.0993
   19SAPC    HY 2446   4.517   5.525  10.250  1.0518  1.9861  0.8039
   19SAPC   O31 2447   4.651   5.520  10.098  0.2889  0.1528 -0.2790
   19SAPC   C31 2448   4.774   5.513  10.064 -0.1090 -0.1955 -0.0409
   19SAPC   O32 2449   4.864   5.449  10.118 -0.0565 -0.0923  0.2453
   19SAPC   C32 2450   4.788   5.599   9.936  0.2842  0.3141  0.0786
   19SAPC   H2X 2451   4.836   5.698   9.955  0.1246  0.7546 -1.6802
   19SAPC   H2Y 2452   4.686   5.606   9.892  0.3177 -2.1424 -0.4682
   19SAPC   C23 2453   4.751   5.046   9.890 -0.3083 -0.4946 -0.7171
   19SAPC   H3R 2454   4.698   4.987   9.812  1.2102 -1.7150 -0.8362
   19SAPC   H3S 2455   4.852   5.000   9.889 -0.3077 -0.6724  2.5560
   19SAPC   C24 2456   4.754   5.185   9.830  0.1074 -0.4400 -0.0958
   19SAPC   H4R 2457   4.807   5.255   9.898  2.3203  0.1115 -2.3094
   19SAPC   H4S 2458   4.654   5.232   9.825  1.1566  2.0041  1.0062
   19SAPC   C25 2459   4.813   5.191   9.696  0.0849  0.1291 -0.0319
   19SAPC   H5R 2460   4.916   5.153   9.701  0.3007  0.6728 -0.3732
   19SAPC   C26 2461   4.757   5.238   9.581 -0.1850  0.2573  0.0134
   19SAPC   H6R 2462   4.824   5.256   9.495  0.3906  1.1034  0.6382
   19SAPC   C27 2463   4.619   5.295   9.559 -0.4028  0.3244  0.4242
   19SAPC   H7R 2464   4.621   5.327   9.453  1.5531 -1.2378 -0.0620
   19SAPC   H7S 2465   4.613   5.384   9.624  0.7168  0.3111  0.5702
   19SAPC   C28 2466   4.496   5.206   9.601  0.8777 -0.5442  0.3205
   19SAPC   H8R 2467   4.490   5.185   9.709  0.0459 -1.0096  0.1905
   19SAPC   C29 2468   4.391   5.163   9.524  0.9886  0.2689 -0.2176
   19SAPC   H9R 2469   4.305   5.107   9.564  1.1050  1.6509  2.0107
   19SAPC  C210 2470   4.394   5.204   9.377 -0.3906 -0.0359  0.2045
   19SAPC  H10R 2471   4.498   5.195   9.338 -0.0343  0.9632  0.8928
   19SAPC  H10S 2472   4.378   5.314   9.376  0.2315  0.0485 -0.8904
   19SAPC  C211 2473   4.291   5.133   9.293  0.3527  0.0521 -0.0266
   19SAPC  H11R 2474   4.259   5.034   9.328 -0.5600  0.0887 -0.7565
   19SAPC  C212 2475   4.254   5.176   9.175  0.3967  0.4611  0.1750
   19SAPC  H12R 2476   4.170   5.117   9.136  0.7979 -0.3302  0.5093
   19SAPC  C213 2477   4.296   5.308   9.107  0.4995  0.5186 -0.0782
   19SAPC  H13R 2478   4.405   5.303   9.083  0.5060  0.9612 -0.1320
   19SAPC  H13S 2479   4.283   5.392   9.179 -1.3361  0.0534  0.1614
   19SAPC  C214 2480   4.208   5.336   8.988 -0.0684 -0.0178 -0.0198
   19SAPC  H14R 2481   4.101   5.324   9.012 -0.7239  1.1887 -2.2129
   19SAPC  C215 2482   4.246   5.384   8.868  0.2759  0.8163  1.0511
   19SAPC  H15R 2483   4.170   5.384   8.789  2.5894  0.1747 -1.2289
   19SAPC  C216 2484   4.390   5.406   8.820 -0.1873  0.2980  0.6343
   19SAPC  H16R 2485   4.464   5.411   8.904  0.8877  1.3239 -0.3560
   19SAPC  H16S 2486   4.393   5.507   8.774  0.9553  1.0913  2.3766
   19SAPC  C217 2487   4.430   5.299   8.719 -0.5611  0.3982  0.2593
   19SAPC  H17R 2488   4.416   5.199   8.767  0.1182 -0.2125 -0.8095
   19SAPC  H17S 2489   4.540   5.299   8.707 -0.3219  3.1453  1.9732
   19SAPC  C218 2490   4.372   5.323   8.577 -0.3693 -0.0469  0.1688
   19SAPC  H18R 2491   4.420   5.408   8.523 -0.1563  0.6770  1.4713
   19SAPC  H18S 2492   4.266   5.356   8.573  0.1970  1.9327  0.7793
   19SAPC  C219 2493   4.383   5.198   8.491  0.6191 -0.0528 -1.0954
   19SAPC  H19R 2494   4.334   5.114   8.545  2.0871 -0.2147 -0.0032
   19SAPC  H19S 2495   4.486   5.170   8.462  0.8060 -1.6817  1.0690
   19SAPC  C220 2496   4.312   5.222   8.356 -0.1568  0.4073 -0.0738
   19SAPC  H20R 2497   4.259   5.130   8.322 -1.5978  1.0045  0.5228
   19SAPC  H20S 2498   4.387   5.253   8.280  1.6134 -1.9610  0.6375
   19SAPC  H20T 2499   4.232   5.299   8.358 -0.4880  0.1192 -1.5125
   19SAPC   C33 2500   4.886   5.540   9.832 -0.5119  0.3893 -0.0213
   19SAPC   H3X 2501   4.839   5.468   9.761  1.1785  1.0609 -1.8719
   19SAPC   H3Y 2502   4.951   5.463   9.880  1.8162  1.6773 -1.0321
   19SAPC   C34 2503   4.985   5.626   9.763  0.2153  0.0628 -0.5672
   19SAPC   H4X 2504   5.059   5.559   9.714  0.1831  0.2526 -0.8793
   19SAPC   H4Y 2505   5.047   5.695   9.825  3.0242 -2.4684 -0.4218
   19SAPC   C35 2506   4.921   5.710   9.648 -0.7271 -0.0895 -0.0702
   19SAPC   H5X 2507   4.878   5.802   9.695 -2.6738 -1.1548  0.3049
   19SAPC   H5Y 2508   4.842   5.646   9.604 -1.6200  1.7465 -1.1999
   19SAPC   C36 2509   5.010   5.740   9.527 -0.1778  0.6265 -0.3484
   19SAPC   H6X 2510   5.022   5.648   9.466 -0.3281 -0.7937  1.7180
   19SAPC   H6Y 2511   5.106   5.781   9.565  0.0667  0.8648 -1.2000
   19SAPC   C37 2512   4.953   5.847   9.440  0.0033  0.0712 -0.4936
   19SAPC   H7X 2513   4.943   5.943   9.493  4.6308 -1.0112  2.6156
   19SAPC   H7Y 2514   4.852   5.813   9.407  0.5293  0.6017 -2.7242
   19SAPC   C38 2515   5.036   5.866   9.315  0.0923  0.7718  0.6659
   19SAPC   H8X 2516   5.053   5.771   9.261 -1.9907  0.7986 -0.0797
   19SAPC   H8Y 2517   5.131   5.904   9.359  1.0045 -0.4771 -0.1897
   19SAPC   C39 2518   4.989   5.989   9.235 -0.5001  0.3050 -0.3229
   19SAPC   H9X 2519   4.963   6.072   9.304  0.9756  1.5130 -1.1850
   19SAPC   H9Y 2520   4.896   5.970   9.178  1.2483  1.8485 -3.9205
   19SAPC  C310 2521   5.087   6.035   9.129  0.9908  0.3467  0.5825
   19SAPC  H10X 2522   5.189   6.050   9.170  1.0687  0.5261  0.3288
   19SAPC  H10Y 2523   5.056   6.136   9.094 -1.5975 -0.3957  0.6236
   19SAPC  C311 2524   5.099   5.951   9.000 -0.4424 -0.0237  0.3745
   19SAPC  H11X 2525   5.005   5.900   8.971 -1.4033  0.5005  2.4416
   19SAPC  H11Y 2526   5.165   5.865   9.025  0.2434  0.4222  0.1054
   19SAPC  C312 2527   5.172   6.036   8.885  1.1563  0.4481  0.4810
   19SAPC  H12X 2528   5.196   5.953   8.816  1.8774  1.2292 -0.2256
   19SAPC  H12Y 2529   5.258   6.082   8.938  1.3987 -0.7617  1.1649
   19SAPC  C313 2530   5.086   6.140   8.814  0.0329 -0.0405  0.9707
   19SAPC  H13X 2531   5.057   6.224   8.882 -2.9706 -0.9587  0.9362
   19SAPC  H13Y 2532   4.987   6.105   8.777  1.5293  0.5287 -3.8445
   19SAPC  C314 2533   5.153   6.205   8.689 -0.2376  0.2589 -0.4275
   19SAPC  H14X 2534   5.240   6.266   8.722  0.5470 -1.1429  0.1478
   19SAPC  H14Y 2535   5.087   6.278   8.638 -0.4819  1.4226  1.4964
   19SAPC  C315 2536   5.191   6.099   8.590 -0.2384 -0.0259 -0.3550
   19SAPC  H15X 2537   5.265   6.023   8.622  0.4962 -0.4440 -2.8950
   19SAPC  H15Y 2538   5.234   6.161   8.508 -3.8188  1.2071 -1.4163
   19SAPC  C316 2539   5.079   6.026   8.522 -0.9537 -0.0283  0.1205
   19SAPC  H16X 2540   4.997   6.093   8.488  0.4795  1.4613 -0.4664
   19SAPC  H16Y 2541   5.017   5.965   8.591  0.4476 -0.3079  1.1493
   19SAPC  C317 2542   5.119   5.927   8.410  0.1886 -0.4011  0.4377
   19SAPC  H17X 2543   5.022   5.886   8.374  1.3547  0.0621 -3.3546
   19SAPC  H17Y 2544   5.175   5.841   8.453 -1.3919 -0.7452  1.8957
   19SAPC  C318 2545   5.187   5.993   8.284  0.8168 -0.2097  0.0540
   19SAPC  H18X 2546   5.201   5.918   8.202  0.7988 -0.4049  0.2306
   19SAPC  H18Y 2547   5.289   6.027   8.313  0.8839 -0.3565 -0.0067
   19SAPC  H18Z 2548   5.132   6.084   8.252 -1.9751 -0.1308  4.8007
   20SAPC     N 2549   4.166   2.032  10.915 -0.5731 -0.1292 -0.1702
   20SAPC   C12 2550   4.093   1.898  10.906  0.5598 -0.2121 -0.2965
   20SAPC  H12A 2551   4.136   1.841  10.825  0.1025  0.3373 -0.9288
   20SAPC  H12B 2552   3.990   1.913  10.878 -0.4096 -1.2107  2.5306
   20SAPC   C13 2553   4.139   2.105  11.040 -0.3045  0.8754 -0.0532
   20SAPC  H13A 2554   4.204   2.054  11.109  0.3445 -0.1161 -1.3812
   20SAPC  H13B 2555   4.159   2.211  11.040  0.7614  0.6850 -1.8512
   20SAPC  H13C 2556   4.035   2.103  11.069 -0.6903 -2.1427 -1.5468
   20SAPC   C14 2557   4.311   2.018  10.911 -0.6636  0.1851  0.4840
   20SAPC  H14A 2558   4.358   2.114  10.893 -1.8355  0.9499  1.4177
   20SAPC  H14B 2559   4.354   1.971  10.998 -0.8839  1.2369  1.1730
   20SAPC  H14C 2560   4.329   1.955  10.825 -1.0012  2.3458 -1.2452
   20SAPC   C15 2561   4.129   2.117  10.796 -0.2678 -0.6164  0.2400
   20SAPC  H15A 2562   4.157   2.219  10.819 -1.0342 -0.8294  2.2487
   20SAPC  H15B 2563   4.174   2.073  10.708 -0.3655 -0.0320 -0.1032
   20SAPC  H15C 2564   4.022   2.109  10.783 -0.5617  1.8410  0.9687
   20SAPC   C11 2565   4.078   1.805  11.026  0.4778 -0.1107 -0.3191
   20SAPC  H11A 2566   3.990   1.737  11.017  0.4370 -0.2198  0.7745
   20SAPC  H11B 2567   4.050   1.871  11.111  0.2530  0.0968 -0.5547
   20SAPC     P 2568   4.257   1.623  10.965 -0.1073  0.2229  0.2473
   20SAPC   O13 2569   4.392   1.592  11.010 -0.3756 -0.3113  0.3765
   20SAPC   O14 2570   4.154   1.515  10.950  0.2937  0.0708  0.0499
   20SAPC   O12 2571   4.193   1.733  11.056 -0.5534 -0.0504 -0.2919
   20SAPC   O11 2572   4.259   1.696  10.825 -0.4981 -0.0997 -0.0201
   20SAPC    C1 2573   4.298   1.615  10.718  0.5299 -0.6014  1.1608
   20SAPC    HA 2574   4.407   1.594  10.720  1.3093  3.1870  2.7102
   20SAPC    HB 2575   4.238   1.521  10.720 -2.9310  1.5239  0.5011
   20SAPC    C2 2576   4.267   1.686  10.578 -0.1603  0.2040  0.0951
   20SAPC    HS 2577   4.305   1.790  10.584  1.0765 -0.3583  2.6842
   20SAPC   O21 2578   4.131   1.678  10.552  0.3694  0.1238 -1.1767
   20SAPC   C21 2579   4.091   1.776  10.471 -0.6490  0.3080 -0.1115
   20SAPC   O22 2580   4.146   1.883  10.456 -0.0623  0.1792  0.3168
   20SAPC   C22 2581   3.967   1.747  10.396  0.0676  0.1424 -0.8707
   20SAPC   H2R 2582   3.931   1.645  10.422  1.3814  0.4089  2.2105
   20SAPC   H2S 2583   3.896   1.828  10.422 -0.5000 -1.1752  1.8594
   20SAPC    C3 2584   4.347   1.607  10.467 -0.4627  0.4617 -0.8189
   20SAPC    HX 2585   4.302   1.507  10.451 -2.3100  1.3944 -1.6216
   20SAPC    HY 2586   4.449   1.591  10.510 -0.4748 -2.4412 -1.7666
   20SAPC   O31 2587   4.352   1.694  10.349 -0.3454  0.2841 -0.0452
   20SAPC   C31 2588   4.446   1.653  10.253 -0.0104  0.3764  0.4716
   20SAPC   O32 2589   4.518   1.555  10.266 -0.5339  0.2462 -0.0894
   20SAPC   C32 2590   4.459   1.756  10.143  0.5799  0.5280  0.7024
   20SAPC   H2X 2591   4.551   1.810  10.175  2.2662 -1.3994 -0.7554
   20SAPC   H2Y 2592   4.370   1.820  10.158  0.0806 -0.0758  0.3113
   20SAPC   C23 2593   3.989   1.737  10.245 -0.1718 -0.0375 -0.0462
   20SAPC   H3R 2594   4.049   1.645  10.226 -1.5199 -1.0984  0.6756
   20SAPC   H3S 2595   4.042   1.826  10.206 -0.1384  0.3318  0.8164
   20SAPC   C24 2596   3.854   1.730  10.159 -0.1178  0.3475  0.6926
   20SAPC   H4R 2597   3.804   1.828  10.142 -0.5045 -0.1958 -1.5055
   20SAPC   H4S 2598   3.776   1.673  10.214  0.1789 -2.3872 -1.5999
   20SAPC   C25 2599   3.876   1.661  10.024 -0.3710  0.3799  0.2471
   20SAPC   H5R 2600   3.871   1.553  10.044  0.6337  0.7599  2.8722
   20SAPC   C26 2601   3.894   1.709   9.898  0.4318  0.1536 -0.3905
   20SAPC   H6R 2602   3.922   1.633   9.823  0.2942 -1.0432  0.7415
   20SAPC   C27 2603   3.888   1.849   9.852 -0.2161  0.0220  0.0390
   20SAPC   H7R 2604   3.897   1.910   9.945  2.2535  0.4900 -0.4832
   20SAPC   H7S 2605   3.785   1.863   9.814 -0.7249 -2.5540  0.3819
   20SAPC   C28 2606   3.998   1.874   9.748  0.0567 -0.1254 -0.2880
   20SAPC   H8R 2607   4.054   1.781   9.730  0.5299  0.1251 -0.1176
   20SAPC   C29 2608   4.028   1.986   9.676 -0.2312  0.1417 -0.2774
   20SAPC   H9R 2609   4.121   1.992   9.617 -0.5323 -0.1962 -0.7916
   20SAPC  C210 2610   3.955   2.117   9.694  0.2159 -0.5991 -0.5706
   20SAPC  H10R 2611   4.020   2.171   9.766 -0.3066 -1.6260  0.7015
   20SAPC  H10S 2612   3.854   2.106   9.740 -0.5194 -1.4920 -2.3608
   20SAPC  C211 2613   3.944   2.197   9.568  0.4479  0.0370 -0.1318
   20SAPC  H11R 2614   3.974   2.146   9.475  1.9315  0.4128  0.1385
   20SAPC  C212 2615   3.916   2.322   9.571  0.1620  0.6106  0.4442
   20SAPC  H12R 2616   3.929   2.378   9.477 -0.0503 -0.6270 -0.3425
   20SAPC  C213 2617   3.871   2.407   9.685  0.4315  0.2174 -1.1428
   20SAPC  H13R 2618   3.962   2.450   9.732 -1.0309  0.1638  1.7851
   20SAPC  H13S 2619   3.838   2.352   9.776 -0.6550  0.7720 -1.2021
   20SAPC  C214 2620   3.756   2.487   9.647  0.1450  0.8699 -0.1902
   20SAPC  H14R 2621   3.695   2.449   9.564  0.7600  0.4425 -0.4579
   20SAPC  C215 2622   3.731   2.604   9.700 -0.3162 -1.1000  0.2130
   20SAPC  H15R 2623   3.644   2.658   9.660  0.1202 -0.0576  0.6530
   20SAPC  C216 2624   3.809   2.678   9.803  0.1396  0.9366  0.7180
   20SAPC  H16R 2625   3.855   2.766   9.753  2.2739 -0.9656 -0.7618
   20SAPC  H16S 2626   3.886   2.617   9.855 -0.3284 -0.1432  0.1531
   20SAPC  C217 2627   3.715   2.731   9.909 -0.1472  0.2875 -0.6008
   20SAPC  H17R 2628   3.653   2.654   9.959 -2.0683  2.9516  1.3033
   20SAPC  H17S 2629   3.648   2.801   9.854  0.9453  1.0311 -1.0034
   20SAPC  C218 2630   3.800   2.811  10.013  0.4377  0.6917 -0.0320
   20SAPC  H18R 2631   3.753   2.808  10.114  0.9100 -0.8572  0.1595
   20SAPC  H18S 2632   3.801   2.918   9.984 -0.6528  1.0544  1.2329
   20SAPC  C219 2633   3.946   2.760  10.038 -0.7263  0.4653 -0.3609
   20SAPC  H19R 2634   4.006   2.765   9.944  0.6773  0.9313  0.5347
   20SAPC  H19S 2635   3.944   2.657  10.079  0.3548 -0.2201 -1.9638
   20SAPC  C220 2636   4.005   2.850  10.143  0.0375  0.7654  0.0487
   20SAPC  H20R 2637   3.988   2.958  10.122  4.8839  1.2985 -2.0221
   20SAPC  H20S 2638   4.115   2.833  10.154 -0.4065 -3.6892 -1.6054
   20SAPC  H20T 2639   3.964   2.828  10.243  2.5467  2.0889  1.4392
   20SAPC   C33 2640   4.457   1.703   9.996  0.4096 -0.3398 -0.3825
   20SAPC   H3X 2641   4.365   1.643   9.978  1.4150 -1.9487 -0.2075
   20SAPC   H3Y 2642   4.545   1.639   9.976  0.5932  0.2001 -1.3522
   20SAPC   C34 2643   4.451   1.824   9.898 -0.5664  0.2891  0.9492
   20SAPC   H4X 2644   4.527   1.899   9.928 -0.1356  0.4895 -0.6030
   20SAPC   H4Y 2645   4.357   1.881   9.910 -1.0571 -0.3192  0.0924
   20SAPC   C35 2646   4.444   1.790   9.753  0.7223  0.2836  0.1865
   20SAPC   H5X 2647   4.365   1.714   9.734  0.9628 -0.2658  1.3079
   20SAPC   H5Y 2648   4.537   1.736   9.723  0.7267  0.4795 -0.1483
   20SAPC   C36 2649   4.408   1.906   9.658  0.1622  0.0731  0.1439
   20SAPC   H6X 2650   4.484   1.987   9.648  0.1023  0.0198 -0.8441
   20SAPC   H6Y 2651   4.308   1.947   9.683  0.3993  0.2897  0.7378
   20SAPC   C37 2652   4.378   1.860   9.516  0.6336  0.1656  0.5015
   20SAPC   H7X 2653   4.343   1.946   9.454  1.0664 -0.9507 -1.3474
   20SAPC   H7Y 2654   4.298   1.783   9.506 -0.2001  1.2447 -1.4329
   20SAPC   C38 2655   4.496   1.798   9.444 -0.1511  0.4512 -0.4469
   20SAPC   H8X 2656   4.516   1.701   9.495  2.0053  1.1771  0.1201
   20SAPC   H8Y 2657   4.589   1.854   9.468  1.1007 -2.0650  0.7682
   20SAPC   C39 2658   4.470   1.780   9.297 -0.7129 -0.0519  0.0444
   20SAPC   H9X 2659   4.366   1.741   9.289 -0.8222  0.0230  1.0214
   20SAPC   H9Y 2660   4.542   1.707   9.253  0.7789  0.8734  0.9269
   20SAPC  C310 2661   4.484   1.909   9.217  0.1897  0.2232 -0.1046
   20SAPC  H10X 2662   4.590   1.944   9.218  1.2810 -2.9066  0.5072
   20SAPC  H10Y 2663   4.434   1.991   9.272  0.0744  0.5231 -0.6541
   20SAPC  C311 2664   4.434   1.900   9.077  0.1165 -0.1393  0.3640
   20SAPC  H11X 2665   4.326   1.875   9.071 -0.1756  1.6615 -3.1918
   20SAPC  H11Y 2666   4.467   1.814   9.015 -0.6400 -2.0373  2.5255
   20SAPC  C312 2667   4.446   2.030   9.002 -0.4112  0.0772  0.0093
   20SAPC  H12X 2668   4.475   2.112   9.071 -0.9631  2.2361 -2.2791
   20SAPC  H12Y 2669   4.345   2.062   8.971 -0.4458  0.3511  0.4018
   20SAPC  C313 2670   4.553   2.002   8.892 -0.3898 -0.6851  0.2200
   20SAPC  H13X 2671   4.506   1.938   8.814 -0.8952 -0.4922  0.3719
   20SAPC  H13Y 2672   4.635   1.947   8.943  1.1255  2.0352  0.8073
   20SAPC  C314 2673   4.607   2.135   8.836 -0.4834  0.4680 -0.3677
   20SAPC  H14X 2674   4.712   2.107   8.810 -1.2336 -3.5835  0.6536
   20SAPC  H14Y 2675   4.608   2.207   8.921  0.2056 -2.7617  2.4650
   20SAPC  C315 2676   4.533   2.176   8.714  0.2047  0.4656 -0.1277
   20SAPC  H15X 2677   4.425   2.173   8.740  0.2744  0.7937  0.2002
   20SAPC  H15Y 2678   4.556   2.101   8.636  2.0779  1.3598 -0.4513
   20SAPC  C316 2679   4.562   2.320   8.671  0.5331  0.4624  0.1326
   20SAPC  H16X 2680   4.512   2.391   8.741 -0.4325  0.5725 -0.6499
   20SAPC  H16Y 2681   4.541   2.336   8.563  1.9394 -0.6476 -0.3126
   20SAPC  C317 2682   4.707   2.359   8.681 -0.4395 -0.1213  0.1210
   20SAPC  H17X 2683   4.738   2.343   8.787 -2.1201 -0.9155  0.5136
   20SAPC  H17Y 2684   4.712   2.466   8.653 -2.0633  0.0384  0.3592
   20SAPC  C318 2685   4.796   2.285   8.589 -0.0645  0.5397 -0.5407
   20SAPC  H18X 2686   4.803   2.174   8.595 -2.8265  0.2585 -1.9354
   20SAPC  H18Y 2687   4.900   2.326   8.588 -0.4110  1.5739  2.6333
   20SAPC  H18Z 2688   4.754   2.280   8.486 -0.2125 -3.4883 -0.3833
   21SAPC     N 2689   4.309   0.828  10.837 -0.5109  0.6714 -0.1068
   21SAPC   C12 2690   4.199   0.921  10.896 -0.1327  0.4020  0.7843
   21SAPC  H12A 2691   4.220   1.025  10.873  0.5813  0.4443  1.6219
   21SAPC  H12B 2692   4.216   0.913  11.002 -0.6914 -1.8127  0.7287
   21SAPC   C13 2693   4.300   0.805  10.687  0.5214 -0.3594 -0.3698
   21SAPC  H13A 2694   4.202   0.768  10.663  1.3358 -1.4547 -2.0803
   21SAPC  H13B 2695   4.321   0.892  10.627  2.5802 -0.3268  0.3721
   21SAPC  H13C 2696   4.377   0.738  10.650  0.9227 -0.1886  0.1491
   21SAPC   C14 2697   4.451   0.871  10.864 -0.4535 -0.4999 -0.0945
   21SAPC  H14A 2698   4.468   0.965  10.814 -2.4298  0.3471  0.7866
   21SAPC  H14B 2699   4.466   0.883  10.970 -0.4354 -1.1808 -0.0172
   21SAPC  H14C 2700   4.525   0.798  10.835  0.6898  1.1972 -1.5909
   21SAPC   C15 2701   4.292   0.689  10.893  0.2187  0.3227 -0.2853
   21SAPC  H15A 2702   4.376   0.630  10.860 -1.2984 -1.4946 -1.0129
   21SAPC  H15B 2703   4.293   0.690  11.001 -1.4042 -2.7730 -0.1866
   21SAPC  H15C 2704   4.198   0.640  10.875 -0.5829  1.8141 -0.2946
   21SAPC   C11 2705   4.052   0.891  10.858 -0.3120  0.0551 -0.1100
   21SAPC  H11A 2706   3.995   0.975  10.903  1.1861  0.1157  1.7304
   21SAPC  H11B 2707   4.027   0.792  10.902 -0.6237 -0.6573 -1.8261
   21SAPC     P 2708   3.876   0.885  10.668  0.0555 -0.2379 -0.5250
   21SAPC   O13 2709   3.866   0.792  10.553 -0.3761 -0.1847 -0.6780
   21SAPC   O14 2710   3.782   0.861  10.783  0.1040 -0.4324 -0.0745
   21SAPC   O12 2711   4.026   0.888  10.720 -0.2967 -0.3601  0.5281
   21SAPC   O11 2712   3.862   1.033  10.617  0.3921  0.2190 -0.2319
   21SAPC    C1 2713   3.977   1.109  10.586 -0.4602 -0.5445  0.2793
   21SAPC    HA 2714   4.036   1.127  10.678 -0.5698 -3.4328  0.9498
   21SAPC    HB 2715   4.034   1.058  10.505 -0.7952  3.9935 -3.0074
   21SAPC    C2 2716   3.933   1.246  10.513 -0.1452  0.2854 -0.4409
   21SAPC    HS 2717   3.862   1.288  10.587  0.1789  0.5315 -0.2674
   21SAPC   O21 2718   3.883   1.215  10.379  0.2286  0.6306 -0.0974
   21SAPC   C21 2719   3.764   1.266  10.352  0.4151  0.1212  0.7145
   21SAPC   O22 2720   3.694   1.344  10.415  0.4836 -0.1329 -0.5124
   21SAPC   C22 2721   3.718   1.208  10.215  0.1847  0.0054  0.4003
   21SAPC   H2R 2722   3.724   1.097  10.222  2.9619  0.0709 -0.5044
   21SAPC   H2S 2723   3.614   1.248  10.205 -0.0695 -0.6178  0.5153
   21SAPC    C3 2724   4.057   1.335  10.500  0.6872  0.6088 -0.3768
   21SAPC    HX 2725   4.094   1.357  10.602 -0.4860  0.8799 -0.0103
   21SAPC    HY 2726   4.039   1.438  10.465 -2.1364  0.3216  0.1423
   21SAPC   O31 2727   4.164   1.277  10.427  0.8579  0.1463  0.1203
   21SAPC   C31 2728   4.152   1.293  10.293  0.4884  0.0950  0.0497
   21SAPC   O32 2729   4.065   1.359  10.238 -0.2259  0.3657 -0.6027
   21SAPC   C32 2730   4.245   1.191  10.225 -0.1473 -0.2440 -0.0385
   21SAPC   H2X 2731   4.198   1.092  10.242 -0.2246 -0.1424  0.3323
   21SAPC   H2Y 2732   4.345   1.179  10.271 -0.8535  0.0838  1.6095
   21SAPC   C23 2733   3.791   1.270  10.096  0.3580  0.4173 -0.0110
   21SAPC   H3R 2734   3.900   1.256  10.086  0.0190 -1.5310 -1.1546
   21SAPC   H3S 2735   3.763   1.378  10.102 -0.9087  0.1848 -1.4104
   21SAPC   C24 2736   3.726   1.215   9.964  0.3750  0.1226  0.4284
   21SAPC   H4R 2737   3.723   1.295   9.887  1.5976  1.2898  1.5937
   21SAPC   H4S 2738   3.621   1.193   9.993  0.6120 -0.4219  0.8773
   21SAPC   C25 2739   3.792   1.086   9.912  0.1942  0.7256 -0.2351
   21SAPC   H5R 2740   3.775   1.001   9.980 -0.3743  1.0326  0.0078
   21SAPC   C26 2741   3.876   1.072   9.809  0.0821 -0.4372  0.5283
   21SAPC   H6R 2742   3.904   0.970   9.780 -2.1133 -0.2357 -2.6189
   21SAPC   C27 2743   3.919   1.176   9.713 -0.3279  0.2664  0.2195
   21SAPC   H7R 2744   4.012   1.146   9.660 -0.6688  0.2284 -0.3644
   21SAPC   H7S 2745   3.940   1.268   9.772  1.4311  0.0151  0.0143
   21SAPC   C28 2746   3.805   1.203   9.612  0.0272 -0.4578 -0.1287
   21SAPC   H8R 2747   3.708   1.238   9.652 -1.8913 -3.8886 -1.5201
   21SAPC   C29 2748   3.810   1.177   9.480 -0.6840  0.4981 -1.0752
   21SAPC   H9R 2749   3.725   1.211   9.419  0.6535  1.0314 -2.6618
   21SAPC  C210 2750   3.927   1.114   9.403 -0.6028 -0.0246  0.3188
   21SAPC  H10R 2751   4.021   1.095   9.460 -0.8234 -2.1823  0.0165
   21SAPC  H10S 2752   3.953   1.189   9.325 -2.5834 -1.1536 -1.4708
   21SAPC  C211 2753   3.890   0.987   9.334  0.0586 -0.1801  0.6549
   21SAPC  H11R 2754   3.861   0.903   9.399  1.1808  0.3326  1.8501
   21SAPC  C212 2755   3.864   0.971   9.200 -0.4965  0.1001 -0.2722
   21SAPC  H12R 2756   3.849   0.873   9.152 -1.4791 -0.8636  1.9302
   21SAPC  C213 2757   3.876   1.079   9.097  0.6655 -0.5057 -0.3988
   21SAPC  H13R 2758   3.847   1.173   9.148  2.4621  0.3272 -0.8659
   21SAPC  H13S 2759   3.795   1.068   9.022  0.8126 -2.5494 -0.2966
   21SAPC  C214 2760   4.014   1.094   9.049 -0.3742  0.3868  0.1056
   21SAPC  H14R 2761   4.092   1.031   9.095  1.2141  2.0849 -0.1872
   21SAPC  C215 2762   4.063   1.176   8.952  1.1152 -0.4087 -0.5408
   21SAPC  H15R 2763   4.170   1.192   8.939  1.4863  0.0229  2.4940
   21SAPC  C216 2764   3.971   1.256   8.864 -0.2667  0.3881  0.2396
   21SAPC  H16R 2765   3.920   1.339   8.918 -1.8784 -0.2419 -0.2759
   21SAPC  H16S 2766   3.879   1.198   8.841 -0.8113  0.8757  1.1589
   21SAPC  C217 2767   4.038   1.325   8.743  0.4671  0.3952 -0.6172
   21SAPC  H17R 2768   4.086   1.241   8.689  0.7810  0.2927 -0.1798
   21SAPC  H17S 2769   4.123   1.383   8.784 -0.3736  1.4824 -0.3977
   21SAPC  C218 2770   3.942   1.409   8.661 -0.2488 -0.1587  0.4971
   21SAPC  H18R 2771   3.846   1.355   8.647  0.9614 -2.1729 -0.1627
   21SAPC  H18S 2772   3.980   1.427   8.558 -0.3591 -1.3391  0.2411
   21SAPC  C219 2773   3.884   1.541   8.724 -0.3840  0.3677 -0.3303
   21SAPC  H19R 2774   3.957   1.595   8.788  0.3093  1.0141 -1.6433
   21SAPC  H19S 2775   3.791   1.518   8.781  0.1496  1.2707  0.9243
   21SAPC  C220 2776   3.854   1.623   8.601 -1.0855  0.5708  0.4887
   21SAPC  H20R 2777   3.833   1.727   8.635 -4.4927  0.1033 -0.0338
   21SAPC  H20S 2778   3.762   1.582   8.555 -0.6798  0.3330 -0.1123
   21SAPC  H20T 2779   3.934   1.617   8.524  0.8623 -2.2072  2.5956
   21SAPC   C33 2780   4.249   1.209  10.075 -0.2195  0.0926 -0.1614
   21SAPC   H3X 2781   4.147   1.210  10.029 -0.2418  0.0960 -0.1123
   21SAPC   H3Y 2782   4.307   1.119  10.044 -0.0444 -0.4194  1.6233
   21SAPC   C34 2783   4.330   1.335  10.038  0.8959  0.4325 -0.1155
   21SAPC   H4X 2784   4.433   1.305  10.067  0.2222 -0.9151  0.9759
   21SAPC   H4Y 2785   4.298   1.422  10.098 -0.0787 -0.0391  0.0529
   21SAPC   C35 2786   4.344   1.368   9.893 -1.0300  0.2371 -0.0179
   21SAPC   H5X 2787   4.382   1.281   9.835  0.0659  0.3973  0.4520
   21SAPC   H5Y 2788   4.421   1.445   9.870 -0.1216 -1.0567 -1.3873
   21SAPC   C36 2789   4.206   1.399   9.828 -0.0242 -0.7930  0.2710
   21SAPC   H6X 2790   4.155   1.464   9.902  0.0743 -0.1891 -0.1867
   21SAPC   H6Y 2791   4.149   1.304   9.818 -1.3701  0.2223 -2.4821
   21SAPC   C37 2792   4.199   1.455   9.684 -0.1660 -0.3544  0.2195
   21SAPC   H7X 2793   4.244   1.555   9.667 -3.5405  1.0367 -0.8648
   21SAPC   H7Y 2794   4.091   1.473   9.667  0.2056 -0.1005 -2.1069
   21SAPC   C38 2795   4.268   1.378   9.574  0.1392  0.0453  0.5060
   21SAPC   H8X 2796   4.224   1.276   9.577 -1.6616  0.7789 -0.6734
   21SAPC   H8Y 2797   4.373   1.347   9.593 -0.3187 -2.4485 -0.7632
   21SAPC   C39 2798   4.260   1.433   9.430 -0.1628  0.4080 -0.0955
   21SAPC   H9X 2799   4.310   1.532   9.442  1.4423 -0.4363  0.3276
   21SAPC   H9Y 2800   4.157   1.453   9.395 -0.9365 -0.4344  1.6211
   21SAPC  C310 2801   4.347   1.344   9.340 -0.1370 -0.1411 -0.3578
   21SAPC  H10X 2802   4.322   1.236   9.346  2.8899 -0.9141 -1.0955
   21SAPC  H10Y 2803   4.448   1.349   9.386 -0.1771 -0.9758 -0.1789
   21SAPC  C311 2804   4.354   1.381   9.188  0.5332 -0.2363  0.1866
   21SAPC  H11X 2805   4.362   1.492   9.186 -0.6935 -0.0356  3.3430
   21SAPC  H11Y 2806   4.262   1.353   9.131  0.6913 -2.5729  1.0016
   21SAPC  C312 2807   4.483   1.314   9.124  0.2164  0.5308  0.4898
   21SAPC  H12X 2808   4.478   1.204   9.133 -1.4523  0.3415 -2.0945
   21SAPC  H12Y 2809   4.567   1.359   9.182  1.6804 -0.2598 -0.9659
   21SAPC  C313 2810   4.503   1.340   8.975 -0.1586 -0.0692  0.9896
   21SAPC  H13X 2811   4.409   1.316   8.921  1.8343 -2.3683 -1.6348
   21SAPC  H13Y 2812   4.576   1.270   8.929 -0.5675  0.6497 -0.8035
   21SAPC  C314 2813   4.533   1.486   8.953  0.2882  0.6193  0.4572
   21SAPC  H14X 2814   4.614   1.509   9.026  0.2477 -0.7643  0.9621
   21SAPC  H14Y 2815   4.448   1.552   8.978 -2.5449 -2.5606 -0.4106
   21SAPC  C315 2816   4.600   1.507   8.820 -0.0029  0.4160  0.5593
   21SAPC  H15X 2817   4.524   1.486   8.742 -0.4624 -0.2258  1.1736
   21SAPC  H15Y 2818   4.685   1.437   8.808 -0.8756 -0.4397 -0.8336
   21SAPC  C316 2819   4.651   1.644   8.801  0.2625 -0.4953 -0.5028
   21SAPC  H16X 2820   4.707   1.672   8.893  0.5392  2.1107 -1.4118
   21SAPC  H16Y 2821   4.561   1.709   8.800 -1.0420 -2.2726 -0.8101
   21SAPC  C317 2822   4.736   1.667   8.678 -0.0859  0.8242 -0.1788
   21SAPC  H17X 2823   4.678   1.626   8.592 -1.3080  0.5488  0.7683
   21SAPC  H17Y 2824   4.833   1.612   8.677  0.4584  1.8006 -1.3782
   21SAPC  C318 2825   4.779   1.815   8.668 -0.1070 -0.4496  0.4724
   21SAPC  H18X 2826   4.787   1.869   8.765  1.1322  1.8118 -0.8371
   21SAPC  H18Y 2827   4.706   1.881   8.616  0.8187 -1.0487 -1.6623
   21SAPC  H18Z 2828   4.874   1.823   8.610 -0.5905 -0.8605 -0.3942
   22SAPC     N 2829   3.876   5.611  11.092 -0.4045  0.0082  0.6611
   22SAPC   C12 2830   3.980   5.684  11.011  0.0939  0.2331 -0.3507
   22SAPC  H12A 2831   3.982   5.785  11.051  0.8306  0.2248 -0.3700
   22SAPC  H12B 2832   3.951   5.705  10.909 -1.5062 -2.8522 -0.5810
   22SAPC   C13 2833   3.865   5.471  11.045  0.8447  0.7491 -0.1276
   22SAPC  H13A 2834   3.845   5.485  10.939 -1.0802  1.0771  0.2544
   22SAPC  H13B 2835   3.958   5.417  11.053  0.1564 -0.2318  1.4879
   22SAPC  H13C 2836   3.791   5.410  11.095  0.4021  0.4503 -1.1333
   22SAPC   C14 2837   3.915   5.602  11.236 -0.6542 -0.4823 -0.0999
   22SAPC  H14A 2838   3.842   5.554  11.299  0.5891 -2.6594 -0.2759
   22SAPC  H14B 2839   4.010   5.554  11.255 -0.9146 -0.1558  2.0964
   22SAPC  H14C 2840   3.923   5.703  11.273  1.7590 -0.3219 -0.9350
   22SAPC   C15 2841   3.736   5.675  11.088 -0.0910 -0.2035  0.0488
   22SAPC  H15A 2842   3.677   5.620  11.159  2.1222  0.0406  2.1119
   22SAPC  H15B 2843   3.734   5.779  11.115 -2.0148 -0.4402  0.8636
   22SAPC  H15C 2844   3.690   5.662  10.991  1.6754 -0.4833 -0.7878
   22SAPC   C11 2845   4.125   5.630  11.005 -1.0136 -0.1755  0.6892
   22SAPC  H11A 2846   4.173   5.620  11.105  1.2686 -0.4799 -0.4076
   22SAPC  H11B 2847   4.185   5.711  10.958  1.1873 -0.8862  2.2074
   22SAPC     P 2848   4.123   5.523  10.774 -0.1352 -0.0204  0.0132
   22SAPC   O13 2849   4.216   5.421  10.718  0.3656 -0.6472 -0.0721
   22SAPC   O14 2850   3.975   5.508  10.748  0.1260  0.4246  0.5549
   22SAPC   O12 2851   4.134   5.502  10.934  0.1530  0.0936  0.4668
   22SAPC   O11 2852   4.176   5.674  10.740 -0.2517  0.0289  0.1671
   22SAPC    C1 2853   4.314   5.692  10.696 -0.1274  0.4218 -0.0874
   22SAPC    HA 2854   4.358   5.781  10.746 -0.7500  0.9077 -0.3963
   22SAPC    HB 2855   4.380   5.608  10.727 -0.6028 -0.1966 -0.7554
   22SAPC    C2 2856   4.319   5.715  10.540 -0.4715  0.4774  0.8973
   22SAPC    HS 2857   4.264   5.805  10.505  0.8378  0.5210 -1.0706
   22SAPC   O21 2858   4.279   5.603  10.467  0.1559 -0.1053  0.2864
   22SAPC   C21 2859   4.177   5.623  10.387  0.2723  0.0259 -0.1747
   22SAPC   O22 2860   4.116   5.726  10.374 -0.7460  0.4285  0.1502
   22SAPC   C22 2861   4.144   5.492  10.330  0.4059 -0.0642  0.2183
   22SAPC   H2R 2862   4.228   5.445  10.275  1.4856  0.2031  1.6110
   22SAPC   H2S 2863   4.134   5.432  10.423  0.0977 -1.2896 -0.5932
   22SAPC    C3 2864   4.465   5.746  10.511 -0.2632  0.5951 -0.0898
   22SAPC    HX 2865   4.524   5.663  10.557  0.4240  0.7532 -0.6715
   22SAPC    HY 2866   4.499   5.827  10.580 -0.1864  0.1414  0.4112
   22SAPC   O31 2867   4.498   5.760  10.371 -0.4959 -0.0598  0.1017
   22SAPC   C31 2868   4.473   5.882  10.322  0.2204  0.2702  0.5574
   22SAPC   O32 2869   4.412   5.969  10.377  0.2370  0.1688  0.0819
   22SAPC   C32 2870   4.515   5.891  10.179 -0.1113 -0.2593  0.6114
   22SAPC   H2X 2871   4.588   5.812  10.151 -0.0390 -1.1023  3.1155
   22SAPC   H2Y 2872   4.564   5.990  10.163  2.7045 -1.6705  0.2046
   22SAPC   C23 2873   4.023   5.496  10.242  0.8319 -0.0031  0.2956
   22SAPC   H3R 2874   4.045   5.565  10.158  3.9899  1.1881  2.0196
   22SAPC   H3S 2875   3.933   5.544  10.286  0.8014  0.4053 -0.2022
   22SAPC   C24 2876   3.967   5.363  10.182  0.2498  0.5682  0.2424
   22SAPC   H4R 2877   3.871   5.391  10.135 -0.4504 -2.1785 -0.0525
   22SAPC   H4S 2878   3.932   5.290  10.258 -0.4379 -1.5664 -2.0677
   22SAPC   C25 2879   4.067   5.293  10.090  0.3648 -0.0095  0.0445
   22SAPC   H5R 2880   4.131   5.218  10.137  0.7292 -0.0219 -0.4648
   22SAPC   C26 2881   4.088   5.312   9.959  0.2082 -0.1427 -0.0531
   22SAPC   H6R 2882   4.161   5.253   9.901  0.2101  1.7319 -2.0604
   22SAPC   C27 2883   4.002   5.407   9.873  0.3534  0.6946 -0.5115
   22SAPC   H7R 2884   4.073   5.487   9.843 -0.2450  1.6699  0.6107
   22SAPC   H7S 2885   3.924   5.463   9.929  2.2449  3.2081 -0.2926
   22SAPC   C28 2886   3.933   5.338   9.756  0.0259  0.0755  0.0999
   22SAPC   H8R 2887   3.885   5.242   9.781 -0.0161  0.0290 -0.1520
   22SAPC   C29 2888   3.925   5.369   9.621  0.0995  0.2113  0.6986
   22SAPC   H9R 2889   3.855   5.298   9.575 -1.0624  0.9301  1.3199
   22SAPC  C210 2890   3.978   5.490   9.550 -0.0803  0.4923 -0.8654
   22SAPC  H10R 2891   4.054   5.537   9.616 -1.6629 -0.1156  1.4667
   22SAPC  H10S 2892   3.902   5.571   9.546 -0.7356  0.1431  2.7815
   22SAPC  C211 2893   4.024   5.443   9.408  0.1255  0.0054 -0.3810
   22SAPC  H11R 2894   4.123   5.396   9.405 -0.4995 -1.2798 -0.9615
   22SAPC  C212 2895   3.958   5.445   9.290 -0.0449 -0.0723 -0.2819
   22SAPC  H12R 2896   4.014   5.411   9.202  2.3126 -2.7822  2.1563
   22SAPC  C213 2897   3.822   5.508   9.275 -0.2755  0.2798 -0.1212
   22SAPC  H13R 2898   3.781   5.498   9.378  1.0712  2.7552  0.6941
   22SAPC  H13S 2899   3.751   5.441   9.221 -0.2840 -0.1441  0.4179
   22SAPC  C214 2900   3.797   5.657   9.247  0.1189  0.3275 -0.3435
   22SAPC  H14R 2901   3.865   5.728   9.296 -0.7426  1.9237 -1.4250
   22SAPC  C215 2902   3.710   5.712   9.158 -0.3525  0.2461  0.3011
   22SAPC  H15R 2903   3.711   5.821   9.151 -0.0673  0.3820  2.0525
   22SAPC  C216 2904   3.598   5.649   9.083 -0.6331 -0.3467  0.0386
   22SAPC  H16R 2905   3.501   5.698   9.107 -0.0501 -0.0433  1.8497
   22SAPC  H16S 2906   3.586   5.545   9.122  0.4066 -0.0888  1.0519
   22SAPC  C217 2907   3.614   5.645   8.938  0.1498  0.2867  0.6180
   22SAPC  H17R 2908   3.539   5.572   8.904 -2.1613  2.0864  1.7032
   22SAPC  H17S 2909   3.713   5.608   8.903 -0.3797 -0.1909 -0.3838
   22SAPC  C218 2910   3.575   5.775   8.862 -0.0891  0.8051 -0.4889
   22SAPC  H18R 2911   3.484   5.823   8.903 -0.4647  1.3603 -1.9265
   22SAPC  H18S 2912   3.548   5.748   8.757 -0.9120 -1.1556  0.2108
   22SAPC  C219 2913   3.681   5.887   8.872 -0.2510  0.2275 -0.0436
   22SAPC  H19R 2914   3.775   5.831   8.857 -1.0102 -1.1264  0.1554
   22SAPC  H19S 2915   3.690   5.924   8.977  2.9720  1.0417 -0.5665
   22SAPC  C220 2916   3.663   6.003   8.769 -0.5059  0.5300 -0.1758
   22SAPC  H20R 2917   3.747   6.077   8.772  0.5553 -0.6858  1.0051
   22SAPC  H20S 2918   3.569   6.056   8.793 -1.2832 -1.1372  0.5316
   22SAPC  H20T 2919   3.661   5.964   8.666  1.1636 -0.5376  0.1775
   22SAPC   C33 2920   4.400   5.880  10.080  0.1212  0.3150  0.1568
   22SAPC   H3X 2921   4.323   5.951  10.118 -1.2990 -0.6361 -0.8990
   22SAPC   H3Y 2922   4.350   5.781  10.072  0.6580 -0.0505  1.2760
   22SAPC   C34 2923   4.438   5.922   9.934  0.5979 -0.4048  0.1424
   22SAPC   H4X 2924   4.466   6.029   9.932 -0.5583 -0.0889  0.1739
   22SAPC   H4Y 2925   4.341   5.918   9.879 -0.3886 -1.0593  1.8670
   22SAPC   C35 2926   4.540   5.835   9.863 -0.0944  0.4018  0.3013
   22SAPC   H5X 2927   4.505   5.731   9.883 -1.8199  0.1284 -3.6539
   22SAPC   H5Y 2928   4.640   5.845   9.910  1.2148 -0.2982 -2.2728
   22SAPC   C36 2929   4.537   5.855   9.707 -0.4397 -0.3709  0.7867
   22SAPC   H6X 2930   4.641   5.866   9.670 -0.2941 -0.5757  1.1240
   22SAPC   H6Y 2931   4.479   5.946   9.680 -0.2424 -0.4560  0.0758
   22SAPC   C37 2932   4.460   5.740   9.633 -0.0730 -0.2417 -0.4946
   22SAPC   H7X 2933   4.370   5.714   9.693  0.2946 -1.3295 -0.4034
   22SAPC   H7Y 2934   4.529   5.655   9.615  0.8751  0.4943 -0.4059
   22SAPC   C38 2935   4.403   5.784   9.496 -0.8007  0.5347  0.2348
   22SAPC   H8X 2936   4.337   5.873   9.500 -0.5386  0.7318  0.2478
   22SAPC   H8Y 2937   4.350   5.699   9.448  0.7833  0.5546 -1.6082
   22SAPC   C39 2938   4.518   5.821   9.398  0.1041  0.0069  0.1227
   22SAPC   H9X 2939   4.597   5.743   9.402  0.1654 -0.0652 -1.9950
   22SAPC   H9Y 2940   4.565   5.910   9.446 -1.6273  0.1775  1.5406
   22SAPC  C310 2941   4.474   5.851   9.250 -0.1916 -0.6578 -0.3061
   22SAPC  H10X 2942   4.391   5.925   9.250  0.1613 -0.2536  0.6638
   22SAPC  H10Y 2943   4.442   5.753   9.208  0.7489 -1.2376  0.3095
   22SAPC  C311 2944   4.587   5.901   9.160 -0.5412 -0.4447 -0.1537
   22SAPC  H11X 2945   4.672   5.829   9.168  1.4059  1.6620 -1.1023
   22SAPC  H11Y 2946   4.625   6.000   9.195 -1.9011  1.2164 -3.2436
   22SAPC  C312 2947   4.547   5.914   9.014  0.4146  0.8812 -0.3401
   22SAPC  H12X 2948   4.599   6.003   8.972 -1.2881  1.6746 -0.8280
   22SAPC  H12Y 2949   4.441   5.947   9.006  0.5481  1.8416  1.5177
   22SAPC  C313 2950   4.558   5.791   8.929 -0.4138  0.2764 -0.2966
   22SAPC  H13X 2951   4.491   5.718   8.979  1.0961 -0.6290  0.4599
   22SAPC  H13Y 2952   4.662   5.751   8.938 -0.2603  0.9143  0.8772
   22SAPC  C314 2953   4.540   5.814   8.775 -0.2989  0.0808 -0.6390
   22SAPC  H14X 2954   4.459   5.887   8.753 -0.6034 -0.2233 -0.5469
   22SAPC  H14Y 2955   4.491   5.724   8.733 -0.6041 -0.5219  0.9476
   22SAPC  C315 2956   4.662   5.848   8.691  0.9107  1.4306 -0.3489
   22SAPC  H15X 2957   4.715   5.930   8.743  2.3411 -0.5846  1.4436
   22SAPC  H15Y 2958   4.636   5.894   8.593 -1.2010 -1.8544 -1.4354
   22SAPC  C316 2959   4.764   5.736   8.675  0.4987 -0.3523  0.3594
   22SAPC  H16X 2960   4.831   5.723   8.762  1.0254  0.8405  0.1424
   22SAPC  H16Y 2961   4.827   5.766   8.588 -0.9929 -1.9008 -1.3274
   22SAPC  C317 2962   4.716   5.595   8.641  0.2506 -0.4387  0.7433
   22SAPC  H17X 2963   4.651   5.587   8.551  2.3098 -0.4926 -0.7685
   22SAPC  H17Y 2964   4.664   5.550   8.728 -1.2301 -0.9501 -0.3851
   22SAPC  C318 2965   4.836   5.500   8.621 -0.4446 -0.0487  0.0516
   22SAPC  H18X 2966   4.888   5.533   8.528 -1.8840  3.5341  0.4545
   22SAPC  H18Y 2967   4.807   5.393   8.619  0.6098 -0.3212 -1.7182
   22SAPC  H18Z 2968   4.911   5.515   8.701  1.2302  1.9253 -1.8199
   23SAPC     N 2969   5.046   1.327  10.665  0.4140  0.4206  0.3628
   23SAPC   C12 2970   5.112   1.257  10.551  0.2091 -0.4593  0.3806
   23SAPC  H12A 2971   5.062   1.296  10.463  0.3924  1.4656  1.0894
   23SAPC  H12B 2972   5.087   1.152  10.559 -0.6899 -0.2962 -0.2066
   23SAPC   C13 2973   5.096   1.285  10.794 -0.3308  0.2537  0.1779
   23SAPC  H13A 2974   5.202   1.305  10.798 -0.1600 -0.8387  1.2880
   23SAPC  H13B 2975   5.059   1.345  10.876 -1.4854  1.2406 -1.0390
   23SAPC  H13C 2976   5.090   1.179  10.811  0.5656  0.4012  1.5253
   23SAPC   C14 2977   5.033   1.474  10.650 -0.0477  0.5139  0.4175
   23SAPC  H14A 2978   5.130   1.522  10.648 -0.3684  1.1770  0.8684
   23SAPC  H14B 2979   4.982   1.494  10.557 -0.6698  0.2005  0.6925
   23SAPC  H14C 2980   4.982   1.528  10.728 -1.2946 -2.1383  1.4887
   23SAPC   C15 2981   4.905   1.275  10.662 -0.0263  0.5057 -0.5960
   23SAPC  H15A 2982   4.837   1.330  10.725  0.3144 -1.3431  1.4558
   23SAPC  H15B 2983   4.866   1.275  10.561  2.3230  1.0865 -1.5305
   23SAPC  H15C 2984   4.899   1.170  10.687 -0.8259  0.6311 -0.2512
   23SAPC   C11 2985   5.264   1.258  10.541  0.3080 -0.1724 -0.2974
   23SAPC  H11A 2986   5.296   1.365  10.539  1.0402 -0.3169  2.0818
   23SAPC  H11B 2987   5.295   1.207  10.448 -0.1872 -2.5419  0.8185
   23SAPC     P 2988   5.325   1.030  10.672 -0.0991  0.5320 -0.0939
   23SAPC   O13 2989   5.407   0.978  10.779 -0.4121  0.3926 -0.0679
   23SAPC   O14 2990   5.184   0.982  10.676  0.4809  0.1184  0.6287
   23SAPC   O12 2991   5.330   1.189  10.655  0.7670  0.0258 -0.6749
   23SAPC   O11 2992   5.387   0.963  10.548 -0.5219  0.2469 -0.2689
   23SAPC    C1 2993   5.526   0.991  10.508  0.4295 -0.0420 -0.3211
   23SAPC    HA 2994   5.539   1.102  10.509 -1.6712  0.2602  2.8686
   23SAPC    HB 2995   5.601   0.959  10.583  2.2806  1.0138 -1.6906
   23SAPC    C2 2996   5.571   0.933  10.371  0.7220  0.1368 -0.1727
   23SAPC    HS 2997   5.638   1.003  10.317 -0.6925  1.1354 -0.6725
   23SAPC   O21 2998   5.455   0.918  10.286 -0.8774 -0.1526  0.3136
   23SAPC   C21 2999   5.399   1.037  10.256 -0.8211  1.0995  0.1504
   23SAPC   O22 3000   5.450   1.144  10.275  0.1098 -0.0052 -0.3173
   23SAPC   C22 3001   5.247   1.020  10.219 -0.2487  0.3723 -0.0107
   23SAPC   H2R 3002   5.190   1.060  10.305 -2.2102  1.8495 -1.9636
   23SAPC   H2S 3003   5.232   1.077  10.125 -1.4044 -0.3898 -0.2971
   23SAPC    C3 3004   5.653   0.802  10.391  0.3992  0.5493 -0.2409
   23SAPC    HX 3005   5.589   0.732  10.447 -0.5585  0.0681 -1.8899
   23SAPC    HY 3006   5.741   0.819  10.457  0.1707  2.1954 -0.3440
   23SAPC   O31 3007   5.691   0.735  10.267  0.0157  0.1416 -0.4575
   23SAPC   C31 3008   5.815   0.681  10.259 -0.2775 -0.3127  0.3334
   23SAPC   O32 3009   5.890   0.681  10.354 -0.0964 -0.3833  0.0300
   23SAPC   C32 3010   5.828   0.614  10.126 -0.0093  0.7970  0.5110
   23SAPC   H2X 3011   5.868   0.698  10.065 -0.8654  0.1937 -0.9041
   23SAPC   H2Y 3012   5.730   0.577  10.090  1.3811 -1.2460 -1.2833
   23SAPC   C23 3013   5.200   0.870  10.191  0.0707 -0.4998  0.4258
   23SAPC   H3R 3014   5.214   0.807  10.282  1.3886  0.7246  1.0893
   23SAPC   H3S 3015   5.259   0.821  10.111 -3.1157  0.6772 -2.7782
   23SAPC   C24 3016   5.056   0.858  10.153  0.7163  0.6057  0.6227
   23SAPC   H4R 3017   5.035   0.922  10.065  2.0333 -0.0391 -0.1665
   23SAPC   H4S 3018   4.989   0.888  10.237  1.1245  1.2486  0.7189
   23SAPC   C25 3019   5.018   0.715  10.114  0.1026 -0.5755 -0.5370
   23SAPC   H5R 3020   4.996   0.647  10.198  0.7978 -0.4839 -0.2738
   23SAPC   C26 3021   4.997   0.675   9.990  0.5609  0.2322  0.1443
   23SAPC   H6R 3022   4.975   0.567   9.982  1.0611  0.2552 -1.6137
   23SAPC   C27 3023   5.023   0.750   9.863  0.7459  0.0204 -1.1791
   23SAPC   H7R 3024   5.122   0.801   9.863  1.0570 -0.5649 -2.6585
   23SAPC   H7S 3025   4.942   0.824   9.843  0.6768 -0.5358 -3.0843
   23SAPC   C28 3026   5.029   0.649   9.751 -0.3663  0.1323 -0.2417
   23SAPC   H8R 3027   5.040   0.542   9.775 -1.9812 -0.7496 -3.2544
   23SAPC   C29 3028   5.036   0.681   9.629  0.4583 -0.6550 -0.1335
   23SAPC   H9R 3029   5.028   0.608   9.547  1.5627 -0.6788 -0.2301
   23SAPC  C210 3030   5.030   0.827   9.579 -0.1158 -0.0162 -0.3710
   23SAPC  H10R 3031   5.127   0.878   9.594 -1.0852  1.2542  1.7367
   23SAPC  H10S 3032   4.965   0.894   9.639  2.5244  1.1471  1.2306
   23SAPC  C211 3033   4.989   0.834   9.437  0.4076  0.3512 -0.6066
   23SAPC  H11R 3034   4.880   0.827   9.427  0.3619  1.5841 -0.9880
   23SAPC  C212 3035   5.081   0.821   9.332 -0.4928 -0.1569 -0.3278
   23SAPC  H12R 3036   5.043   0.813   9.229  0.0642 -1.2735 -0.4593
   23SAPC  C213 3037   5.231   0.814   9.353 -0.5505  0.2720 -0.5752
   23SAPC  H13R 3038   5.255   0.889   9.430 -0.8566 -2.3270  2.1621
   23SAPC  H13S 3039   5.285   0.847   9.262 -1.1825 -0.2860 -1.1622
   23SAPC  C214 3040   5.277   0.675   9.371 -0.3141  0.5348 -0.3988
   23SAPC  H14R 3041   5.215   0.603   9.315 -1.6677  1.0413  0.4121
   23SAPC  C215 3042   5.368   0.634   9.464  0.1566 -0.1098 -0.7107
   23SAPC  H15R 3043   5.394   0.528   9.476  0.6278  0.3057  2.3904
   23SAPC  C216 3044   5.452   0.734   9.543  0.2541 -0.0879 -0.0509
   23SAPC  H16R 3045   5.414   0.838   9.536 -1.0493 -0.6450 -1.3258
   23SAPC  H16S 3046   5.561   0.730   9.520 -0.1684  0.7844 -2.3481
   23SAPC  C217 3047   5.436   0.700   9.688  0.1490  0.2893 -0.3015
   23SAPC  H17R 3048   5.458   0.592   9.706  1.1626  0.8241  1.9448
   23SAPC  H17S 3049   5.330   0.729   9.708 -0.4675 -2.6733  0.9653
   23SAPC  C218 3050   5.537   0.772   9.773 -0.5615 -0.8020 -0.8165
   23SAPC  H18R 3051   5.520   0.881   9.757  2.8899 -0.4058 -2.0679
   23SAPC  H18S 3052   5.639   0.735   9.752 -0.0827 -0.5288  0.9770
   23SAPC  C219 3053   5.507   0.751   9.923  0.4997 -0.3435  0.0533
   23SAPC  H19R 3054   5.411   0.804   9.941  1.9715  2.3853  0.0551
   23SAPC  H19S 3055   5.586   0.792   9.989 -1.2544  1.5280  1.0742
   23SAPC  C220 3056   5.490   0.603   9.982 -0.6737  0.1921  0.3896
   23SAPC  H20R 3057   5.473   0.612  10.092 -2.1726 -0.5571  0.2304
   23SAPC  H20S 3058   5.582   0.541   9.974 -0.5085  0.2231  1.9421
   23SAPC  H20T 3059   5.399   0.563   9.932 -0.0948 -0.1650 -0.3802
   23SAPC   C33 3060   5.927   0.493  10.148  0.1007  0.1305 -0.3763
   23SAPC   H3X 3061   5.889   0.438  10.236 -2.0718  2.3599  0.1459
   23SAPC   H3Y 3062   6.021   0.535  10.189  0.6488 -1.5598  0.1300
   23SAPC   C34 3063   5.927   0.396  10.033 -0.3044 -0.5654  0.0714
   23SAPC   H4X 3064   5.832   0.376   9.978  0.6745 -0.6718 -1.6030
   23SAPC   H4Y 3065   5.976   0.300  10.060  0.3569 -0.6851 -1.5258
   23SAPC   C35 3066   6.016   0.439   9.911 -0.1663 -0.5312  1.0840
   23SAPC   H5X 3067   6.122   0.454   9.941  0.6213 -1.3826 -1.1714
   23SAPC   H5Y 3068   5.981   0.540   9.883 -1.0992 -1.4624 -1.2640
   23SAPC   C36 3069   6.009   0.344   9.795  0.0952 -0.0258  0.3199
   23SAPC   H6X 3070   6.020   0.243   9.841 -0.5781  0.7169  2.1492
   23SAPC   H6Y 3071   6.105   0.352   9.740 -0.4679 -0.6170 -0.7784
   23SAPC   C37 3072   5.881   0.342   9.717  0.0342  0.3545 -0.6456
   23SAPC   H7X 3073   5.803   0.310   9.789 -0.8351  1.2540 -1.1759
   23SAPC   H7Y 3074   5.884   0.263   9.639 -0.8828  1.1930 -1.5507
   23SAPC   C38 3075   5.848   0.484   9.658 -0.0157  0.4274  0.9974
   23SAPC   H8X 3076   5.942   0.533   9.626  0.4457 -1.8827 -1.4377
   23SAPC   H8Y 3077   5.809   0.547   9.740  0.4005  2.2713 -0.1880
   23SAPC   C39 3078   5.750   0.485   9.541 -0.6750  0.6861  0.5233
   23SAPC   H9X 3079   5.711   0.588   9.524 -2.3764 -0.3586 -2.2474
   23SAPC   H9Y 3080   5.666   0.423   9.579  1.0735 -1.0709  1.6138
   23SAPC  C310 3081   5.804   0.414   9.413  0.0340 -0.6014 -0.3681
   23SAPC  H10X 3082   5.833   0.308   9.430  0.4305 -0.4407 -0.0390
   23SAPC  H10Y 3083   5.906   0.458   9.412  0.2257 -1.0429 -0.7281
   23SAPC  C311 3084   5.731   0.424   9.284  0.2348  0.5211 -0.9267
   23SAPC  H11X 3085   5.690   0.527   9.285  0.7526  0.7453  2.3751
   23SAPC  H11Y 3086   5.649   0.355   9.310  0.6006 -0.2966 -1.8887
   23SAPC  C312 3087   5.807   0.393   9.159  0.3485  0.1184 -0.2983
   23SAPC  H12X 3088   5.836   0.287   9.146  1.8196  0.5021 -0.1407
   23SAPC  H12Y 3089   5.901   0.451   9.151  0.0534  0.6068 -0.2986
   23SAPC  C313 3090   5.716   0.431   9.040 -0.3206 -0.2007  0.6513
   23SAPC  H13X 3091   5.672   0.533   9.032  1.5416  0.5807  0.2209
   23SAPC  H13Y 3092   5.620   0.375   9.048 -0.3049 -0.5924 -1.4093
   23SAPC  C314 3093   5.769   0.380   8.906 -0.1587  0.7476  0.0399
   23SAPC  H14X 3094   5.801   0.275   8.920 -0.1153  0.7591  0.0255
   23SAPC  H14Y 3095   5.859   0.445   8.905  1.4501 -1.4662 -2.2232
   23SAPC  C315 3096   5.674   0.406   8.787 -0.7450 -0.6747  0.2328
   23SAPC  H15X 3097   5.654   0.515   8.775 -1.4854 -0.9646 -1.3600
   23SAPC  H15Y 3098   5.580   0.353   8.812 -0.7376 -0.3919  0.8677
   23SAPC  C316 3099   5.733   0.358   8.654  1.1718 -0.2432  0.0586
   23SAPC  H16X 3100   5.765   0.255   8.679  0.3448 -0.3057  0.9260
   23SAPC  H16Y 3101   5.825   0.412   8.623  1.7736 -1.3900 -0.1813
   23SAPC  C317 3102   5.637   0.350   8.537  0.6284 -0.0268  0.5794
   23SAPC  H17X 3103   5.553   0.290   8.578  1.1807 -1.7636 -0.7621
   23SAPC  H17Y 3104   5.673   0.287   8.453 -0.1921  1.1697 -0.6799
   23SAPC  C318 3105   5.579   0.484   8.493  0.1548 -0.0137 -0.9353
   23SAPC  H18X 3106   5.530   0.465   8.395  0.9437  0.4834 -1.4275
   23SAPC  H18Y 3107   5.660   0.560   8.489 -0.2599  0.6179  1.6917
   23SAPC  H18Z 3108   5.496   0.516   8.560  1.5161  0.4920  0.5265
   24SAPC     N 3109   1.145   1.424  11.047 -0.1251 -0.3642 -0.3653
   24SAPC   C12 3110   1.147   1.418  10.892  0.4511 -0.3666 -0.7775
   24SAPC  H12A 3111   1.242   1.438  10.844  0.0345 -1.2900 -2.0279
   24SAPC  H12B 3112   1.084   1.498  10.855  2.4205  0.6152 -2.0689
   24SAPC   C13 3113   1.010   1.400  11.089 -0.0507  0.2953  0.0280
   24SAPC  H13A 3114   0.995   1.293  11.094 -1.4446  0.4742 -0.1747
   24SAPC  H13B 3115   0.980   1.423  11.190  1.6818 -1.3301  0.9378
   24SAPC  H13C 3116   0.941   1.438  11.015 -1.9445 -0.9428  1.1227
   24SAPC   C14 3117   1.233   1.323  11.109 -0.2700 -0.0077  0.3249
   24SAPC  H14A 3118   1.212   1.225  11.070  1.4567 -0.3198  0.1753
   24SAPC  H14B 3119   1.334   1.350  11.083 -0.2089  1.7838  2.2841
   24SAPC  H14C 3120   1.231   1.318  11.217  1.9375  1.1697  0.4446
   24SAPC   C15 3121   1.181   1.567  11.094 -0.3516 -0.3176  0.5104
   24SAPC  H15A 3122   1.173   1.589  11.199 -2.3180 -0.7330  0.4594
   24SAPC  H15B 3123   1.285   1.581  11.068 -0.4280  0.4814  0.6245
   24SAPC  H15C 3124   1.115   1.645  11.058 -1.3904 -0.1129  2.7730
   24SAPC   C11 3125   1.094   1.290  10.820  0.1399  0.0708 -0.4367
   24SAPC  H11A 3126   1.090   1.303  10.710 -1.4890 -0.6354 -0.4624
   24SAPC  H11B 3127   0.988   1.271  10.844  0.2906 -0.7086 -0.3850
   24SAPC     P 3128   1.093   1.029  10.875  0.1781  0.0165  0.3201
   24SAPC   O13 3129   1.192   0.927  10.912  0.1642  0.3685  0.2844
   24SAPC   O14 3130   0.980   1.045  10.970  0.0891 -0.5510  0.5109
   24SAPC   O12 3131   1.168   1.170  10.855 -0.7593  0.0558 -0.0269
   24SAPC   O11 3132   1.037   1.001  10.730  0.0371 -0.0521 -0.0567
   24SAPC    C1 3133   1.121   1.020  10.616 -0.0295 -0.2172 -0.1086
   24SAPC    HA 3134   1.062   1.021  10.522  2.0288 -1.7658 -1.4464
   24SAPC    HB 3135   1.179   1.115  10.617 -0.3009 -0.0553  0.2114
   24SAPC    C2 3136   1.226   0.911  10.606 -0.3824  0.5754 -0.2461
   24SAPC    HS 3137   1.282   0.907  10.701 -0.6983 -3.7507 -0.1274
   24SAPC   O21 3138   1.304   0.955  10.495 -0.1359 -0.4261 -0.0715
   24SAPC   C21 3139   1.428   0.941  10.494  0.4629  0.4732  0.2888
   24SAPC   O22 3140   1.500   0.888  10.580  0.1970 -0.1095 -0.2422
   24SAPC   C22 3141   1.500   1.004  10.372  0.4073  0.2672 -0.0670
   24SAPC   H2R 3142   1.473   1.111  10.384  2.8678  1.1498 -2.0009
   24SAPC   H2S 3143   1.610   0.995  10.389  0.1917 -0.0466  1.2431
   24SAPC    C3 3144   1.160   0.771  10.582  0.2775  0.6047 -0.5710
   24SAPC    HX 3145   1.081   0.783  10.505  0.0234  2.9969  0.0406
   24SAPC    HY 3146   1.096   0.734  10.665  0.4042  1.1324 -0.2399
   24SAPC   O31 3147   1.254   0.674  10.537  0.0723  0.1072  0.1525
   24SAPC   C31 3148   1.290   0.586  10.628  0.1062  0.4508 -0.1522
   24SAPC   O32 3149   1.275   0.605  10.747  0.3150 -0.1635  0.2468
   24SAPC   C32 3150   1.352   0.460  10.567 -0.6949  0.4063  0.3576
   24SAPC   H2X 3151   1.269   0.430  10.499  1.1384 -0.4562 -1.5571
   24SAPC   H2Y 3152   1.379   0.386  10.645 -0.9997 -0.7970 -0.6581
   24SAPC   C23 3153   1.448   0.948  10.238  0.0460 -0.2555  0.2437
   24SAPC   H3R 3154   1.339   0.937  10.221 -0.1067 -0.3101  1.2651
   24SAPC   H3S 3155   1.484   0.844  10.221 -0.7253 -0.4412 -0.3059
   24SAPC   C24 3156   1.481   1.036  10.114  0.3059  0.1115  0.3419
   24SAPC   H4R 3157   1.467   1.144  10.137 -0.7184  1.0171 -4.1856
   24SAPC   H4S 3158   1.414   1.004  10.032 -0.6778 -1.9029  1.8844
   24SAPC   C25 3159   1.627   1.024  10.072  0.0038  0.2971 -0.0352
   24SAPC   H5R 3160   1.690   0.990  10.155  0.7741 -0.3904 -0.8893
   24SAPC   C26 3161   1.674   1.052   9.952  0.5629  0.6433  0.3459
   24SAPC   H6R 3162   1.781   1.031   9.934  0.3080 -1.1520  0.8185
   24SAPC   C27 3163   1.596   1.094   9.830  0.4922  0.0234 -0.2737
   24SAPC   H7R 3164   1.539   1.189   9.842  0.0969 -0.2473  0.0280
   24SAPC   H7S 3165   1.517   1.018   9.810 -1.6142  1.9636  0.5017
   24SAPC   C28 3166   1.693   1.098   9.712  0.3953  1.0343 -0.0460
   24SAPC   H8R 3167   1.766   1.179   9.729 -0.2069  0.6782  4.9326
   24SAPC   C29 3168   1.685   1.027   9.603 -0.6950 -0.5536 -0.1201
   24SAPC   H9R 3169   1.744   1.044   9.511 -0.4329 -0.1192  0.1291
   24SAPC  C210 3170   1.586   0.917   9.575 -0.3871 -0.0334 -0.2341
   24SAPC  H10R 3171   1.546   0.871   9.668 -1.0614 -0.7078 -0.8592
   24SAPC  H10S 3172   1.633   0.825   9.535  1.1968  0.1082  1.2035
   24SAPC  C211 3173   1.466   0.953   9.495 -0.5116  0.0310 -1.1520
   24SAPC  H11R 3174   1.456   1.062   9.485  1.1313  0.2169 -0.8932
   24SAPC  C212 3175   1.355   0.881   9.470 -0.7006 -0.1802 -0.9950
   24SAPC  H12R 3176   1.285   0.929   9.400 -0.2574 -0.1586 -1.4259
   24SAPC  C213 3177   1.328   0.735   9.506 -0.5050  0.0459 -0.3267
   24SAPC  H13R 3178   1.412   0.703   9.572 -1.9778 -0.2080  1.4617
   24SAPC  H13S 3179   1.338   0.673   9.414  2.9718  1.0180 -0.7028
   24SAPC  C214 3180   1.191   0.728   9.568  0.3311 -0.1364  0.2678
   24SAPC  H14R 3181   1.110   0.691   9.503 -0.4749 -0.4840  1.4657
   24SAPC  C215 3182   1.148   0.764   9.688 -1.1929 -0.1427  0.7440
   24SAPC  H15R 3183   1.046   0.740   9.722 -1.8993  2.7538  0.8701
   24SAPC  C216 3184   1.227   0.830   9.797  0.2031  0.1943 -0.0953
   24SAPC  H16R 3185   1.191   0.935   9.803 -0.4979 -0.0692  0.4317
   24SAPC  H16S 3186   1.337   0.833   9.782  0.5641  1.4475  2.4527
   24SAPC  C217 3187   1.199   0.760   9.933 -0.1865  0.0322 -0.3989
   24SAPC  H17R 3188   1.255   0.812  10.015  1.2408  1.0286 -1.9790
   24SAPC  H17S 3189   1.239   0.656   9.938 -0.0537  0.1598  1.9048
   24SAPC  C218 3190   1.050   0.732   9.972 -0.2392 -0.3606  0.7042
   24SAPC  H18R 3191   1.034   0.623   9.958  0.4669 -0.3165 -0.5762
   24SAPC  H18S 3192   0.975   0.785   9.908  0.6387  1.9366  1.5300
   24SAPC  C219 3193   1.024   0.746  10.126  0.2492 -0.9986 -0.4158
   24SAPC  H19R 3194   0.914   0.742  10.145  0.2359  0.4047 -0.0716
   24SAPC  H19S 3195   1.061   0.849  10.145 -0.7287 -0.3581 -1.8725
   24SAPC  C220 3196   1.096   0.655  10.214 -0.0104 -0.1212 -0.8382
   24SAPC  H20R 3197   1.083   0.550  10.179  0.3266 -0.1708 -0.8183
   24SAPC  H20S 3198   1.055   0.661  10.318  0.8701  1.8005 -0.5983
   24SAPC  H20T 3199   1.203   0.681  10.223 -0.3149  1.2091 -1.0391
   24SAPC   C33 3200   1.480   0.505  10.496 -0.2974 -0.8044 -0.6366
   24SAPC   H3X 3201   1.559   0.506  10.575  0.3609  1.2944 -1.2966
   24SAPC   H3Y 3202   1.477   0.606  10.451 -0.8337  0.6034  2.4307
   24SAPC   C34 3203   1.515   0.412  10.376  0.2510  0.7821 -0.8764
   24SAPC   H4X 3204   1.537   0.306  10.400  2.4941  1.3710 -0.1810
   24SAPC   H4Y 3205   1.608   0.454  10.332 -0.4527  0.8200 -2.3491
   24SAPC   C35 3206   1.409   0.416  10.261 -0.5355 -0.0317  0.1086
   24SAPC   H5X 3207   1.373   0.521  10.256  0.5907  0.3483 -0.1570
   24SAPC   H5Y 3208   1.322   0.359  10.299  0.3899 -0.4403  1.6776
   24SAPC   C36 3209   1.467   0.363  10.131 -0.7129 -0.5053  0.9977
   24SAPC   H6X 3210   1.457   0.252  10.127 -0.5706 -0.4864 -0.1398
   24SAPC   H6Y 3211   1.575   0.383  10.122 -0.9520  0.6164  0.5521
   24SAPC   C37 3212   1.394   0.422  10.002 -0.3265  0.1108  0.1716
   24SAPC   H7X 3213   1.456   0.421   9.909  0.7571 -0.5173  0.8833
   24SAPC   H7Y 3214   1.369   0.529  10.020 -1.3625  0.0883 -1.0885
   24SAPC   C38 3215   1.263   0.352   9.971 -0.2093  0.6957  0.0796
   24SAPC   H8X 3216   1.224   0.403   9.880 -3.3679 -2.0901 -0.1975
   24SAPC   H8Y 3217   1.196   0.383  10.053  1.0133  1.0679  0.9540
   24SAPC   C39 3218   1.270   0.199   9.938  0.7266 -0.4611 -0.5175
   24SAPC   H9X 3219   1.168   0.156   9.926  0.7940 -0.8137  0.1233
   24SAPC   H9Y 3220   1.319   0.144  10.022  1.9680 -2.8225 -2.7399
   24SAPC  C310 3221   1.356   0.162   9.810 -0.2902 -0.4917  0.1502
   24SAPC  H10X 3222   1.353   0.052   9.794  1.3217 -0.3634 -1.1134
   24SAPC  H10Y 3223   1.462   0.183   9.833 -0.1746  0.1899 -0.9726
   24SAPC  C311 3224   1.321   0.235   9.679 -0.2283 -0.0478 -0.3736
   24SAPC  H11X 3225   1.316   0.344   9.696  0.1529  0.1815 -1.6642
   24SAPC  H11Y 3226   1.224   0.194   9.642  0.2658 -1.9198  0.3345
   24SAPC  C312 3227   1.425   0.196   9.574  0.3619  0.7238  0.1924
   24SAPC  H12X 3228   1.440   0.086   9.570  0.2852  0.7485 -0.7065
   24SAPC  H12Y 3229   1.521   0.246   9.598  0.2133  1.2686 -0.3597
   24SAPC  C313 3230   1.380   0.231   9.435  0.5921  0.3874 -0.7120
   24SAPC  H13X 3231   1.313   0.149   9.401  3.1010 -0.8750 -2.7876
   24SAPC  H13Y 3232   1.476   0.239   9.378  2.0975 -0.2692  1.6468
   24SAPC  C314 3233   1.308   0.361   9.425  0.2544 -0.1225 -0.2845
   24SAPC  H14X 3234   1.362   0.448   9.468  0.6413  0.3755 -1.7487
   24SAPC  H14Y 3235   1.209   0.354   9.476  0.0980  2.8037 -0.1318
   24SAPC  C315 3236   1.285   0.393   9.271 -1.1053  0.4822 -0.4256
   24SAPC  H15X 3237   1.247   0.298   9.230 -3.4497  0.1086  2.4858
   24SAPC  H15Y 3238   1.382   0.427   9.228 -0.0500 -0.4778  1.1241
   24SAPC  C316 3239   1.172   0.490   9.227 -0.3121 -0.2557 -0.7354
   24SAPC  H16X 3240   1.162   0.565   9.309 -0.6666 -0.7344 -0.3356
   24SAPC  H16Y 3241   1.089   0.416   9.222 -1.1072  0.3655  2.2631
   24SAPC  C317 3242   1.211   0.568   9.106  0.8776  0.0627  0.5910
   24SAPC  H17X 3243   1.227   0.505   9.016  0.4030 -0.6663  1.0155
   24SAPC  H17Y 3244   1.304   0.621   9.137  1.8178 -1.9289  1.3188
   24SAPC  C318 3245   1.113   0.690   9.068 -0.1043  0.2079  0.5330
   24SAPC  H18X 3246   1.155   0.730   8.974 -1.9945  2.7623  0.7205
   24SAPC  H18Y 3247   1.121   0.776   9.138 -1.3097  0.6676  0.1165
   24SAPC  H18Z 3248   1.015   0.641   9.049  1.0342 -0.9572 -2.6337
   25SAPC     N 3249   4.259   5.998   5.813 -0.3949 -0.1217 -0.8030
   25SAPC   C12 3250   4.132   6.046   5.871 -0.4828 -0.1505  0.6595
   25SAPC  H12A 3251   4.045   6.011   5.817 -0.2782 -0.7565  0.7153
   25SAPC  H12B 3252   4.135   6.153   5.866  1.2576 -0.2678 -1.5248
   25SAPC   C13 3253   4.376   6.034   5.909  0.0664 -0.6074 -0.2013
   25SAPC  H13A 3254   4.373   5.980   6.003  0.9567  0.8573  0.6814
   25SAPC  H13B 3255   4.471   6.020   5.861  1.0248  0.9929  1.2113
   25SAPC  H13C 3256   4.381   6.139   5.931 -1.5470 -0.4396 -0.5621
   25SAPC   C14 3257   4.262   5.849   5.806  0.2854  0.1960  0.5793
   25SAPC  H14A 3258   4.182   5.821   5.739 -1.6974  0.3137  2.8070
   25SAPC  H14B 3259   4.356   5.812   5.767 -0.7317 -2.3640  0.4244
   25SAPC  H14C 3260   4.243   5.811   5.905 -1.4768 -1.1755 -0.2457
   25SAPC   C15 3261   4.296   6.055   5.684 -0.5880 -0.2941  0.0844
   25SAPC  H15A 3262   4.319   6.161   5.690  0.0968 -0.5011  1.1271
   25SAPC  H15B 3263   4.383   6.017   5.632  0.0592  1.4067 -0.1173
   25SAPC  H15C 3264   4.223   6.042   5.605  1.0976  1.7789 -1.8650
   25SAPC   C11 3265   4.106   6.007   6.019 -0.4683  0.1963  0.3722
   25SAPC  H11A 3266   4.029   6.081   6.048  0.5867  0.7699  1.7016
   25SAPC  H11B 3267   4.195   6.024   6.082  1.4170 -0.6510 -1.9847
   25SAPC     P 3268   3.938   5.809   5.987 -0.5282  0.1618 -0.1671
   25SAPC   O13 3269   3.866   5.905   5.901  0.3494  0.0217  0.7383
   25SAPC   O14 3270   3.972   5.676   5.934  0.2568  0.0388  0.4340
   25SAPC   O12 3271   4.079   5.865   6.033 -0.1747 -0.7989 -0.2789
   25SAPC   O11 3272   3.858   5.788   6.121 -0.3244  0.1206 -0.1632
   25SAPC    C1 3273   3.928   5.722   6.230  0.4383 -0.1195 -0.8897
   25SAPC    HA 3274   4.039   5.734   6.225  0.6649 -0.3977  2.3579
   25SAPC    HB 3275   3.898   5.771   6.325 -1.8467 -0.6549 -1.3156
   25SAPC    C2 3276   3.891   5.572   6.230  0.6177  0.6764  0.3613
   25SAPC    HS 3277   3.910   5.535   6.127  0.4087 -0.2794  0.6619
   25SAPC   O21 3278   3.750   5.562   6.272  0.1267  0.3736  0.0943
   25SAPC   C21 3279   3.700   5.442   6.253  0.9094 -0.2321 -0.6319
   25SAPC   O22 3280   3.764   5.343   6.207  0.2753  0.2646 -0.4869
   25SAPC   C22 3281   3.562   5.444   6.310 -0.3485  0.4347 -0.4178
   25SAPC   H2R 3282   3.521   5.541   6.274 -2.6262 -0.4420 -0.3192
   25SAPC   H2S 3283   3.505   5.357   6.271  3.0161 -1.8669 -0.3711
   25SAPC    C3 3284   3.995   5.488   6.311  0.1221 -0.1271  0.6250
   25SAPC    HX 3285   4.091   5.511   6.259 -0.4058 -0.1091 -0.3700
   25SAPC    HY 3286   3.967   5.381   6.310 -0.8738  0.1173 -0.3306
   25SAPC   O31 3287   3.994   5.539   6.442  0.4732  0.6830 -0.3492
   25SAPC   C31 3288   4.092   5.483   6.522  0.2324 -0.3888 -0.4777
   25SAPC   O32 3289   4.186   5.427   6.483 -0.3502 -0.4580 -0.2473
   25SAPC   C32 3290   4.056   5.523   6.661  0.5323 -0.6226  0.1138
   25SAPC   H2X 3291   3.957   5.484   6.692 -0.5321  0.2971 -2.0908
   25SAPC   H2Y 3292   4.073   5.631   6.682 -1.7993 -0.6651  2.5802
   25SAPC   C23 3293   3.576   5.442   6.464 -0.4250  0.5454  0.2867
   25SAPC   H3R 3294   3.472   5.467   6.495 -0.8200  1.7285 -1.8634
   25SAPC   H3S 3295   3.644   5.524   6.494  0.1819  0.6296 -1.2518
   25SAPC   C24 3296   3.619   5.298   6.512  0.4787 -0.0108  0.7563
   25SAPC   H4R 3297   3.641   5.294   6.620  1.1070  2.0117  0.7242
   25SAPC   H4S 3298   3.722   5.288   6.470  0.5008 -1.0387  1.0438
   25SAPC   C25 3299   3.523   5.182   6.477 -0.5966  0.0097  0.4955
   25SAPC   H5R 3300   3.419   5.207   6.450  0.0260  0.5336 -1.4687
   25SAPC   C26 3301   3.563   5.058   6.461 -0.4828 -0.4481  0.3192
   25SAPC   H6R 3302   3.487   4.981   6.440 -1.5228  0.2350  1.5338
   25SAPC   C27 3303   3.705   5.004   6.485  0.0698 -0.1798  0.5037
   25SAPC   H7R 3304   3.771   5.071   6.544  0.2665  0.9221 -0.9213
   25SAPC   H7S 3305   3.768   5.001   6.394  0.0044  0.3474  0.4401
   25SAPC   C28 3306   3.696   4.864   6.548 -0.0368 -0.7167  0.7746
   25SAPC   H8R 3307   3.664   4.783   6.481  1.5724  0.2948 -1.2788
   25SAPC   C29 3308   3.707   4.836   6.674 -0.2954 -0.5222 -0.4352
   25SAPC   H9R 3309   3.703   4.731   6.707 -0.3980 -0.2154  0.5369
   25SAPC  C210 3310   3.733   4.933   6.785  0.0731  0.3599  0.3714
   25SAPC  H10R 3311   3.820   4.997   6.759 -1.9318  2.3478 -1.7300
   25SAPC  H10S 3312   3.776   4.879   6.872 -0.9033  1.1109  1.3409
   25SAPC  C211 3313   3.628   5.038   6.806 -0.3970 -0.2430 -0.0054
   25SAPC  H11R 3314   3.537   5.032   6.745  0.1693  0.1882 -0.9054
   25SAPC  C212 3315   3.645   5.121   6.908  1.1582  0.5537  0.3105
   25SAPC  H12R 3316   3.555   5.182   6.925 -0.2529 -2.4951  4.8558
   25SAPC  C213 3317   3.760   5.119   7.014  1.0359 -0.2580  0.4596
   25SAPC  H13R 3318   3.858   5.151   6.972  1.0113  0.2803  0.8050
   25SAPC  H13S 3319   3.786   5.014   7.041  0.4290 -0.4026  0.4755
   25SAPC  C214 3320   3.722   5.210   7.128  0.5452  0.3202 -0.4379
   25SAPC  H14R 3321   3.669   5.302   7.102 -1.1572 -0.7687 -0.9229
   25SAPC  C215 3322   3.744   5.171   7.256 -0.6341  0.2539  0.7554
   25SAPC  H15R 3323   3.713   5.234   7.341 -1.4054  1.7472 -0.5972
   25SAPC  C216 3324   3.811   5.048   7.302  0.2191 -0.5021  0.0508
   25SAPC  H16R 3325   3.781   4.964   7.236 -0.0041 -0.3839  0.0012
   25SAPC  H16S 3326   3.764   5.016   7.398  0.9000 -1.9106 -0.0783
   25SAPC  C217 3327   3.959   5.064   7.316 -0.0267 -0.3297 -0.4575
   25SAPC  H17R 3328   3.994   5.129   7.233 -1.5967  1.9161  0.5682
   25SAPC  H17S 3329   4.006   4.965   7.299  2.0664  0.2654  1.5912
   25SAPC  C218 3330   4.000   5.124   7.452  0.6026  0.0988 -0.3546
   25SAPC  H18R 3331   3.959   5.227   7.459 -0.0536 -0.1473 -0.5765
   25SAPC  H18S 3332   4.111   5.131   7.460  0.5599 -0.8327  1.3182
   25SAPC  C219 3333   3.968   5.041   7.575 -0.0582  0.1960  0.9749
   25SAPC  H19R 3334   3.992   4.934   7.555  0.3203  0.4761 -0.0617
   25SAPC  H19S 3335   3.860   5.051   7.600 -1.1639 -0.3660 -3.2902
   25SAPC  C220 3336   4.042   5.096   7.699 -0.1499  0.5851 -0.0958
   25SAPC  H20R 3337   4.056   5.018   7.776 -0.5031 -0.6166 -1.2353
   25SAPC  H20S 3338   3.997   5.190   7.739  0.0102 -0.1829  1.8931
   25SAPC  H20T 3339   4.151   5.109   7.678 -0.0266  0.3649  0.4199
   25SAPC   C33 3340   4.145   5.450   6.764 -0.5893  0.1655 -0.2995
   25SAPC   H3X 3341   4.252   5.467   6.743 -0.7238 -0.6620 -1.7280
   25SAPC   H3Y 3342   4.117   5.345   6.742 -1.1297 -0.8064  4.5431
   25SAPC   C34 3343   4.125   5.495   6.909 -0.3230 -0.4443  0.4295
   25SAPC   H4X 3344   4.112   5.605   6.904 -1.7185 -0.6090  0.0228
   25SAPC   H4Y 3345   4.221   5.472   6.960 -1.5289 -1.4348  2.3387
   25SAPC   C35 3346   4.007   5.427   6.979  0.1438  0.5290 -0.4962
   25SAPC   H5X 3347   4.036   5.321   6.996  0.6803  0.9004  0.9093
   25SAPC   H5Y 3348   3.919   5.458   6.919  0.4114  2.6624  0.1955
   25SAPC   C36 3349   3.985   5.501   7.114 -0.5436  0.1101 -0.4080
   25SAPC   H6X 3350   3.883   5.475   7.150  0.0935  1.2116  2.2849
   25SAPC   H6Y 3351   4.008   5.608   7.098  1.6521 -0.3334 -0.3850
   25SAPC   C37 3352   4.095   5.463   7.217 -0.9665  0.5846  0.2677
   25SAPC   H7X 3353   4.198   5.500   7.200 -0.9374  1.3244  1.9545
   25SAPC   H7Y 3354   4.101   5.352   7.228  0.4220  0.9208  3.6665
   25SAPC   C38 3355   4.059   5.524   7.355  0.1362  0.4756  0.3242
   25SAPC   H8X 3356   4.099   5.472   7.444  0.2057  1.2942  0.7740
   25SAPC   H8Y 3357   3.951   5.548   7.358  0.0089 -0.0304 -0.1710
   25SAPC   C39 3358   4.137   5.661   7.358 -0.0900 -0.0309 -0.0941
   25SAPC   H9X 3359   4.104   5.726   7.274  1.1948 -0.6006 -1.0568
   25SAPC   H9Y 3360   4.244   5.632   7.346 -0.5194 -1.2071 -1.2233
   25SAPC  C310 3361   4.113   5.718   7.495 -0.2120  0.1703  0.4742
   25SAPC  H10X 3362   4.140   5.647   7.576  2.4630  1.3343  0.6613
   25SAPC  H10Y 3363   4.006   5.747   7.498 -0.5014 -0.9035  0.9036
   25SAPC  C311 3364   4.185   5.845   7.536 -0.0873 -0.9365  0.0863
   25SAPC  H11X 3365   4.192   5.912   7.447  0.5153 -1.7431 -0.4772
   25SAPC  H11Y 3366   4.289   5.820   7.565  0.2236 -1.1839 -1.2143
   25SAPC  C312 3367   4.119   5.935   7.643 -0.2651  0.5173 -0.3391
   25SAPC  H12X 3368   4.023   5.973   7.601 -0.4545 -0.7452 -1.0645
   25SAPC  H12Y 3369   4.184   6.024   7.655  0.0946  0.1921  0.1206
   25SAPC  C313 3370   4.092   5.872   7.775  0.7280 -0.4853  0.6247
   25SAPC  H13X 3371   4.175   5.817   7.824  0.5494 -1.8251 -0.5266
   25SAPC  H13Y 3372   4.022   5.787   7.759 -1.8002  1.2725  1.9028
   25SAPC  C314 3373   4.028   5.969   7.874 -0.6343 -0.3237 -0.0221
   25SAPC  H14X 3374   3.948   6.027   7.824  0.8275  1.4124 -0.3845
   25SAPC  H14Y 3375   4.118   6.021   7.912 -0.6110  0.3899 -1.0575
   25SAPC  C315 3376   3.949   5.898   7.979  0.5999 -0.1403 -0.3146
   25SAPC  H15X 3377   3.877   5.832   7.926  2.6445 -1.5663 -1.3807
   25SAPC  H15Y 3378   3.902   5.976   8.043 -0.7052  0.2242 -1.6869
   25SAPC  C316 3379   4.029   5.807   8.075  0.0242 -0.5791  0.4541
   25SAPC  H16X 3380   4.090   5.866   8.147 -0.9254 -0.0550  0.8349
   25SAPC  H16Y 3381   4.091   5.735   8.018  2.1873  2.7781 -1.6382
   25SAPC  C317 3382   3.932   5.725   8.167  0.1673  0.7074 -0.1653
   25SAPC  H17X 3383   3.996   5.654   8.224  0.9675  1.4133 -0.1659
   25SAPC  H17Y 3384   3.860   5.663   8.110 -0.4907  1.2796  0.0481
   25SAPC  C318 3385   3.856   5.817   8.265 -1.0386 -0.1960 -0.1059
   25SAPC  H18X 3386   3.798   5.750   8.332  0.0199 -0.4398  0.5910
   25SAPC  H18Y 3387   3.790   5.894   8.221 -1.0303  0.2147  0.5949
   25SAPC  H18Z 3388   3.932   5.875   8.321 -0.8660 -2.0991  1.7143
   26SAPC     N 3389   3.874   0.243   5.962 -0.3462  0.1200 -0.8680
   26SAPC   C12 3390   3.845   0.195   6.100  0.2386  0.2796 -0.0791
   26SAPC  H12A 3391   3.941   0.165   6.139 -0.7461 -1.9706  0.7044
   26SAPC  H12B 3392   3.780   0.109   6.086 -0.2393  0.3478  1.5800
   26SAPC   C13 3393   4.001   0.324   5.987  0.0521  0.3504 -0.0836
   26SAPC  H13A 3394   3.989   0.386   6.074  2.1810 -1.5865  1.6728
   26SAPC  H13B 3395   4.088   0.262   6.001 -0.3206 -0.1776 -0.0882
   26SAPC  H13C 3396   4.028   0.387   5.903 -0.4916 -1.4240 -1.6325
   26SAPC   C14 3397   3.908   0.134   5.858  0.4356  0.4445 -0.4656
   26SAPC  H14A 3398   3.984   0.074   5.906 -0.7776 -0.9222 -0.2423
   26SAPC  H14B 3399   3.825   0.073   5.827 -2.3355  2.6697  2.3055
   26SAPC  H14C 3400   3.942   0.175   5.764  1.4158 -1.6965 -1.0766
   26SAPC   C15 3401   3.780   0.345   5.920  0.5774  0.5316 -0.5547
   26SAPC  H15A 3402   3.691   0.286   5.901  1.1130 -0.1371 -1.0296
   26SAPC  H15B 3403   3.745   0.411   5.998 -0.0782 -1.4098  0.8213
   26SAPC  H15C 3404   3.802   0.405   5.833 -1.6001  1.7232 -0.3213
   26SAPC   C11 3405   3.769   0.289   6.197 -0.1127  0.3556 -0.4734
   26SAPC  H11A 3406   3.794   0.396   6.184 -0.0313  0.4568  0.4686
   26SAPC  H11B 3407   3.789   0.256   6.301  2.4155  2.2738 -0.3065
   26SAPC     P 3408   3.515   0.380   6.203 -0.1038 -0.1101  0.1497
   26SAPC   O13 3409   3.546   0.501   6.128 -0.2430 -0.0711 -0.0748
   26SAPC   O14 3410   3.385   0.319   6.181  0.4555 -0.1812 -0.3369
   26SAPC   O12 3411   3.627   0.274   6.166 -0.6549  0.2662 -0.7255
   26SAPC   O11 3412   3.533   0.405   6.362  0.1303  0.2561  0.2985
   26SAPC    C1 3413   3.425   0.429   6.452  0.5047 -1.1188 -0.1782
   26SAPC    HA 3414   3.428   0.540   6.458 -1.4202 -1.0746  0.1338
   26SAPC    HB 3415   3.330   0.383   6.416 -0.4839  1.6219 -1.2116
   26SAPC    C2 3416   3.443   0.377   6.596 -0.3581  0.4554 -0.0427
   26SAPC    HS 3417   3.530   0.434   6.637 -0.8644 -0.9814  3.1651
   26SAPC   O21 3418   3.455   0.230   6.595 -0.1048 -0.0642 -0.3361
   26SAPC   C21 3419   3.550   0.190   6.679  0.0190 -0.0661 -0.2799
   26SAPC   O22 3420   3.607   0.269   6.755 -0.4655 -0.0308  0.0631
   26SAPC   C22 3421   3.579   0.043   6.666 -0.3729  0.5568 -0.1617
   26SAPC   H2R 3422   3.483  -0.012   6.670 -0.9879  1.7375  2.4312
   26SAPC   H2S 3423   3.622   0.028   6.565 -1.9078  1.0878 -0.9101
   26SAPC    C3 3424   3.327   0.423   6.686  0.3105  0.5620  0.1163
   26SAPC    HX 3425   3.235   0.368   6.656 -1.7746  3.0729  1.5965
   26SAPC    HY 3426   3.285   0.524   6.667 -2.2393 -0.8884 -2.3980
   26SAPC   O31 3427   3.360   0.413   6.823  0.2268 -0.1379  0.5046
   26SAPC   C31 3428   3.448   0.506   6.864  0.7418  0.5772  0.1959
   26SAPC   O32 3429   3.484   0.601   6.802 -0.7069  0.0963  0.3127
   26SAPC   C32 3430   3.460   0.481   7.012 -0.6606  0.0863  0.4687
   26SAPC   H2X 3431   3.558   0.429   7.024 -1.1941 -0.6851  1.6162
   26SAPC   H2Y 3432   3.378   0.413   7.046  1.2991 -2.3332  0.4888
   26SAPC   C23 3433   3.683  -0.006   6.770  1.2490 -0.1543 -0.5031
   26SAPC   H3R 3434   3.759   0.072   6.791 -0.5416  2.1404 -2.3444
   26SAPC   H3S 3435   3.737  -0.098   6.740  1.6831  0.6197 -2.1465
   26SAPC   C24 3436   3.629  -0.034   6.916  0.0491  1.0454 -0.1249
   26SAPC   H4R 3437   3.567  -0.126   6.915 -0.3526  1.3088  0.4034
   26SAPC   H4S 3438   3.560   0.050   6.938 -0.7847  0.6218 -1.1241
   26SAPC   C25 3439   3.733  -0.057   7.023 -0.2778 -0.5476 -0.3083
   26SAPC   H5R 3440   3.813  -0.126   6.993 -0.7437 -0.4002 -1.9088
   26SAPC   C26 3441   3.737  -0.006   7.150 -0.6170 -0.7520 -0.1209
   26SAPC   H6R 3442   3.826  -0.036   7.207 -2.2385 -4.3948  0.6868
   26SAPC   C27 3443   3.640   0.077   7.225  0.9260 -0.0613  0.0703
   26SAPC   H7R 3444   3.568   0.016   7.282 -0.7288  2.5360  0.8295
   26SAPC   H7S 3445   3.568   0.130   7.159  3.4838  0.7383 -2.2016
   26SAPC   C28 3446   3.704   0.174   7.318  0.5533 -0.1855 -0.3256
   26SAPC   H8R 3447   3.739   0.272   7.283  0.8185 -1.1041 -2.7794
   26SAPC   C29 3448   3.732   0.149   7.445  0.2037  0.1375  0.4412
   26SAPC   H9R 3449   3.812   0.208   7.492  3.1047 -2.4326 -1.1601
   26SAPC  C210 3450   3.701   0.015   7.513 -0.0513  0.5691 -0.6976
   26SAPC  H10R 3451   3.688  -0.074   7.448  0.5547 -0.7119  0.9040
   26SAPC  H10S 3452   3.612   0.019   7.579  1.3081 -0.5626  1.2330
   26SAPC  C211 3453   3.825  -0.033   7.587  0.4548 -0.8138 -0.2159
   26SAPC  H11R 3454   3.912  -0.082   7.541  1.4495 -0.2988  1.0848
   26SAPC  C212 3455   3.835  -0.023   7.720  0.7556  0.0056  0.6336
   26SAPC  H12R 3456   3.925  -0.059   7.772  1.1143  1.0147  0.7284
   26SAPC  C213 3457   3.733   0.048   7.811  0.2200 -0.0030 -0.0957
   26SAPC  H13R 3458   3.685   0.138   7.768  0.5899 -0.0762 -0.6704
   26SAPC  H13S 3459   3.790   0.092   7.896  2.3844 -1.3901 -0.7974
   26SAPC  C214 3460   3.623  -0.042   7.854  0.6873 -1.6141  0.1892
   26SAPC  H14R 3461   3.567  -0.085   7.770  0.0065  2.2429 -1.4398
   26SAPC  C215 3462   3.584  -0.067   7.982 -0.4420 -0.4997 -0.5553
   26SAPC  H15R 3463   3.514  -0.151   7.994  2.9068 -3.3578 -0.2937
   26SAPC  C216 3464   3.628  -0.014   8.110  0.0127 -0.6037  0.0181
   26SAPC  H16R 3465   3.540   0.015   8.172  0.3915  0.1510  0.2136
   26SAPC  H16S 3466   3.691   0.077   8.101 -1.0193  0.2905  1.5197
   26SAPC  C217 3467   3.711  -0.112   8.200  0.0698  0.1061 -0.1826
   26SAPC  H17R 3468   3.809  -0.140   8.155  1.0421 -0.9911  2.4701
   26SAPC  H17S 3469   3.662  -0.211   8.214 -0.5572  0.0853 -2.4083
   26SAPC  C218 3470   3.736  -0.049   8.338 -0.2753 -0.3185  0.5519
   26SAPC  H18R 3471   3.636  -0.008   8.364 -0.5746 -0.3161 -0.5776
   26SAPC  H18S 3472   3.797   0.043   8.340  1.5353 -1.5165  1.7427
   26SAPC  C219 3473   3.777  -0.142   8.456  0.3045 -0.1837  1.0490
   26SAPC  H19R 3474   3.855  -0.209   8.413 -0.7616  0.2531 -1.7008
   26SAPC  H19S 3475   3.691  -0.206   8.488 -0.7278  0.6371 -0.0484
   26SAPC  C220 3476   3.822  -0.070   8.574 -0.7015 -0.0785 -0.2032
   26SAPC  H20R 3477   3.738  -0.014   8.620  0.0951 -0.0241  1.2252
   26SAPC  H20S 3478   3.920  -0.016   8.565  0.2567 -1.7173  0.2871
   26SAPC  H20T 3479   3.837  -0.141   8.658 -1.4331 -0.5043 -0.4325
   26SAPC   C33 3480   3.471   0.605   7.105 -0.3987  0.3952  0.4833
   26SAPC   H3X 3481   3.403   0.691   7.084 -0.1469  0.0945 -1.6875
   26SAPC   H3Y 3482   3.576   0.639   7.090 -0.0771 -0.3722  1.0140
   26SAPC   C34 3483   3.447   0.556   7.252 -0.3469 -0.0096 -0.7614
   26SAPC   H4X 3484   3.509   0.469   7.283 -0.1962 -0.0349 -1.1264
   26SAPC   H4Y 3485   3.339   0.528   7.257  0.0863 -1.7286 -0.8026
   26SAPC   C35 3486   3.472   0.661   7.356 -0.4320  0.2432 -0.2502
   26SAPC   H5X 3487   3.402   0.745   7.337 -0.9056 -0.3171 -1.0374
   26SAPC   H5Y 3488   3.577   0.696   7.347 -0.6588  0.6342 -1.4953
   26SAPC   C36 3489   3.430   0.608   7.497  0.4487  0.2535  0.4159
   26SAPC   H6X 3490   3.499   0.521   7.503 -0.1992 -0.6385 -3.4151
   26SAPC   H6Y 3491   3.324   0.575   7.487 -0.6006  2.3263  3.9082
   26SAPC   C37 3492   3.448   0.702   7.617 -0.3169 -0.8716  0.2547
   26SAPC   H7X 3493   3.371   0.781   7.607  2.3456  1.7675  0.0767
   26SAPC   H7Y 3494   3.546   0.755   7.622 -1.4546  1.2961 -0.0077
   26SAPC   C38 3495   3.428   0.635   7.757 -0.0022  0.8864  0.2149
   26SAPC   H8X 3496   3.512   0.570   7.792 -1.8908 -1.1087  1.1605
   26SAPC   H8Y 3497   3.342   0.565   7.745 -0.8603  1.6726  1.7746
   26SAPC   C39 3498   3.409   0.740   7.872  0.2394 -0.3954 -0.1404
   26SAPC   H9X 3499   3.352   0.832   7.846  0.7583  0.0899  0.4136
   26SAPC   H9Y 3500   3.517   0.761   7.890  0.6863 -0.1838 -2.7877
   26SAPC  C310 3501   3.356   0.664   7.991  0.5089 -0.5302 -0.4925
   26SAPC  H10X 3502   3.426   0.578   8.005  2.3795  0.8306 -1.1854
   26SAPC  H10Y 3503   3.259   0.614   7.972  1.5987 -3.7741  1.9810
   26SAPC  C311 3504   3.346   0.750   8.123  0.2798  0.2061  0.6304
   26SAPC  H11X 3505   3.283   0.836   8.092  2.7155  2.1244  0.7719
   26SAPC  H11Y 3506   3.447   0.789   8.148 -0.2086  2.6810 -1.0662
   26SAPC  C312 3507   3.289   0.673   8.242  0.6671 -0.0866 -0.2116
   26SAPC  H12X 3508   3.316   0.565   8.241  0.5265 -0.1624  1.5257
   26SAPC  H12Y 3509   3.178   0.680   8.247  0.8122  1.9424  0.8366
   26SAPC  C313 3510   3.345   0.723   8.377  0.5028  0.2040 -0.5150
   26SAPC  H13X 3511   3.454   0.707   8.369  0.6760  1.1295 -0.0256
   26SAPC  H13Y 3512   3.311   0.664   8.465  0.9040 -0.7490 -0.9978
   26SAPC  C314 3513   3.319   0.874   8.400 -0.6307 -0.0070 -0.6553
   26SAPC  H14X 3514   3.322   0.926   8.302  2.0791 -1.3676 -1.3344
   26SAPC  H14Y 3515   3.392   0.915   8.473 -0.0570 -2.3176  0.1123
   26SAPC  C315 3516   3.180   0.891   8.469  0.6333 -0.5090 -0.1397
   26SAPC  H15X 3517   3.183   0.834   8.565  0.8912  0.4075  0.3990
   26SAPC  H15Y 3518   3.098   0.847   8.409  0.5026 -1.6665  0.8487
   26SAPC  C316 3519   3.145   1.036   8.508 -0.1649  0.3401  0.1141
   26SAPC  H16X 3520   3.147   1.079   8.405 -1.4478 -2.3364 -1.0785
   26SAPC  H16Y 3521   3.216   1.087   8.576  0.7842  1.1992 -1.4932
   26SAPC  C317 3522   3.003   1.053   8.560 -1.0197  0.3785  0.5213
   26SAPC  H17X 3523   2.943   0.986   8.495 -1.2557  1.7144 -0.6895
   26SAPC  H17Y 3524   2.964   1.156   8.544  0.4289  0.8758  0.0546
   26SAPC  C318 3525   2.982   1.016   8.706 -0.2729 -0.7030  0.3728
   26SAPC  H18X 3526   3.041   0.924   8.728  0.5692  0.1475  1.7618
   26SAPC  H18Y 3527   2.878   0.993   8.735 -0.1900 -0.0929  1.1835
   26SAPC  H18Z 3528   3.025   1.093   8.773  1.6414 -0.3002 -1.2729
   27SAPC     N 3529   0.883   0.726   6.459 -0.3836  0.5327  0.1559
   27SAPC   C12 3530   0.953   0.608   6.402  0.0413  0.4680 -0.4223
   27SAPC  H12A 3531   1.028   0.644   6.333  1.3506 -0.8705  0.2568
   27SAPC  H12B 3532   0.875   0.555   6.351  0.8026  0.2599 -1.3881
   27SAPC   C13 3533   0.981   0.818   6.525  0.4748 -0.0614 -1.2854
   27SAPC  H13A 3534   1.013   0.777   6.619  1.5106  1.4333 -0.9628
   27SAPC  H13B 3535   1.075   0.828   6.472  1.3169  0.9206  0.3547
   27SAPC  H13C 3536   0.946   0.919   6.545 -0.0266  0.1603 -3.1355
   27SAPC   C14 3537   0.815   0.800   6.346  0.2113 -0.5747 -0.3548
   27SAPC  H14A 3538   0.774   0.897   6.368  2.6617  0.7925 -1.6513
   27SAPC  H14B 3539   0.891   0.831   6.276  0.0452  0.5584 -0.0422
   27SAPC  H14C 3540   0.744   0.745   6.285 -0.5475  0.8432 -0.7882
   27SAPC   C15 3541   0.783   0.678   6.566 -0.4806 -0.1836 -0.4138
   27SAPC  H15A 3542   0.717   0.758   6.598  2.7524  2.6605 -0.5263
   27SAPC  H15B 3543   0.714   0.606   6.525 -0.9336  1.3688 -2.4150
   27SAPC  H15C 3544   0.845   0.648   6.649 -1.4922 -2.0005 -0.2954
   27SAPC   C11 3545   1.013   0.505   6.505  0.7360  0.7173  0.4749
   27SAPC  H11A 3546   1.042   0.420   6.439  2.5886  1.9452 -0.3362
   27SAPC  H11B 3547   0.935   0.461   6.570 -0.4809  0.2441 -1.2646
   27SAPC     P 3548   1.270   0.518   6.522  0.0893 -0.0462 -0.1677
   27SAPC   O13 3549   1.291   0.375   6.523 -0.0369  0.1441  0.4452
   27SAPC   O14 3550   1.280   0.588   6.395  0.5560 -0.0010 -0.4848
   27SAPC   O12 3551   1.121   0.556   6.581  0.1593 -0.4190  0.3170
   27SAPC   O11 3552   1.372   0.593   6.613 -0.1827 -0.1672  0.2939
   27SAPC    C1 3553   1.340   0.624   6.752 -1.1563 -0.2195  0.1115
   27SAPC    HA 3554   1.401   0.712   6.781 -2.0987  0.4582  0.0648
   27SAPC    HB 3555   1.232   0.648   6.767 -1.0470  2.1637 -2.6754
   27SAPC    C2 3556   1.381   0.511   6.842 -0.2642 -1.1179  0.0824
   27SAPC    HS 3557   1.488   0.484   6.829 -0.1786 -0.4536 -0.6613
   27SAPC   O21 3558   1.288   0.402   6.828  0.3801  0.3047 -0.1110
   27SAPC   C21 3559   1.343   0.286   6.846 -0.5786  0.4217 -0.4569
   27SAPC   O22 3560   1.467   0.266   6.849 -0.0504 -0.7611 -0.8455
   27SAPC   C22 3561   1.242   0.178   6.879 -0.6294  0.2289  0.8053
   27SAPC   H2R 3562   1.238   0.100   6.800 -2.7430  0.9254  0.1813
   27SAPC   H2S 3563   1.265   0.116   6.968 -1.0608 -0.0896  0.6993
   27SAPC    C3 3564   1.368   0.563   6.991 -0.2832  0.2551  1.2882
   27SAPC    HX 3565   1.260   0.585   7.003 -1.2079 -2.3175 -1.6892
   27SAPC    HY 3566   1.439   0.647   7.009  1.5541 -1.3471  1.7013
   27SAPC   O31 3567   1.403   0.449   7.073 -0.0070 -0.4413 -0.1323
   27SAPC   C31 3568   1.351   0.452   7.200 -0.3131 -1.1153 -0.6210
   27SAPC   O32 3569   1.306   0.557   7.245 -0.1018  0.5413  0.3943
   27SAPC   C32 3570   1.354   0.307   7.258  0.4811 -0.7744 -0.3660
   27SAPC   H2X 3571   1.407   0.240   7.188 -0.8766 -3.0960  0.7434
   27SAPC   H2Y 3572   1.248   0.274   7.259 -0.2390  1.4097 -1.1020
   27SAPC   C23 3573   1.090   0.229   6.882  0.4426 -0.4873 -0.9118
   27SAPC   H3R 3574   1.020   0.144   6.874 -2.2949  1.6783 -0.4980
   27SAPC   H3S 3575   1.065   0.303   6.803 -0.2481  1.1434  0.7815
   27SAPC   C24 3576   1.061   0.301   7.017 -0.2316 -0.0438 -0.4080
   27SAPC   H4R 3577   1.124   0.392   7.016 -1.0055  0.4835 -1.3550
   27SAPC   H4S 3578   1.097   0.227   7.092  0.9965 -1.8109 -2.6570
   27SAPC   C25 3579   0.918   0.333   7.030  0.5531  0.6241  0.1519
   27SAPC   H5R 3580   0.862   0.343   6.936 -0.8265  2.2404  1.1034
   27SAPC   C26 3581   0.853   0.359   7.144  0.2110 -0.1900  0.8424
   27SAPC   H6R 3582   0.749   0.392   7.134  0.2476 -0.3979 -0.3865
   27SAPC   C27 3583   0.899   0.351   7.282  0.4888 -0.1216 -0.4676
   27SAPC   H7R 3584   0.935   0.251   7.314 -2.1880 -0.5313  1.4438
   27SAPC   H7S 3585   0.801   0.353   7.335  1.0381  1.8596  0.5135
   27SAPC   C28 3586   0.994   0.465   7.325  0.4759 -0.7793  0.2161
   27SAPC   H8R 3587   1.028   0.533   7.245 -2.5095 -1.0255 -1.3072
   27SAPC   C29 3588   1.031   0.485   7.457  0.2497  0.1738  0.5720
   27SAPC   H9R 3589   1.118   0.550   7.476 -0.1698  1.0332 -0.4409
   27SAPC  C210 3590   0.983   0.399   7.577 -0.0129 -0.3807 -0.1439
   27SAPC  H10R 3591   0.977   0.292   7.545 -0.9741  0.5956 -3.3748
   27SAPC  H10S 3592   0.880   0.431   7.603 -0.2314  0.7406 -2.3162
   27SAPC  C211 3593   1.059   0.416   7.706  0.0519  0.8952 -0.5244
   27SAPC  H11R 3594   1.160   0.458   7.701 -0.1175  1.3902  0.0637
   27SAPC  C212 3595   1.016   0.383   7.832 -0.1913 -0.2959  0.5392
   27SAPC  H12R 3596   1.071   0.413   7.922  1.3514 -2.2044  0.2690
   27SAPC  C213 3597   0.887   0.312   7.859 -0.1030  0.6729 -0.3527
   27SAPC  H13R 3598   0.816   0.317   7.774  0.2160 -0.1780 -0.6767
   27SAPC  H13S 3599   0.835   0.367   7.940 -0.6859  0.4427 -0.5699
   27SAPC  C214 3600   0.895   0.169   7.902 -0.1142 -0.2958 -0.0896
   27SAPC  H14R 3601   0.858   0.103   7.821 -0.6498  1.5189 -1.3495
   27SAPC  C215 3602   0.938   0.119   8.018  0.7472  0.7149  0.0467
   27SAPC  H15R 3603   0.947   0.010   8.030 -2.2065  0.3447 -0.7378
   27SAPC  C216 3604   1.006   0.184   8.146 -0.1854  0.1071 -0.2989
   27SAPC  H16R 3605   1.002   0.295   8.140  3.7440  0.2013 -2.8955
   27SAPC  H16S 3606   1.110   0.145   8.150 -0.3576 -0.2336  0.9396
   27SAPC  C217 3607   0.931   0.140   8.274  0.8447  0.0658 -0.0968
   27SAPC  H17R 3608   0.999   0.164   8.358 -1.2848  1.3341  1.3043
   27SAPC  H17S 3609   0.938   0.029   8.267 -0.7691 -0.0190 -0.3960
   27SAPC  C218 3610   0.796   0.206   8.295  0.2402  0.1850  0.4521
   27SAPC  H18R 3611   0.747   0.149   8.377 -2.4898  2.7123  0.6887
   27SAPC  H18S 3612   0.735   0.210   8.203  0.9137  2.8015  0.0615
   27SAPC  C219 3613   0.802   0.348   8.346  0.0093  0.5437  0.0051
   27SAPC  H19R 3614   0.853   0.396   8.260 -0.2943 -0.7960 -0.9313
   27SAPC  H19S 3615   0.883   0.350   8.423  1.4594 -0.5984 -1.4678
   27SAPC  C220 3616   0.679   0.415   8.401 -0.0980  0.2323  0.0827
   27SAPC  H20R 3617   0.593   0.408   8.330 -0.0795 -1.2751  0.1983
   27SAPC  H20S 3618   0.698   0.523   8.417 -1.3539  0.3443  0.8849
   27SAPC  H20T 3619   0.651   0.375   8.500  2.8570 -1.6489  0.2091
   27SAPC   C33 3620   1.413   0.307   7.402 -0.1929  0.9350  0.1734
   27SAPC   H3X 3621   1.353   0.374   7.468 -2.3408 -1.7022  1.0134
   27SAPC   H3Y 3622   1.515   0.350   7.408  1.2770 -2.5532  1.8809
   27SAPC   C34 3623   1.425   0.163   7.459 -0.1915 -0.4750  0.1509
   27SAPC   H4X 3624   1.513   0.115   7.411 -0.3186 -2.2095  1.5654
   27SAPC   H4Y 3625   1.332   0.116   7.422  0.5838 -4.5486  3.0123
   27SAPC   C35 3626   1.426   0.160   7.611 -0.0536 -0.0381  0.1549
   27SAPC   H5X 3627   1.441   0.054   7.641 -0.2524 -0.3789 -0.9337
   27SAPC   H5Y 3628   1.324   0.194   7.641 -0.3417 -1.6486  1.0463
   27SAPC   C36 3629   1.530   0.253   7.676 -0.1846  0.2048 -0.5028
   27SAPC   H6X 3630   1.528   0.351   7.623  1.1799  0.5295  0.0335
   27SAPC   H6Y 3631   1.634   0.214   7.668  0.4041  1.0601  2.6812
   27SAPC   C37 3632   1.496   0.273   7.826 -0.2644 -0.8538 -0.2565
   27SAPC   H7X 3633   1.400   0.329   7.836 -0.9890 -1.6618 -2.2378
   27SAPC   H7Y 3634   1.573   0.342   7.864 -1.4870  0.0221  0.6797
   27SAPC   C38 3635   1.500   0.141   7.906  0.5707 -0.2173  0.1646
   27SAPC   H8X 3636   1.583   0.071   7.881  1.0772 -0.0686  1.4021
   27SAPC   H8Y 3637   1.408   0.081   7.887  0.9589 -0.2097 -1.9397
   27SAPC   C39 3638   1.501   0.165   8.059 -0.0607  0.2091 -0.0802
   27SAPC   H9X 3639   1.600   0.205   8.090 -0.3236  0.7125  0.1192
   27SAPC   H9Y 3640   1.487   0.063   8.100  2.7704 -0.1672  0.0161
   27SAPC  C310 3641   1.383   0.254   8.094 -0.3332 -0.0407 -0.3667
   27SAPC  H10X 3642   1.292   0.239   8.032  1.5849 -2.1906 -2.8048
   27SAPC  H10Y 3643   1.410   0.359   8.071  1.3408 -0.3129  0.2172
   27SAPC  C311 3644   1.343   0.245   8.242  0.1655 -0.3010 -0.1994
   27SAPC  H11X 3645   1.323   0.137   8.261  1.3447 -0.3150  1.0390
   27SAPC  H11Y 3646   1.246   0.298   8.250  1.1321  1.8463 -2.3064
   27SAPC  C312 3647   1.438   0.301   8.344 -0.2787 -0.0098 -0.6059
   27SAPC  H12X 3648   1.440   0.411   8.334 -0.9474 -0.0611 -1.3799
   27SAPC  H12Y 3649   1.542   0.276   8.315 -0.4242 -0.3422 -0.8596
   27SAPC  C313 3650   1.401   0.268   8.486 -0.3130 -0.2429 -0.0006
   27SAPC  H13X 3651   1.299   0.301   8.516  0.1180  1.2010 -0.0756
   27SAPC  H13Y 3652   1.472   0.317   8.556  2.2690 -3.3097 -0.3533
   27SAPC  C314 3653   1.409   0.122   8.516 -1.0594  0.5123  0.6981
   27SAPC  H14X 3654   1.515   0.093   8.500 -1.1214  0.9615 -0.6122
   27SAPC  H14Y 3655   1.348   0.065   8.443 -2.1263  1.8824  0.5055
   27SAPC  C315 3656   1.356   0.097   8.657  0.5155 -0.3332  0.3165
   27SAPC  H15X 3657   1.246   0.108   8.647  0.7885  0.8608 -1.5539
   27SAPC  H15Y 3658   1.399   0.161   8.736  1.0860 -0.3486  0.0194
   27SAPC  C316 3659   1.372  -0.050   8.704  0.1836  0.7484 -0.2103
   27SAPC  H16X 3660   1.479  -0.075   8.686  0.3243 -1.4542  3.2017
   27SAPC  H16Y 3661   1.307  -0.109   8.635 -1.0826  1.7194  0.1233
   27SAPC  C317 3662   1.340  -0.083   8.850  0.1167 -0.7095  0.7675
   27SAPC  H17X 3663   1.355   0.011   8.907 -1.8510 -0.1014  0.3319
   27SAPC  H17Y 3664   1.407  -0.163   8.887  0.1782 -0.2419  1.6667
   27SAPC  C318 3665   1.199  -0.125   8.869  0.5591  0.6631  0.4047
   27SAPC  H18X 3666   1.128  -0.044   8.843  0.1991  0.6022  1.1921
   27SAPC  H18Y 3667   1.180  -0.149   8.976 -1.0700  2.5659  0.5693
   27SAPC  H18Z 3668   1.186  -0.220   8.813  0.3752  0.5086  0.7093
   28SAPC     N 3669   0.367   4.906   6.552  0.1245 -0.6466 -0.0049
   28SAPC   C12 3670   0.266   4.906   6.449  0.7395 -0.7835  0.1535
   28SAPC  H12A 3671   0.257   4.818   6.387  1.1595 -0.0957 -0.8963
   28SAPC  H12B 3672   0.282   4.986   6.378 -3.2625 -1.2051 -1.3687
   28SAPC   C13 3673   0.363   5.037   6.626 -0.4347  0.7414 -0.3794
   28SAPC  H13A 3674   0.266   5.084   6.611 -1.7295 -2.0845 -1.1838
   28SAPC  H13B 3675   0.381   5.021   6.731 -0.6255  0.0315 -0.4497
   28SAPC  H13C 3676   0.436   5.104   6.583 -1.2661  2.4648  0.8112
   28SAPC   C14 3677   0.339   4.805   6.659  0.4761 -0.8378  0.4539
   28SAPC  H14A 3678   0.415   4.814   6.735  2.7710  1.9870 -2.0300
   28SAPC  H14B 3679   0.246   4.814   6.713 -0.6284  0.0866 -1.5502
   28SAPC  H14C 3680   0.335   4.702   6.627  0.3895 -0.9736  0.8916
   28SAPC   C15 3681   0.500   4.874   6.493 -0.4119 -0.2932  0.1393
   28SAPC  H15A 3682   0.507   4.783   6.435  2.1702 -0.1081  0.1085
   28SAPC  H15B 3683   0.536   4.963   6.443 -1.5259  0.3047  0.3908
   28SAPC  H15C 3684   0.563   4.863   6.580  0.0410  1.9514  0.1284
   28SAPC   C11 3685   0.122   4.921   6.491  1.2475 -0.3697  0.4335
   28SAPC  H11A 3686   0.116   5.013   6.554 -2.0200  0.0967 -0.4552
   28SAPC  H11B 3687   0.083   4.839   6.554 -0.1057  1.0467  1.4973
   28SAPC     P 3688  -0.010   4.842   6.284 -0.2274 -0.3643 -0.3050
   28SAPC   O13 3689  -0.161   4.846   6.268 -0.3133 -0.1035  0.0248
   28SAPC   O14 3690   0.074   4.852   6.167 -0.1226 -0.2207  0.5302
   28SAPC   O12 3691   0.032   4.947   6.391 -0.0808  0.0266  0.3395
   28SAPC   O11 3692   0.031   4.713   6.367  0.4130 -0.1129 -0.6635
   28SAPC    C1 3693  -0.036   4.584   6.360  0.1150 -0.7227 -0.3982
   28SAPC    HA 3694  -0.138   4.584   6.316  0.2816  1.4935 -0.8320
   28SAPC    HB 3695   0.024   4.512   6.300 -0.0400 -0.9943 -0.2237
   28SAPC    C2 3696  -0.036   4.520   6.502  0.1904  0.3038 -0.1831
   28SAPC    HS 3697  -0.090   4.422   6.502  1.1018 -0.2108 -1.5654
   28SAPC   O21 3698  -0.090   4.614   6.594 -0.0089 -0.7190 -0.0702
   28SAPC   C21 3699  -0.222   4.623   6.589  0.9501 -0.2484  0.4681
   28SAPC   O22 3700  -0.296   4.575   6.512  0.6480 -0.0888 -0.0056
   28SAPC   C22 3701  -0.279   4.707   6.707 -0.4155 -0.5042 -0.2322
   28SAPC   H2R 3702  -0.217   4.799   6.708 -1.1591  0.0157 -0.9352
   28SAPC   H2S 3703  -0.373   4.751   6.666  0.8393  3.1908  0.7081
   28SAPC    C3 3704   0.113   4.487   6.539  0.4038 -0.0720  0.9278
   28SAPC    HX 3705   0.165   4.583   6.556 -2.7888  1.8105  0.4432
   28SAPC    HY 3706   0.146   4.436   6.446  2.9185 -0.0749  1.7710
   28SAPC   O31 3707   0.129   4.395   6.648 -0.6997  0.1737  0.8217
   28SAPC   C31 3708   0.195   4.433   6.749 -0.9685  0.1659 -0.3894
   28SAPC   O32 3709   0.287   4.514   6.747  0.8784 -0.2508 -0.6437
   28SAPC   C32 3710   0.171   4.332   6.863  0.1017  1.1488 -0.2208
   28SAPC   H2X 3711   0.128   4.236   6.829 -3.6787  2.3767  0.8846
   28SAPC   H2Y 3712   0.079   4.373   6.910  1.2826  1.7486  1.6386
   28SAPC   C23 3713  -0.294   4.627   6.837  0.1805  0.2290 -0.1834
   28SAPC   H3R 3714  -0.387   4.568   6.818  0.3616  0.1281 -0.7640
   28SAPC   H3S 3715  -0.323   4.692   6.922 -0.2233  1.0430 -0.9265
   28SAPC   C24 3716  -0.175   4.545   6.889 -0.2024 -0.0995  0.1238
   28SAPC   H4R 3717  -0.217   4.478   6.967  0.1228 -0.0078  0.3784
   28SAPC   H4S 3718  -0.137   4.476   6.811  0.3984  0.1401  0.2039
   28SAPC   C25 3719  -0.060   4.639   6.933  0.2262  0.5033 -0.1802
   28SAPC   H5R 3720  -0.033   4.715   6.858 -0.0592  3.0886  2.2851
   28SAPC   C26 3721   0.002   4.637   7.052 -0.1127  0.0367  0.8714
   28SAPC   H6R 3722   0.066   4.725   7.074 -0.0994  0.1694  0.3318
   28SAPC   C27 3723  -0.018   4.548   7.169 -0.5478  0.7180 -0.2168
   28SAPC   H7R 3724   0.075   4.542   7.228 -0.1831 -1.2328 -0.9201
   28SAPC   H7S 3725  -0.035   4.442   7.140  0.4292  0.4755  0.1075
   28SAPC   C28 3726  -0.127   4.591   7.268  0.2853 -0.1493  1.2815
   28SAPC   H8R 3727  -0.195   4.664   7.222  0.7061 -1.4215 -1.4201
   28SAPC   C29 3728  -0.144   4.549   7.395 -0.1526 -0.9465 -0.7760
   28SAPC   H9R 3729  -0.224   4.602   7.448  1.4088  0.8066 -0.1358
   28SAPC  C210 3730  -0.051   4.458   7.472  0.9392  0.0974  0.0884
   28SAPC  H10R 3731  -0.004   4.510   7.558 -1.0152 -2.7157  2.9505
   28SAPC  H10S 3732   0.039   4.429   7.413 -0.0805 -1.2061 -0.8413
   28SAPC  C211 3733  -0.114   4.329   7.504 -0.4216  0.1607 -0.3879
   28SAPC  H11R 3734  -0.121   4.320   7.613  0.6895 -2.2298 -0.4911
   28SAPC  C212 3735  -0.166   4.231   7.430  0.0361  0.1687  0.7895
   28SAPC  H12R 3736  -0.194   4.137   7.479  1.5237  0.3114  1.9350
   28SAPC  C213 3737  -0.173   4.223   7.279  0.0058  0.1755  0.1494
   28SAPC  H13R 3738  -0.157   4.116   7.250 -2.6466  0.0001 -0.8011
   28SAPC  H13S 3739  -0.086   4.274   7.233  1.1492 -0.1218  1.9280
   28SAPC  C214 3740  -0.296   4.283   7.218 -0.4764  0.4147  0.1918
   28SAPC  H14R 3741  -0.339   4.373   7.264 -0.6307  1.1730 -1.3844
   28SAPC  C215 3742  -0.360   4.238   7.109 -0.0901  0.2155 -0.3545
   28SAPC  H15R 3743  -0.439   4.302   7.068 -2.0450 -1.1997  1.0671
   28SAPC  C216 3744  -0.325   4.106   7.039  0.6515 -0.1160  0.8590
   28SAPC  H16R 3745  -0.368   4.020   7.094  0.8246 -0.1521  0.9367
   28SAPC  H16S 3746  -0.215   4.101   7.029  0.6710  0.1264  0.9231
   28SAPC  C217 3747  -0.368   4.106   6.891 -0.2285  0.4447 -0.5356
   28SAPC  H17R 3748  -0.477   4.124   6.892 -0.9276 -3.3754  2.1268
   28SAPC  H17S 3749  -0.363   4.003   6.849 -1.3521  1.2751 -2.7922
   28SAPC  C218 3750  -0.287   4.203   6.806  0.1303  0.6845 -0.5344
   28SAPC  H18R 3751  -0.180   4.182   6.826  0.2946  1.6282 -0.3991
   28SAPC  H18S 3752  -0.318   4.307   6.829 -2.1953  0.0082 -0.4631
   28SAPC  C219 3753  -0.304   4.180   6.655  0.4435 -0.6636  0.4036
   28SAPC  H19R 3754  -0.270   4.271   6.600  0.7844 -0.0275  1.6406
   28SAPC  H19S 3755  -0.411   4.173   6.627  0.2395  0.7473  0.8028
   28SAPC  C220 3756  -0.239   4.059   6.590 -0.4702 -0.0523  0.5693
   28SAPC  H20R 3757  -0.293   3.965   6.614 -0.1778  0.0124  1.4951
   28SAPC  H20S 3758  -0.135   4.055   6.630  0.2169  0.0059 -1.1729
   28SAPC  H20T 3759  -0.239   4.082   6.482 -0.7885  0.0973  0.6005
   28SAPC   C33 3760   0.272   4.340   6.984  0.0201 -0.1671 -0.1128
   28SAPC   H3X 3761   0.261   4.446   7.017 -0.3646 -0.8525  2.0153
   28SAPC   H3Y 3762   0.377   4.325   6.952 -0.8178 -1.7714 -2.1874
   28SAPC   C34 3763   0.205   4.262   7.094 -0.3078  0.4375  0.1196
   28SAPC   H4X 3764   0.198   4.154   7.069 -0.0815  0.2591  0.8198
   28SAPC   H4Y 3765   0.101   4.301   7.097  0.3626  2.5576 -2.2041
   28SAPC   C35 3766   0.278   4.278   7.230 -0.3202 -0.2575 -0.8478
   28SAPC   H5X 3767   0.255   4.386   7.247 -0.5457 -0.2917 -0.9268
   28SAPC   H5Y 3768   0.385   4.263   7.206 -0.6001 -0.7702 -1.8066
   28SAPC   C36 3769   0.238   4.191   7.345 -0.5051 -0.6818 -0.1842
   28SAPC   H6X 3770   0.254   4.085   7.318  1.6904 -0.1348 -1.1228
   28SAPC   H6Y 3771   0.129   4.216   7.350 -0.5176 -0.8471  0.5076
   28SAPC   C37 3772   0.317   4.208   7.468 -1.0947 -0.8974 -0.2779
   28SAPC   H7X 3773   0.355   4.311   7.485 -1.6887 -0.9403  1.3701
   28SAPC   H7Y 3774   0.404   4.139   7.458  0.6891  1.3854 -1.0569
   28SAPC   C38 3775   0.241   4.137   7.581  0.6540 -0.1857 -0.0648
   28SAPC   H8X 3776   0.211   4.036   7.544  0.9604 -0.2518 -0.1361
   28SAPC   H8Y 3777   0.146   4.192   7.593  0.9288 -0.2307  2.5735
   28SAPC   C39 3778   0.318   4.116   7.711 -0.0232 -0.1665  0.5173
   28SAPC   H9X 3779   0.348   4.215   7.752  1.4478 -0.5004  0.2825
   28SAPC   H9Y 3780   0.408   4.053   7.693  0.6296  0.9587 -0.2324
   28SAPC  C310 3781   0.226   4.051   7.815 -0.1193 -0.6425 -0.9083
   28SAPC  H10X 3782   0.191   3.951   7.779  0.3042 -0.9320 -0.5327
   28SAPC  H10Y 3783   0.132   4.107   7.830  0.8600  0.3557  1.8287
   28SAPC  C311 3784   0.300   4.030   7.946  0.5020  0.3283 -0.0614
   28SAPC  H11X 3785   0.331   4.132   7.978 -1.0751  0.9759 -0.5405
   28SAPC  H11Y 3786   0.391   3.970   7.926 -0.3945 -1.3025  0.6535
   28SAPC  C312 3787   0.222   3.975   8.070 -0.5331  0.5388 -0.7733
   28SAPC  H12X 3788   0.203   3.869   8.045 -0.1259  0.3811 -0.4071
   28SAPC  H12Y 3789   0.124   4.026   8.070  0.5760  2.8205  1.4597
   28SAPC  C313 3790   0.308   3.985   8.197  0.5695  0.2426  0.0723
   28SAPC  H13X 3791   0.305   4.088   8.239 -1.1759  1.0561 -1.9837
   28SAPC  H13Y 3792   0.414   3.963   8.172  0.6948  0.0480  0.7753
   28SAPC  C314 3793   0.260   3.887   8.307 -0.2542  0.5269 -0.0105
   28SAPC  H14X 3794   0.333   3.880   8.391  0.3720 -1.5989 -0.6967
   28SAPC  H14Y 3795   0.243   3.785   8.266 -0.3093  0.3977  0.3369
   28SAPC  C315 3796   0.122   3.919   8.369 -0.4053  0.1926  0.3057
   28SAPC  H15X 3797   0.038   3.888   8.303  0.3943 -1.1923 -0.0860
   28SAPC  H15Y 3798   0.110   4.029   8.369  1.1500  0.3840 -1.4299
   28SAPC  C316 3799   0.093   3.864   8.513  0.6573 -0.1002 -0.0523
   28SAPC  H16X 3800   0.154   3.929   8.579 -2.4084  1.3368  1.5013
   28SAPC  H16Y 3801   0.131   3.760   8.523 -2.8073 -1.3253  1.4106
   28SAPC  C317 3802  -0.056   3.871   8.549 -0.0573  0.0412  0.4690
   28SAPC  H17X 3803  -0.114   3.809   8.478 -1.1877  0.2581  1.1952
   28SAPC  H17Y 3804  -0.081   3.978   8.530  0.6138  0.2098  0.5243
   28SAPC  C318 3805  -0.077   3.838   8.703  0.5277 -0.1959 -0.0134
   28SAPC  H18X 3806  -0.021   3.897   8.778  1.0612  0.8377 -1.2009
   28SAPC  H18Y 3807  -0.059   3.732   8.730  0.4611  0.1679  1.5183
   28SAPC  H18Z 3808  -0.186   3.851   8.723  0.6602 -1.0559  1.3045
   29SAPC     N 3809   2.644   1.170   6.549 -0.2509 -0.6557  0.0019
   29SAPC   C12 3810   2.620   1.037   6.480 -0.3975 -0.3283 -0.0818
   29SAPC  H12A 3811   2.624   1.057   6.374  3.1181 -2.6029 -0.4596
   29SAPC  H12B 3812   2.518   1.008   6.504 -0.4305  0.8329  1.2029
   29SAPC   C13 3813   2.783   1.220   6.519  0.6375 -0.5179  0.7504
   29SAPC  H13A 3814   2.795   1.224   6.412  2.6320  4.6958  1.0469
   29SAPC  H13B 3815   2.796   1.324   6.546 -1.1551 -0.8025  2.8241
   29SAPC  H13C 3816   2.861   1.158   6.562  1.6286  0.3643  0.2576
   29SAPC   C14 3817   2.543   1.268   6.498  0.1939  0.6393  0.0198
   29SAPC  H14A 3818   2.441   1.246   6.525 -0.5711  4.1404  0.2181
   29SAPC  H14B 3819   2.560   1.361   6.550  1.6103  0.3219  0.1446
   29SAPC  H14C 3820   2.566   1.292   6.395  3.1871 -1.5741  0.0942
   29SAPC   C15 3821   2.638   1.148   6.700  0.0569  0.1159  0.4513
   29SAPC  H15A 3822   2.538   1.127   6.734 -0.1264 -0.7299 -0.5940
   29SAPC  H15B 3823   2.709   1.073   6.731  1.0523  0.3722 -1.1472
   29SAPC  H15C 3824   2.674   1.233   6.757 -1.0138  0.1411  1.1051
   29SAPC   C11 3825   2.716   0.921   6.501 -0.0342 -0.1849 -0.0256
   29SAPC  H11A 3826   2.675   0.833   6.447 -1.3627 -0.7153  1.8277
   29SAPC  H11B 3827   2.711   0.895   6.609  2.2594  2.6145  0.8105
   29SAPC     P 3828   2.926   0.898   6.336 -0.1492  0.2631  0.2765
   29SAPC   O13 3829   2.882   0.761   6.300  0.0508 -0.2545  0.5681
   29SAPC   O14 3830   2.918   1.000   6.232 -0.0447 -0.3111  0.1480
   29SAPC   O12 3831   2.857   0.938   6.471 -0.5088 -0.0579  0.6404
   29SAPC   O11 3832   3.080   0.897   6.382 -0.0365  0.5398  0.0386
   29SAPC    C1 3833   3.129   0.999   6.470 -0.2421 -0.5488  0.7999
   29SAPC    HA 3834   3.239   1.001   6.461 -0.2479  0.3733  0.9206
   29SAPC    HB 3835   3.093   1.103   6.454  0.9781 -0.1469  0.6158
   29SAPC    C2 3836   3.104   0.973   6.626 -0.6371 -0.0392  0.1527
   29SAPC    HS 3837   2.995   0.987   6.643 -0.7238  0.0857 -0.5033
   29SAPC   O21 3838   3.188   1.066   6.703  0.1994  0.3237  0.6413
   29SAPC   C21 3839   3.113   1.160   6.768 -0.1106 -0.5854 -0.5322
   29SAPC   O22 3840   2.991   1.159   6.772  0.4697 -0.2478  0.0101
   29SAPC   C22 3841   3.201   1.267   6.822  0.3171  0.0647 -0.5477
   29SAPC   H2R 3842   3.309   1.243   6.806  0.6298  1.9569 -1.4920
   29SAPC   H2S 3843   3.176   1.363   6.772  1.9180  0.4628 -0.6337
   29SAPC    C3 3844   3.133   0.827   6.677  1.0169  0.2385 -0.0837
   29SAPC    HX 3845   3.241   0.801   6.672  0.7875 -0.6737 -0.4107
   29SAPC    HY 3846   3.078   0.755   6.613  1.4418  0.0089 -0.1865
   29SAPC   O31 3847   3.096   0.821   6.815  0.4786  0.2939 -0.4751
   29SAPC   C31 3848   2.971   0.788   6.841  0.2397 -0.5672  0.2748
   29SAPC   O32 3849   2.880   0.777   6.760 -0.3805 -0.1738 -0.7694
   29SAPC   C32 3850   2.953   0.778   6.991  0.4081  0.4056 -0.2857
   29SAPC   H2X 3851   2.917   0.877   7.026  2.8154  1.0097  0.5702
   29SAPC   H2Y 3852   3.047   0.744   7.040  0.5450 -0.0360 -0.8540
   29SAPC   C23 3853   3.186   1.286   6.974 -0.3659  0.3239  0.0834
   29SAPC   H3R 3854   3.079   1.281   7.003 -0.4450 -2.6094 -0.5546
   29SAPC   H3S 3855   3.216   1.385   7.014  0.5343  0.5912 -1.2580
   29SAPC   C24 3856   3.268   1.185   7.062 -0.1772  0.4207 -0.0792
   29SAPC   H4R 3857   3.272   1.239   7.159 -2.4620 -3.4770  2.3116
   29SAPC   H4S 3858   3.368   1.172   7.016  0.4495  0.6297  1.2050
   29SAPC   C25 3859   3.195   1.051   7.076  0.8047 -0.3720  0.1364
   29SAPC   H5R 3860   3.170   1.002   6.980  0.9339 -0.0853 -0.0453
   29SAPC   C26 3861   3.184   0.992   7.192  0.4525 -0.6332 -0.0961
   29SAPC   H6R 3862   3.149   0.888   7.198  0.6003 -0.6521  0.5148
   29SAPC   C27 3863   3.228   1.045   7.332 -0.1372  0.0677 -0.4142
   29SAPC   H7R 3864   3.332   1.085   7.329  0.6747 -1.8262  1.0542
   29SAPC   H7S 3865   3.251   0.954   7.391  0.4275  0.1843 -0.4463
   29SAPC   C28 3866   3.139   1.145   7.411 -0.3409  0.0202 -0.7592
   29SAPC   H8R 3867   3.099   1.236   7.365  1.8432  0.7611 -1.1995
   29SAPC   C29 3868   3.117   1.132   7.540 -0.5234 -0.6360 -0.3308
   29SAPC   H9R 3869   3.050   1.209   7.581 -3.2944 -1.3951 -3.1797
   29SAPC  C210 3870   3.164   1.026   7.635  1.0230 -0.4516 -0.6462
   29SAPC  H10R 3871   3.256   0.998   7.580  1.0260  0.0463 -0.8996
   29SAPC  H10S 3872   3.093   0.941   7.638  2.6990 -1.8215  1.2314
   29SAPC  C211 3873   3.184   1.053   7.785  0.4683  0.6232 -1.1978
   29SAPC  H11R 3874   3.286   1.080   7.817  0.9000 -1.0482 -1.1179
   29SAPC  C212 3875   3.089   1.058   7.874 -0.6230 -0.1004  0.1329
   29SAPC  H12R 3876   3.120   1.058   7.980  0.4765 -0.4836 -0.1949
   29SAPC  C213 3877   2.943   1.029   7.861  0.6065  0.0099  0.1793
   29SAPC  H13R 3878   2.931   0.929   7.812 -1.3876  1.1978 -1.8458
   29SAPC  H13S 3879   2.887   1.088   7.786  1.0079  0.5137  0.2759
   29SAPC  C214 3880   2.874   1.027   7.992  0.3654  0.0809 -0.2506
   29SAPC  H14R 3881   2.833   0.926   8.010  0.5633 -0.2564 -1.6810
   29SAPC  C215 3882   2.834   1.134   8.056 -0.9482  0.5999 -0.1378
   29SAPC  H15R 3883   2.783   1.121   8.153 -0.2125  0.9371  0.2905
   29SAPC  C216 3884   2.859   1.272   8.012  0.7138  0.5104 -0.1345
   29SAPC  H16R 3885   2.875   1.285   7.903  3.2544  0.6866  0.2307
   29SAPC  H16S 3886   2.958   1.306   8.050  0.3626  0.3993  0.9010
   29SAPC  C217 3887   2.750   1.376   8.058  0.4441 -0.0933  0.7650
   29SAPC  H17R 3888   2.660   1.357   7.996 -1.2740  0.7366  2.9400
   29SAPC  H17S 3889   2.788   1.476   8.031 -0.6863 -0.1595 -1.1253
   29SAPC  C218 3890   2.715   1.378   8.214 -0.1725  0.3545  0.4226
   29SAPC  H18R 3891   2.687   1.276   8.247  1.4757 -0.8128 -1.6899
   29SAPC  H18S 3892   2.626   1.444   8.209  1.3700  2.5107  0.6966
   29SAPC  C219 3893   2.836   1.446   8.291  0.5583  0.0452 -0.0100
   29SAPC  H19R 3894   2.862   1.543   8.244 -0.9907  1.4787  1.9698
   29SAPC  H19S 3895   2.930   1.388   8.286 -0.4846 -1.6596 -0.0573
   29SAPC  C220 3896   2.800   1.469   8.437 -0.4961 -0.5130 -0.2931
   29SAPC  H20R 3897   2.709   1.533   8.437  0.9304  1.6141  1.7490
   29SAPC  H20S 3898   2.882   1.522   8.490 -0.1887 -0.2142 -1.0430
   29SAPC  H20T 3899   2.777   1.376   8.492  1.0261 -1.6887 -1.5836
   29SAPC   C33 3900   2.847   0.670   7.036  0.3981  0.3725 -0.2876
   29SAPC   H3X 3901   2.897   0.576   7.003  1.7223  0.1908  2.0835
   29SAPC   H3Y 3902   2.758   0.688   6.972 -1.0427 -1.7146  1.0804
   29SAPC   C34 3903   2.799   0.676   7.187  0.1430 -0.1444 -0.1742
   29SAPC   H4X 3904   2.733   0.590   7.209  1.6097 -1.0066  0.8952
   29SAPC   H4Y 3905   2.739   0.768   7.206 -2.2258 -1.7216  0.1897
   29SAPC   C35 3906   2.916   0.668   7.282 -0.4169 -0.3054 -0.0992
   29SAPC   H5X 3907   2.972   0.764   7.291 -0.2395 -0.1706 -2.4714
   29SAPC   H5Y 3908   2.995   0.600   7.244 -0.2931 -0.1531 -0.1169
   29SAPC   C36 3909   2.870   0.633   7.425 -0.2243 -0.4836 -0.0606
   29SAPC   H6X 3910   2.817   0.538   7.448 -0.1621 -0.4840  0.0813
   29SAPC   H6Y 3911   2.791   0.709   7.448 -1.7761 -1.1084 -3.0649
   29SAPC   C37 3912   2.980   0.651   7.529 -0.4874 -0.7150  0.1116
   29SAPC   H7X 3913   3.047   0.738   7.512 -0.0846 -1.4051 -1.9253
   29SAPC   H7Y 3914   3.037   0.556   7.542  2.5275  1.1929  1.4815
   29SAPC   C38 3915   2.922   0.682   7.661 -0.0834 -0.4378 -0.1036
   29SAPC   H8X 3916   2.864   0.775   7.644  0.5460  0.3339  1.8123
   29SAPC   H8Y 3917   3.004   0.699   7.735 -1.4411 -0.0832  1.3571
   29SAPC   C39 3918   2.821   0.584   7.709 -0.5413  0.6693 -0.5711
   29SAPC   H9X 3919   2.872   0.487   7.726  0.6714  1.5925  1.2179
   29SAPC   H9Y 3920   2.737   0.588   7.637  0.4339  1.9517 -1.6583
   29SAPC  C310 3921   2.749   0.620   7.842 -0.7646  0.4382 -0.1811
   29SAPC  H10X 3922   2.658   0.558   7.855 -1.2449  0.8675 -1.4773
   29SAPC  H10Y 3923   2.742   0.730   7.848  0.6438  0.5970 -1.2658
   29SAPC  C311 3924   2.840   0.580   7.963 -0.6172 -0.7274  0.7622
   29SAPC  H11X 3925   2.943   0.616   7.940  0.0166 -2.7297  0.3940
   29SAPC  H11Y 3926   2.848   0.470   7.977  3.1662 -0.6667 -0.5365
   29SAPC  C312 3927   2.798   0.645   8.096  0.1134  0.3154 -0.8071
   29SAPC  H12X 3928   2.725   0.724   8.065 -0.8293  0.2468  1.1818
   29SAPC  H12Y 3929   2.887   0.696   8.138  0.7122 -0.4088 -1.1844
   29SAPC  C313 3930   2.732   0.553   8.195  1.2193  0.0861  0.8443
   29SAPC  H13X 3931   2.798   0.464   8.198  1.2155 -0.0014 -1.1421
   29SAPC  H13Y 3932   2.636   0.512   8.156  2.0096 -2.9263  2.0155
   29SAPC  C314 3933   2.708   0.613   8.336 -0.4947  0.4005  0.2413
   29SAPC  H14X 3934   2.626   0.688   8.326 -0.3177  0.3038 -2.2888
   29SAPC  H14Y 3935   2.810   0.648   8.365  0.2570  0.6163 -2.5576
   29SAPC  C315 3936   2.655   0.512   8.437  0.5656  0.5715 -0.5751
   29SAPC  H15X 3937   2.709   0.415   8.432 -1.5389 -0.7227  0.9440
   29SAPC  H15Y 3938   2.552   0.480   8.410  0.7271 -1.2658  0.8397
   29SAPC  C316 3939   2.645   0.552   8.580  0.3650  0.0257  0.1350
   29SAPC  H16X 3940   2.740   0.583   8.628 -0.1615  1.1731  0.4590
   29SAPC  H16Y 3941   2.605   0.466   8.638  1.9592 -0.7580  0.0935
   29SAPC  C317 3942   2.555   0.673   8.608  0.5974  1.2268 -0.5564
   29SAPC  H17X 3943   2.455   0.657   8.562 -0.0506 -2.2476  1.8609
   29SAPC  H17Y 3944   2.603   0.766   8.571 -0.4505  1.7076 -0.7117
   29SAPC  C318 3945   2.522   0.683   8.759  0.4379 -0.1272  0.2143
   29SAPC  H18X 3946   2.461   0.596   8.791  0.3992  0.0506  0.6255
   29SAPC  H18Y 3947   2.465   0.777   8.777  0.5688 -0.2308  1.2264
   29SAPC  H18Z 3948   2.611   0.701   8.822  0.6826  1.9829 -0.6781
   30SAPC     N 3949   4.101   1.508   5.905  0.3380 -0.0421  0.7029
   30SAPC   C12 3950   4.095   1.493   6.059 -0.1051  0.5540  1.2234
   30SAPC  H12A 3951   4.015   1.424   6.081 -0.8643  0.1391 -2.4114
   30SAPC  H12B 3952   4.075   1.591   6.100  1.1264  2.2623 -2.0836
   30SAPC   C13 3953   4.159   1.390   5.839 -0.1330  0.5333 -0.1638
   30SAPC  H13A 3954   4.154   1.404   5.732 -3.1142  2.4575  0.1582
   30SAPC  H13B 3955   4.260   1.364   5.868 -1.4316 -5.3369 -0.2065
   30SAPC  H13C 3956   4.103   1.299   5.854  0.3438  0.2103 -0.3429
   30SAPC   C14 3957   3.959   1.522   5.851 -0.2060 -0.4462  0.4314
   30SAPC  H14A 3958   3.902   1.435   5.882  1.2090 -0.5424  2.9683
   30SAPC  H14B 3959   3.903   1.600   5.901  1.1298 -0.5357  2.1510
   30SAPC  H14C 3960   3.960   1.527   5.744 -4.5838  1.9128  0.4147
   30SAPC   C15 3961   4.185   1.622   5.860  0.3824  0.6158 -0.9571
   30SAPC  H15A 3962   4.199   1.619   5.753 -2.5214  1.6649 -1.4133
   30SAPC  H15B 3963   4.136   1.717   5.875  0.1486  0.5751 -1.4445
   30SAPC  H15C 3964   4.276   1.612   5.917 -1.4016  4.2378  2.8620
   30SAPC   C11 3965   4.229   1.452   6.122 -0.6868  0.3522  0.0537
   30SAPC  H11A 3966   4.251   1.346   6.095  3.4543  0.5942  2.0070
   30SAPC  H11B 3967   4.221   1.456   6.233 -0.9087  0.2014  0.0419
   30SAPC     P 3968   4.486   1.479   6.049  0.0238  0.3653  0.3086
   30SAPC   O13 3969   4.483   1.359   5.962  0.8700 -0.8264 -1.0690
   30SAPC   O14 3970   4.565   1.593   6.003 -0.7452 -0.0319  0.0172
   30SAPC   O12 3971   4.337   1.538   6.082  0.0941 -0.0572  0.1828
   30SAPC   O11 3972   4.544   1.443   6.196 -0.5870  1.2150 -0.5696
   30SAPC    C1 3973   4.674   1.378   6.202 -0.3230 -0.6450  0.2339
   30SAPC    HA 3974   4.686   1.287   6.139 -0.7824 -0.9120  0.5231
   30SAPC    HB 3975   4.747   1.447   6.157  1.3177 -3.6707 -1.9239
   30SAPC    C2 3976   4.699   1.333   6.350 -0.2898 -0.0070 -0.0616
   30SAPC    HS 3977   4.760   1.241   6.342  1.0689  0.7145  1.6158
   30SAPC   O21 3978   4.577   1.323   6.432  0.8241 -0.4360 -0.7772
   30SAPC   C21 3979   4.489   1.235   6.402 -0.7270  0.5319  0.3754
   30SAPC   O22 3980   4.512   1.140   6.323 -0.4138  0.3124 -0.1559
   30SAPC   C22 3981   4.365   1.256   6.490 -0.1720 -0.7912  1.1913
   30SAPC   H2R 3982   4.376   1.229   6.597  0.3298  0.4716  1.4642
   30SAPC   H2S 3983   4.342   1.364   6.481  0.8064 -0.6637  0.0122
   30SAPC    C3 3984   4.781   1.434   6.427  0.8237 -0.6562  0.1664
   30SAPC    HX 3985   4.720   1.526   6.414  1.0925 -0.2419  1.7619
   30SAPC    HY 3986   4.877   1.444   6.373  0.0680 -0.8289 -1.2191
   30SAPC   O31 3987   4.807   1.401   6.566  0.1912 -0.5077  0.0248
   30SAPC   C31 3988   4.734   1.456   6.658 -0.5839 -0.7261  0.2797
   30SAPC   O32 3989   4.651   1.541   6.643 -0.3374 -0.1216  0.2575
   30SAPC   C32 3990   4.791   1.420   6.795 -0.1456 -0.1155 -0.0849
   30SAPC   H2X 3991   4.901   1.404   6.792  0.0302  1.2401 -0.7091
   30SAPC   H2Y 3992   4.748   1.321   6.822  2.0040 -1.5683 -1.7770
   30SAPC   C23 3993   4.245   1.173   6.443 -0.3580 -0.2595 -0.1038
   30SAPC   H3R 3994   4.258   1.066   6.468  1.6241 -0.2239 -0.9326
   30SAPC   H3S 3995   4.224   1.185   6.334 -3.7188  1.4950  0.6419
   30SAPC   C24 3996   4.110   1.209   6.520  0.1297 -0.3224 -0.0862
   30SAPC   H4R 3997   4.132   1.187   6.626  3.5284  0.5847 -0.5330
   30SAPC   H4S 3998   4.029   1.142   6.483 -0.3948  0.9094 -1.2230
   30SAPC   C25 3999   4.069   1.353   6.497 -0.8246 -0.0503  0.1532
   30SAPC   H5R 4000   4.066   1.382   6.391 -0.9373 -3.7904 -0.9309
   30SAPC   C26 4001   4.049   1.445   6.592  0.2193 -0.6143 -0.1462
   30SAPC   H6R 4002   4.021   1.548   6.567 -2.0145 -1.3029 -0.6232
   30SAPC   C27 4003   4.064   1.428   6.740 -0.0562 -0.2835 -1.0577
   30SAPC   H7R 4004   4.117   1.331   6.753 -0.4569 -0.3944 -0.1903
   30SAPC   H7S 4005   3.961   1.425   6.782  0.1236 -0.4751 -0.6181
   30SAPC   C28 4006   4.134   1.538   6.821  0.5192 -0.4176 -0.0859
   30SAPC   H8R 4007   4.078   1.632   6.813 -1.7828 -1.2813  4.4633
   30SAPC   C29 4008   4.252   1.533   6.883 -0.7711  0.5287 -0.0288
   30SAPC   H9R 4009   4.268   1.625   6.942 -0.9093  1.3940 -1.3229
   30SAPC  C210 4010   4.354   1.419   6.888  0.0858  0.8152 -0.5678
   30SAPC  H10R 4011   4.444   1.473   6.924  0.1004  0.4825 -0.0927
   30SAPC  H10S 4012   4.370   1.380   6.786  0.9137  1.4634 -0.6900
   30SAPC  C211 4013   4.323   1.314   6.991  0.1294  0.3720 -0.5685
   30SAPC  H11R 4014   4.304   1.214   6.949 -2.0702  0.6077 -0.1828
   30SAPC  C212 4015   4.320   1.320   7.127 -0.4222 -0.1094 -0.3704
   30SAPC  H12R 4016   4.305   1.222   7.175  0.5987 -0.4415 -0.7194
   30SAPC  C213 4017   4.347   1.443   7.217 -0.3560 -0.5260  0.1488
   30SAPC  H13R 4018   4.359   1.536   7.158 -0.4344 -0.2017  0.6424
   30SAPC  H13S 4019   4.442   1.427   7.272  1.7323  1.8824 -2.6560
   30SAPC  C214 4020   4.235   1.470   7.314 -0.3774  0.2829  0.0823
   30SAPC  H14R 4021   4.178   1.547   7.261 -2.1039 -0.0954  1.3384
   30SAPC  C215 4022   4.221   1.431   7.442 -0.3700 -0.0579  0.2274
   30SAPC  H15R 4023   4.128   1.459   7.494  0.6522  2.0650  0.9537
   30SAPC  C216 4024   4.315   1.336   7.515  0.8215  0.5832  0.1127
   30SAPC  H16R 4025   4.415   1.355   7.472  0.0467  2.9168 -0.7886
   30SAPC  H16S 4026   4.273   1.234   7.500 -0.5893  1.3745 -1.5767
   30SAPC  C217 4027   4.323   1.376   7.662  0.5828  0.5952 -0.5871
   30SAPC  H17R 4028   4.345   1.485   7.661  0.4455  0.6460  1.0319
   30SAPC  H17S 4029   4.405   1.326   7.716 -2.1828 -0.6722  2.6136
   30SAPC  C218 4030   4.193   1.346   7.742  0.7341  0.3312  0.1723
   30SAPC  H18R 4031   4.157   1.244   7.718  2.6882  0.0237 -1.5892
   30SAPC  H18S 4032   4.117   1.425   7.728 -0.5568 -0.7678  0.8952
   30SAPC  C219 4033   4.229   1.336   7.894 -0.1873  0.4020  0.8665
   30SAPC  H19R 4034   4.264   1.434   7.933 -0.7280  0.3433  1.5019
   30SAPC  H19S 4035   4.305   1.256   7.905 -0.5128 -0.0272  0.0700
   30SAPC  C220 4036   4.109   1.301   7.991  0.1096 -0.3453 -0.0621
   30SAPC  H20R 4037   4.031   1.379   7.998 -0.6034 -1.1594  1.1810
   30SAPC  H20S 4038   4.140   1.262   8.090  2.2115 -0.9948 -0.9366
   30SAPC  H20T 4039   4.049   1.221   7.942 -3.3240  0.8676  2.0559
   30SAPC   C33 4040   4.764   1.516   6.912  0.0064  0.1761  0.0121
   30SAPC   H3X 4041   4.666   1.563   6.892 -0.2803 -0.2555  0.3932
   30SAPC   H3Y 4042   4.848   1.589   6.914  0.0833  0.1075 -0.4148
   30SAPC   C34 4043   4.757   1.435   7.039 -0.0797  0.0721  0.3293
   30SAPC   H4X 4044   4.840   1.361   7.030  1.2236  1.4290  0.8469
   30SAPC   H4Y 4045   4.663   1.376   7.039 -0.3359  0.4805 -0.4679
   30SAPC   C35 4046   4.776   1.516   7.161 -0.1967 -0.3257  0.0319
   30SAPC   H5X 4047   4.690   1.586   7.161 -1.5174 -1.9278  0.6197
   30SAPC   H5Y 4048   4.875   1.568   7.159  0.5352 -1.7254 -0.9018
   30SAPC   C36 4049   4.760   1.445   7.293 -0.5972 -0.3089 -0.4903
   30SAPC   H6X 4050   4.828   1.357   7.298 -1.1953 -0.6792  1.5467
   30SAPC   H6Y 4051   4.652   1.421   7.292 -0.3100 -1.7784 -4.2111
   30SAPC   C37 4052   4.794   1.533   7.416  0.2755 -0.0423  0.8747
   30SAPC   H7X 4053   4.733   1.626   7.406 -0.2693 -0.6204 -1.5853
   30SAPC   H7Y 4054   4.899   1.569   7.412  1.0785 -2.4405 -0.0666
   30SAPC   C38 4055   4.753   1.469   7.551 -0.0985 -0.4175 -0.4479
   30SAPC   H8X 4056   4.801   1.369   7.549 -2.1299 -1.5237  2.5250
   30SAPC   H8Y 4057   4.642   1.458   7.559 -0.0893 -0.8955 -0.9226
   30SAPC   C39 4058   4.809   1.551   7.675 -0.3632 -0.1983  0.6993
   30SAPC   H9X 4059   4.784   1.658   7.658 -1.4205 -0.6668 -0.8006
   30SAPC   H9Y 4060   4.920   1.552   7.674 -0.3750 -0.1137 -0.2970
   30SAPC  C310 4061   4.771   1.493   7.812 -0.8832  0.1855  0.8650
   30SAPC  H10X 4062   4.810   1.391   7.832  1.5151  1.0295  0.6319
   30SAPC  H10Y 4063   4.664   1.472   7.792 -1.2508  2.4392  0.4070
   30SAPC  C311 4064   4.795   1.581   7.933  0.1942 -0.3442  0.1623
   30SAPC  H11X 4065   4.753   1.682   7.910  2.4973  0.8034  0.7889
   30SAPC  H11Y 4066   4.901   1.611   7.949  1.0106 -2.5142 -0.9711
   30SAPC  C312 4067   4.733   1.520   8.059 -0.8981  0.4211 -0.7470
   30SAPC  H12X 4068   4.808   1.449   8.100 -0.7312  1.7227  1.2529
   30SAPC  H12Y 4069   4.644   1.461   8.027  2.0349 -4.4802 -0.3593
   30SAPC  C313 4070   4.686   1.631   8.159 -0.9131  0.2041 -1.0227
   30SAPC  H13X 4071   4.594   1.681   8.122 -1.3828  0.0289 -0.1213
   30SAPC  H13Y 4072   4.771   1.703   8.166 -0.6888 -0.1890  0.6504
   30SAPC  C314 4073   4.657   1.571   8.298  0.5353 -0.4180  0.3246
   30SAPC  H14X 4074   4.641   1.651   8.374 -3.4473 -0.1016 -0.7246
   30SAPC  H14Y 4075   4.744   1.519   8.345  1.3882  0.2424 -0.5008
   30SAPC  C315 4076   4.544   1.462   8.292  0.1966  0.8496 -0.6142
   30SAPC  H15X 4077   4.548   1.399   8.201  1.4001 -0.4540  0.3088
   30SAPC  H15Y 4078   4.452   1.523   8.298  0.3093  0.9349  0.2710
   30SAPC  C316 4079   4.544   1.366   8.411  1.1022 -0.5641 -0.3912
   30SAPC  H16X 4080   4.564   1.435   8.497 -3.2330 -0.4552  0.6315
   30SAPC  H16Y 4081   4.632   1.299   8.401  2.5264  1.1533  0.3763
   30SAPC  C317 4082   4.410   1.298   8.424 -0.2354 -0.2820 -0.0767
   30SAPC  H17X 4083   4.336   1.380   8.415  1.1802  0.9928 -0.2415
   30SAPC  H17Y 4084   4.390   1.257   8.525  1.6295 -1.7760 -0.2932
   30SAPC  C318 4085   4.373   1.189   8.327 -0.1823  0.5610 -0.2887
   30SAPC  H18X 4086   4.408   1.230   8.229 -0.4874 -0.2449 -0.7408
   30SAPC  H18Y 4087   4.264   1.170   8.326 -0.0238 -0.3657 -2.3517
   30SAPC  H18Z 4088   4.436   1.098   8.336  0.9258  1.1192 -2.0895
   31SAPC     N 4089   4.922   2.215   6.283 -0.3268  0.3984  0.3321
   31SAPC   C12 4090   4.962   2.305   6.407  0.0733  0.4853 -0.0505
   31SAPC  H12A 4091   4.913   2.265   6.494 -0.4304 -3.7983 -2.1604
   31SAPC  H12B 4092   4.922   2.403   6.385 -1.4550  0.4024  2.2249
   31SAPC   C13 4093   4.775   2.228   6.258  0.3551  0.4218  0.0519
   31SAPC  H13A 4094   4.735   2.174   6.174 -1.0965 -0.4471  1.2614
   31SAPC  H13B 4095   4.705   2.208   6.338  0.2572  0.3147 -0.0600
   31SAPC  H13C 4096   4.767   2.335   6.244  1.6032  0.4054 -0.8179
   31SAPC   C14 4097   4.982   2.267   6.152  0.9634  0.2720 -0.0466
   31SAPC  H14A 4098   4.966   2.193   6.075  1.4757 -1.6534  1.6741
   31SAPC  H14B 4099   4.934   2.361   6.129  0.3139 -0.4518 -1.6942
   31SAPC  H14C 4100   5.086   2.285   6.178  0.9460  0.0785  0.1560
   31SAPC   C15 4101   4.962   2.075   6.306  0.7446 -0.3813 -0.9806
   31SAPC  H15A 4102   4.911   2.037   6.393 -0.4428  1.6711 -0.7620
   31SAPC  H15B 4103   4.939   2.018   6.216  1.1382 -0.4204 -1.0580
   31SAPC  H15C 4104   5.069   2.075   6.320  0.4235  1.0050  1.6734
   31SAPC   C11 4105   5.111   2.323   6.442  0.5342  0.5724  0.9637
   31SAPC  H11A 4106   5.113   2.398   6.524  0.6599  0.1386  1.3601
   31SAPC  H11B 4107   5.171   2.382   6.370 -0.4521  0.4395  0.0154
   31SAPC     P 4108   5.312   2.159   6.461 -0.2726  0.4146  0.6949
   31SAPC   O13 4109   5.320   2.012   6.483 -0.1899  0.1086 -0.7248
   31SAPC   O14 4110   5.362   2.210   6.329  0.4087  0.0516 -0.8726
   31SAPC   O12 4111   5.167   2.204   6.492 -0.6788 -0.5566  0.0177
   31SAPC   O11 4112   5.406   2.226   6.571 -0.1797 -0.3244  0.2693
   31SAPC    C1 4113   5.347   2.318   6.656 -0.2037 -0.1720 -0.8259
   31SAPC    HA 4114   5.314   2.412   6.606 -0.3439  0.8868  1.2190
   31SAPC    HB 4115   5.267   2.273   6.719  1.5122 -1.3094  0.5934
   31SAPC    C2 4116   5.452   2.371   6.753 -0.6718  0.5832  0.1101
   31SAPC    HS 4117   5.530   2.414   6.686 -0.8134  1.7819  0.7207
   31SAPC   O21 4118   5.503   2.253   6.822 -0.0726 -0.0202  0.1914
   31SAPC   C21 4119   5.621   2.269   6.880  0.2864  0.0710  0.2819
   31SAPC   O22 4120   5.698   2.361   6.867  0.2028  0.8052  0.2722
   31SAPC   C22 4121   5.647   2.132   6.951 -0.0387 -0.0981 -0.5012
   31SAPC   H2R 4122   5.551   2.084   6.978 -0.2992  0.7093  0.0028
   31SAPC   H2S 4123   5.696   2.063   6.879 -1.6774 -0.5473 -1.2150
   31SAPC    C3 4124   5.399   2.483   6.840  0.0302 -0.5547 -0.6320
   31SAPC    HX 4125   5.376   2.567   6.771  0.4012 -0.6154 -0.8330
   31SAPC    HY 4126   5.473   2.525   6.911 -0.2967  0.7129 -1.0301
   31SAPC   O31 4127   5.280   2.438   6.907  0.4413  1.0913  0.6475
   31SAPC   C31 4128   5.305   2.380   7.027  0.1999  0.7074  0.1893
   31SAPC   O32 4129   5.418   2.366   7.070  0.3151 -0.2185 -0.1619
   31SAPC   C32 4130   5.176   2.350   7.097 -0.0271 -0.0390 -0.1022
   31SAPC   H2X 4131   5.143   2.265   7.034 -1.9837  1.1332 -0.7067
   31SAPC   H2Y 4132   5.107   2.437   7.100 -0.2688 -0.2862  2.0199
   31SAPC   C23 4133   5.722   2.156   7.086  0.2358  0.4429  0.5076
   31SAPC   H3R 4134   5.658   2.215   7.155  0.3462  1.9305 -0.6468
   31SAPC   H3S 4135   5.821   2.202   7.068  1.0644 -1.7873 -0.7767
   31SAPC   C24 4136   5.742   2.022   7.163 -0.7891  0.4542 -0.1806
   31SAPC   H4R 4137   5.792   1.946   7.100 -1.7499 -0.0059 -0.4056
   31SAPC   H4S 4138   5.647   1.982   7.207  1.6822 -1.8701  3.3823
   31SAPC   C25 4139   5.839   2.054   7.278 -0.3408  0.0047  0.0206
   31SAPC   H5R 4140   5.938   2.081   7.238 -0.6448  0.4716 -0.4307
   31SAPC   C26 4141   5.817   2.053   7.409  0.5356  0.8882 -0.1760
   31SAPC   H6R 4142   5.900   2.057   7.481 -0.6707  0.5618  1.2450
   31SAPC   C27 4143   5.687   2.012   7.470  0.6957  0.1272 -0.5873
   31SAPC   H7R 4144   5.605   1.997   7.396  0.8014 -0.5905 -0.5613
   31SAPC   H7S 4145   5.648   2.096   7.531  3.3337 -0.1634  1.5493
   31SAPC   C28 4146   5.692   1.890   7.564 -0.0187 -0.1285  0.1613
   31SAPC   H8R 4147   5.642   1.803   7.519  1.5610  0.3196 -2.5630
   31SAPC   C29 4148   5.735   1.892   7.689 -0.9480  0.2720  0.0524
   31SAPC   H9R 4149   5.717   1.801   7.748 -2.9890  0.0487 -0.9030
   31SAPC  C210 4150   5.788   2.005   7.770  0.0784 -0.3669  0.3730
   31SAPC  H10R 4151   5.711   2.043   7.841  0.7963  1.4467  0.2292
   31SAPC  H10S 4152   5.808   2.095   7.707  0.6479  0.4043  1.6366
   31SAPC  C211 4153   5.914   1.966   7.845  0.5077  0.0302  0.1200
   31SAPC  H11R 4154   5.997   1.937   7.779  1.0717  1.1143  0.3295
   31SAPC  C212 4155   5.938   1.983   7.978  0.1584  0.1889  0.0080
   31SAPC  H12R 4156   6.040   1.958   8.012  0.7619  0.0308 -1.8443
   31SAPC  C213 4157   5.837   2.019   8.082 -0.0750  0.3268 -0.4644
   31SAPC  H13R 4158   5.771   2.102   8.048 -1.0473  0.8642  2.5724
   31SAPC  H13S 4159   5.890   2.046   8.175 -0.5995 -0.1857 -0.0104
   31SAPC  C214 4160   5.751   1.897   8.111  0.0519  0.2665  0.0370
   31SAPC  H14R 4161   5.707   1.848   8.023  0.3245 -0.5501  0.3523
   31SAPC  C215 4162   5.717   1.848   8.236  0.6956 -0.1160 -0.5365
   31SAPC  H15R 4163   5.648   1.764   8.228  1.2904 -0.4353 -2.7345
   31SAPC  C216 4164   5.763   1.881   8.377  0.2786  0.5924 -0.1401
   31SAPC  H16R 4165   5.860   1.934   8.368 -0.4036  1.4841 -2.3026
   31SAPC  H16S 4166   5.775   1.788   8.438  0.3946  0.4086 -0.4431
   31SAPC  C217 4167   5.687   1.980   8.464 -0.0902  0.7938  0.5460
   31SAPC  H17R 4168   5.580   1.953   8.470  0.2337 -0.2307  2.0338
   31SAPC  H17S 4169   5.692   2.076   8.409 -1.9824 -0.5230 -2.0263
   31SAPC  C218 4170   5.746   1.981   8.607 -0.1530 -0.4110  0.3621
   31SAPC  H18R 4171   5.715   1.882   8.646  1.5944 -2.7487 -3.8068
   31SAPC  H18S 4172   5.682   2.056   8.659 -0.5957 -0.7066  0.2487
   31SAPC  C219 4173   5.892   2.027   8.633  0.6649 -1.0734  0.1601
   31SAPC  H19R 4174   5.952   1.957   8.571  2.6245  0.3659  0.3919
   31SAPC  H19S 4175   5.922   2.018   8.740  1.3214  1.2997  0.1986
   31SAPC  C220 4176   5.905   2.175   8.604  0.0090 -0.2235 -0.6028
   31SAPC  H20R 4177   5.900   2.194   8.495  0.1998 -0.0020 -0.5737
   31SAPC  H20S 4178   6.007   2.208   8.631  0.5519 -0.0171 -2.8169
   31SAPC  H20T 4179   5.816   2.219   8.654  0.2816 -1.8278  1.3789
   31SAPC   C33 4180   5.201   2.303   7.244 -0.0459  0.4750  0.5023
   31SAPC   H3X 4181   5.291   2.238   7.256 -1.0780 -1.6794 -2.9601
   31SAPC   H3Y 4182   5.120   2.244   7.291 -0.1462  1.8681  2.1272
   31SAPC   C34 4183   5.197   2.418   7.350  0.2348  0.6088  0.2387
   31SAPC   H4X 4184   5.106   2.479   7.330  2.3179  4.1287  1.2009
   31SAPC   H4Y 4185   5.284   2.477   7.314  1.0082 -0.3603  0.5178
   31SAPC   C35 4186   5.198   2.369   7.493  0.3663  0.0862  0.2336
   31SAPC   H5X 4187   5.122   2.292   7.519  0.0060 -0.3095 -1.8802
   31SAPC   H5Y 4188   5.178   2.453   7.563  1.4655  1.6630 -1.3162
   31SAPC   C36 4189   5.329   2.309   7.545 -0.0874  0.1408  0.2816
   31SAPC   H6X 4190   5.411   2.381   7.522 -1.1933  1.5602  0.6988
   31SAPC   H6Y 4191   5.348   2.212   7.494  0.4689 -0.4375  1.5757
   31SAPC   C37 4192   5.317   2.301   7.704  0.0883  0.0424 -0.3955
   31SAPC   H7X 4193   5.228   2.237   7.724  0.0221  0.6091  1.2079
   31SAPC   H7Y 4194   5.309   2.400   7.754  0.3734 -1.4756  2.7884
   31SAPC   C38 4195   5.445   2.236   7.772  0.2074 -0.1945 -0.5523
   31SAPC   H8X 4196   5.522   2.315   7.779  0.1981 -0.2424  0.1423
   31SAPC   H8Y 4197   5.496   2.165   7.703  1.1035 -0.2853  0.1938
   31SAPC   C39 4198   5.415   2.173   7.907  0.5357 -0.3237 -0.2670
   31SAPC   H9X 4199   5.517   2.142   7.939 -0.1250 -0.1914  2.0922
   31SAPC   H9Y 4200   5.356   2.079   7.912 -0.0058  0.0231 -0.0555
   31SAPC  C310 4201   5.369   2.281   8.001  0.3209  0.4485  0.0622
   31SAPC  H10X 4202   5.261   2.304   7.988  0.4554  1.6600  1.0346
   31SAPC  H10Y 4203   5.424   2.377   7.985 -1.3997  1.2007 -1.6655
   31SAPC  C311 4204   5.388   2.243   8.145 -0.8148 -0.4478  0.1157
   31SAPC  H11X 4205   5.493   2.219   8.174  0.1007  4.0034  0.8379
   31SAPC  H11Y 4206   5.321   2.157   8.165 -2.3422  1.3173  2.8978
   31SAPC  C312 4207   5.341   2.357   8.240  0.6383 -0.6594  0.6323
   31SAPC  H12X 4208   5.240   2.392   8.209  1.1592  0.8288  0.5430
   31SAPC  H12Y 4209   5.400   2.451   8.229 -2.0247  0.7533 -2.7488
   31SAPC  C313 4210   5.338   2.320   8.392 -0.4334 -0.2462 -0.0568
   31SAPC  H13X 4211   5.286   2.225   8.413  0.9385 -1.2861 -1.2925
   31SAPC  H13Y 4212   5.268   2.396   8.434 -1.1242 -1.6565  1.3857
   31SAPC  C314 4213   5.475   2.324   8.463 -0.4385  0.0776  0.2224
   31SAPC  H14X 4214   5.556   2.366   8.400 -0.8999  0.6698  0.0292
   31SAPC  H14Y 4215   5.508   2.218   8.475 -0.0673  0.0550 -0.9191
   31SAPC  C315 4216   5.480   2.398   8.592 -0.0655  0.5557 -0.4438
   31SAPC  H15X 4217   5.397   2.362   8.656  0.9476 -0.6459  0.2162
   31SAPC  H15Y 4218   5.472   2.507   8.574 -0.7857  0.5503 -0.1568
   31SAPC  C316 4219   5.616   2.382   8.659  0.9216  0.2521 -0.0029
   31SAPC  H16X 4220   5.699   2.392   8.586  0.8727 -1.3250 -0.3012
   31SAPC  H16Y 4221   5.624   2.276   8.690  1.3834  0.3922  0.3674
   31SAPC  C317 4222   5.644   2.490   8.759 -0.0137 -0.1249 -0.3297
   31SAPC  H17X 4223   5.562   2.494   8.834 -1.4899  1.5831 -2.0134
   31SAPC  H17Y 4224   5.649   2.588   8.708 -0.1645  1.3166  2.3245
   31SAPC  C318 4225   5.773   2.464   8.848 -0.5488  0.4275  0.1370
   31SAPC  H18X 4226   5.772   2.369   8.906 -1.3260 -0.1207 -0.7510
   31SAPC  H18Y 4227   5.800   2.550   8.912  0.5957 -1.1068  1.7600
   31SAPC  H18Z 4228   5.855   2.473   8.774 -0.9391  1.1213 -0.2139
   32SAPC     N 4229   6.326   2.856   6.143  0.2077  0.0732  0.2619
   32SAPC   C12 4230   6.397   2.863   6.274  0.5403  0.1277 -0.2795
   32SAPC  H12A 4231   6.495   2.818   6.261  0.4018 -0.2058 -0.1740
   32SAPC  H12B 4232   6.348   2.796   6.343 -0.0790  1.7230  0.8572
   32SAPC   C13 4233   6.317   2.715   6.104 -0.1520  0.6675  0.5048
   32SAPC  H13A 4234   6.248   2.659   6.167 -0.4727  0.2193 -0.2368
   32SAPC  H13B 4235   6.272   2.707   6.006 -0.0429  0.3496  0.4780
   32SAPC  H13C 4236   6.409   2.660   6.111 -0.9076 -0.6998  0.0218
   32SAPC   C14 4237   6.187   2.896   6.163 -0.4648 -0.5745  0.3369
   32SAPC  H14A 4238   6.156   2.849   6.255  1.6375 -1.4726  0.6053
   32SAPC  H14B 4239   6.176   3.003   6.168  1.4078 -0.3790  0.6006
   32SAPC  H14C 4240   6.121   2.854   6.089  1.8599 -2.1206 -0.9293
   32SAPC   C15 4241   6.401   2.923   6.028  0.2071  0.5369  0.6084
   32SAPC  H15A 4242   6.341   2.898   5.942  1.2613  0.6959 -0.1726
   32SAPC  H15B 4243   6.378   3.028   6.032 -2.5765  0.0321 -0.5659
   32SAPC  H15C 4244   6.506   2.908   6.010 -0.7493 -2.2102 -3.3778
   32SAPC   C11 4245   6.428   2.998   6.333  0.7858  0.2196 -0.3721
   32SAPC  H11A 4246   6.456   2.978   6.438  1.1155  0.7038 -0.3671
   32SAPC  H11B 4247   6.331   3.052   6.343  0.9489  0.5836 -0.7103
   32SAPC     P 4248   6.674   3.058   6.281  0.3427 -0.2677 -0.0847
   32SAPC   O13 4249   6.708   2.927   6.224  0.1974 -0.6811 -0.6641
   32SAPC   O14 4250   6.741   3.182   6.225 -0.8073 -0.6006 -0.1536
   32SAPC   O12 4251   6.522   3.077   6.262  0.1696  0.2060  0.6313
   32SAPC   O11 4252   6.692   3.053   6.436  0.5165  0.2877  0.2280
   32SAPC    C1 4253   6.654   3.162   6.521 -0.4996  0.0482 -0.0615
   32SAPC    HA 4254   6.559   3.204   6.482 -0.0092 -0.8062 -2.2286
   32SAPC    HB 4255   6.644   3.116   6.622 -3.8003 -0.2855 -0.4758
   32SAPC    C2 4256   6.764   3.279   6.530  0.0845 -0.1763 -0.1187
   32SAPC    HS 4257   6.798   3.308   6.429  3.3427  0.2390  1.0299
   32SAPC   O21 4258   6.878   3.236   6.605 -0.3971  0.4638 -0.3124
   32SAPC   C21 4259   6.971   3.154   6.552  0.1452 -0.1881 -0.3995
   32SAPC   O22 4260   6.968   3.112   6.436  0.1180 -0.1982 -0.0260
   32SAPC   C22 4261   7.077   3.115   6.656 -0.1667  0.1372 -0.3251
   32SAPC   H2R 4262   7.178   3.129   6.613 -0.3823 -1.1635 -1.2785
   32SAPC   H2S 4263   7.072   3.185   6.743 -0.7561  0.3769 -0.5473
   32SAPC    C3 4264   6.701   3.401   6.599 -0.4996 -0.1385 -0.1802
   32SAPC    HX 4265   6.607   3.419   6.542 -0.4957 -0.7822 -0.3990
   32SAPC    HY 4266   6.769   3.487   6.586  0.3006 -0.7106  0.1593
   32SAPC   O31 4267   6.670   3.369   6.742 -0.4556  0.3108 -0.0771
   32SAPC   C31 4268   6.752   3.412   6.832 -0.0929 -0.7730 -0.2431
   32SAPC   O32 4269   6.852   3.485   6.818 -0.0518 -0.2129  0.3115
   32SAPC   C32 4270   6.708   3.360   6.969 -0.0018 -0.0222  0.2363
   32SAPC   H2X 4271   6.672   3.255   6.961 -4.4582  1.4638 -0.5884
   32SAPC   H2Y 4272   6.618   3.418   6.996 -1.0902 -0.8284 -1.6036
   32SAPC   C23 4273   7.058   2.976   6.706  0.8064  0.8882 -0.1944
   32SAPC   H3R 4274   7.146   2.927   6.752  2.0987  3.0857 -0.2760
   32SAPC   H3S 4275   7.029   2.906   6.624  0.4568  1.6576 -0.7311
   32SAPC   C24 4276   6.946   2.976   6.809  0.0353 -0.3703 -0.4515
   32SAPC   H4R 4277   6.853   3.017   6.765  0.5400  1.6024  0.2833
   32SAPC   H4S 4278   6.970   3.045   6.892  0.6209  0.5905 -1.4002
   32SAPC   C25 4279   6.917   2.836   6.858 -0.2063 -0.0251 -0.7602
   32SAPC   H5R 4280   6.850   2.780   6.790 -2.2139  1.0927  0.2470
   32SAPC   C26 4281   6.955   2.779   6.971 -0.1862  0.0647 -0.0356
   32SAPC   H6R 4282   6.919   2.676   6.989 -1.4611  0.8699  2.2556
   32SAPC   C27 4283   7.043   2.847   7.077  0.2309 -0.0914  0.0216
   32SAPC   H7R 4284   7.101   2.927   7.027  0.4821 -0.3849 -0.1589
   32SAPC   H7S 4285   7.124   2.783   7.119 -0.6880 -1.2387  0.0758
   32SAPC   C28 4286   6.957   2.903   7.187 -0.1268  0.1191 -0.7973
   32SAPC   H8R 4287   6.909   3.000   7.168  0.4097  0.6090  0.2880
   32SAPC   C29 4288   6.950   2.860   7.315 -0.1285 -0.0722  1.4415
   32SAPC   H9R 4289   6.899   2.923   7.389  0.0659 -0.6196  2.0419
   32SAPC  C210 4290   7.028   2.742   7.370 -0.0957  0.0366  0.1956
   32SAPC  H10R 4291   7.133   2.779   7.374 -0.0364 -0.0360 -0.5877
   32SAPC  H10S 4292   7.042   2.665   7.291 -1.5442  0.3890 -0.4143
   32SAPC  C211 4293   6.980   2.674   7.490 -0.1904 -0.2982 -0.2899
   32SAPC  H11R 4294   6.871   2.663   7.487 -0.5312  2.5137  0.5205
   32SAPC  C212 4295   7.057   2.615   7.588  0.3825  0.4203 -0.1823
   32SAPC  H12R 4296   7.000   2.557   7.662  1.4078 -0.7045 -0.2591
   32SAPC  C213 4297   7.204   2.611   7.608  0.6951  0.3880 -0.0692
   32SAPC  H13R 4298   7.262   2.677   7.539  0.5340  3.1778  2.3523
   32SAPC  H13S 4299   7.230   2.503   7.605  3.7447  1.0946 -1.1435
   32SAPC  C214 4300   7.243   2.667   7.737  0.1894  0.7197 -0.3968
   32SAPC  H14R 4301   7.200   2.766   7.758 -1.1175  0.3274 -1.1406
   32SAPC  C215 4302   7.312   2.611   7.835  0.3514  0.1434 -0.5574
   32SAPC  H15R 4303   7.330   2.675   7.923  0.4663  2.7953 -2.4759
   32SAPC  C216 4304   7.362   2.472   7.845 -0.5869  0.5433 -0.3366
   32SAPC  H16R 4305   7.448   2.468   7.915  0.8699  3.2322 -1.9133
   32SAPC  H16S 4306   7.397   2.438   7.746  0.7945  1.2090 -0.0812
   32SAPC  C217 4307   7.252   2.379   7.908 -0.5970 -0.2347  0.0245
   32SAPC  H17R 4308   7.250   2.400   8.017  1.1503 -1.3639  0.3070
   32SAPC  H17S 4309   7.300   2.279   7.914 -0.0916 -0.1455 -2.0871
   32SAPC  C218 4310   7.118   2.376   7.837  0.0156  0.1333 -0.3339
   32SAPC  H18R 4311   7.145   2.353   7.731 -1.9507 -2.9972 -0.2413
   32SAPC  H18S 4312   7.075   2.478   7.841 -0.2753 -0.0003  0.0172
   32SAPC  C219 4313   7.028   2.271   7.890  0.6723  1.3108  0.4232
   32SAPC  H19R 4314   6.972   2.314   7.975  0.9542  0.6260  0.9563
   32SAPC  H19S 4315   7.088   2.189   7.936 -0.8363 -0.1082 -0.0969
   32SAPC  C220 4316   6.938   2.199   7.792  0.1407  0.0150  0.3136
   32SAPC  H20R 4317   6.892   2.270   7.720  1.1421  2.3336  1.9101
   32SAPC  H20S 4318   6.858   2.136   7.836 -0.7978  1.6034  0.9226
   32SAPC  H20T 4319   7.005   2.124   7.744  0.8850 -0.4232  1.9729
   32SAPC   C33 4320   6.815   3.356   7.079  0.3263 -0.3758 -0.4528
   32SAPC   H3X 4321   6.851   3.460   7.092  0.7738 -0.5534 -0.2480
   32SAPC   H3Y 4322   6.898   3.285   7.056 -0.3105 -0.8622 -1.3022
   32SAPC   C34 4323   6.746   3.300   7.210  0.0581  0.2994  0.1604
   32SAPC   H4X 4324   6.702   3.200   7.192 -1.1473  0.8884 -0.2008
   32SAPC   H4Y 4325   6.672   3.377   7.240  1.3356  1.6094  0.0609
   32SAPC   C35 4326   6.860   3.289   7.318 -0.0711  0.1123  0.2330
   32SAPC   H5X 4327   6.894   3.392   7.338 -1.5532  0.7719 -0.5227
   32SAPC   H5Y 4328   6.941   3.214   7.307 -1.9262 -2.0442  0.7559
   32SAPC   C36 4329   6.799   3.223   7.450 -0.4598  0.3000 -0.2081
   32SAPC   H6X 4330   6.771   3.117   7.432  2.0345 -0.2482 -0.9815
   32SAPC   H6Y 4331   6.705   3.275   7.479 -0.1195  1.0489 -0.4484
   32SAPC   C37 4332   6.899   3.220   7.565 -0.3230 -0.5824 -0.5737
   32SAPC   H7X 4333   6.899   3.323   7.606 -1.2845 -1.6742  2.2770
   32SAPC   H7Y 4334   7.006   3.206   7.539 -0.2585 -0.0503 -0.6076
   32SAPC   C38 4335   6.855   3.130   7.685  0.6188  0.0238  0.1640
   32SAPC   H8X 4336   6.842   3.031   7.637 -0.5835  0.2643 -0.0288
   32SAPC   H8Y 4337   6.759   3.168   7.726 -0.3004 -5.2136  3.2913
   32SAPC   C39 4338   6.955   3.121   7.806 -0.0276 -0.0049 -0.4287
   32SAPC   H9X 4339   7.053   3.102   7.757  0.5892 -1.2185  1.2586
   32SAPC   H9Y 4340   6.932   3.036   7.874  1.8924 -0.1372  0.0784
   32SAPC  C310 4341   6.970   3.249   7.889  1.0568 -0.8104 -0.2314
   32SAPC  H10X 4342   6.997   3.336   7.825  0.2838  0.4559  1.1485
   32SAPC  H10Y 4343   7.056   3.220   7.953 -0.4954 -1.0204  1.8053
   32SAPC  C311 4344   6.845   3.284   7.977  0.4248  0.3962 -0.0317
   32SAPC  H11X 4345   6.755   3.256   7.918  1.0267 -2.2593  0.2768
   32SAPC  H11Y 4346   6.849   3.392   8.004  0.0276  0.0879  1.2625
   32SAPC  C312 4347   6.850   3.204   8.108  0.0064  0.6178  0.1458
   32SAPC  H12X 4348   6.867   3.098   8.082  1.2901  0.7237  0.5326
   32SAPC  H12Y 4349   6.745   3.212   8.142 -0.4929  1.4350 -1.5032
   32SAPC  C313 4350   6.950   3.244   8.221  0.0367 -0.1685  0.4254
   32SAPC  H13X 4351   7.046   3.219   8.171  0.1206 -0.1902  0.5955
   32SAPC  H13Y 4352   6.947   3.165   8.300  1.2911 -0.5716  0.0824
   32SAPC  C314 4353   6.934   3.385   8.288  0.2141 -0.3970 -0.0809
   32SAPC  H14X 4354   6.941   3.458   8.205 -0.4717  0.7336  0.8315
   32SAPC  H14Y 4355   7.022   3.401   8.354 -0.1586  0.0532  0.3204
   32SAPC  C315 4356   6.801   3.412   8.359 -0.1823 -0.0408 -0.0124
   32SAPC  H15X 4357   6.722   3.423   8.281  0.8097  1.9177 -0.7939
   32SAPC  H15Y 4358   6.816   3.514   8.400  1.6352  0.1231 -1.0040
   32SAPC  C316 4359   6.764   3.317   8.470 -0.3233  0.0524 -0.1693
   32SAPC  H16X 4360   6.846   3.306   8.544  0.2600  0.4327 -0.7629
   32SAPC  H16Y 4361   6.738   3.214   8.440  0.6513 -0.5176  0.8908
   32SAPC  C317 4362   6.648   3.378   8.553 -0.4373 -0.3158 -0.7196
   32SAPC  H17X 4363   6.547   3.365   8.507 -1.0431  2.1157 -0.1313
   32SAPC  H17Y 4364   6.659   3.489   8.554  3.0800 -0.6259 -0.5460
   32SAPC  C318 4365   6.665   3.355   8.700 -0.0425  0.4294 -0.2398
   32SAPC  H18X 4366   6.568   3.368   8.753 -0.4102  0.1648 -0.8530
   32SAPC  H18Y 4367   6.737   3.419   8.754  1.2035 -0.4817 -0.7979
   32SAPC  H18Z 4368   6.691   3.249   8.723  0.8309 -0.2496 -4.1254
   33POPC     N 4369   5.258   3.741  10.516  0.2953 -0.4041  0.2561
   33POPC   C12 4370   5.116   3.701  10.533  0.3157  0.0556 -0.1622
   33POPC  H12A 4371   5.084   3.723  10.634  0.4994 -0.0794 -0.0720
   33POPC  H12B 4372   5.099   3.597  10.508 -0.3472 -0.0220  0.5911
   33POPC   C13 4373   5.355   3.642  10.565  1.2950 -0.3766 -0.5143
   33POPC  H13A 4374   5.455   3.673  10.539  1.2125 -0.7232 -1.2711
   33POPC  H13B 4375   5.351   3.623  10.671  0.7436 -1.2813 -0.6878
   33POPC  H13C 4376   5.317   3.547  10.529  3.5329 -0.6568 -2.2679
   33POPC   C14 4377   5.299   3.761  10.369 -0.0067  1.0067 -0.3118
   33POPC  H14A 4378   5.297   3.668  10.314 -1.8401 -1.5941  3.8840
   33POPC  H14B 4379   5.223   3.824  10.325 -1.5705  0.6466  1.8148
   33POPC  H14C 4380   5.400   3.797  10.357  0.9431 -0.6098  2.3784
   33POPC   C15 4381   5.285   3.871  10.586  0.1672  0.1395 -0.1041
   33POPC  H15A 4382   5.388   3.900  10.578  0.4267 -1.0149 -1.1419
   33POPC  H15B 4383   5.249   3.857  10.687 -2.4213  0.7362 -0.8975
   33POPC  H15C 4384   5.228   3.950  10.539  1.2731 -0.6773 -2.9101
   33POPC   C11 4385   5.005   3.769  10.446 -0.2223 -0.3492 -0.2166
   33POPC  H11A 4386   4.923   3.694  10.437  0.8363 -1.3784 -1.4267
   33POPC  H11B 4387   5.040   3.768  10.341 -2.1440 -0.0832 -0.8809
   33POPC     P 4388   4.841   3.932  10.569 -0.1753  0.1556  0.4347
   33POPC   O13 4389   4.844   4.068  10.630 -0.3582 -0.4844 -0.4173
   33POPC   O14 4390   4.820   3.817  10.658  0.1513  0.0370  0.2895
   33POPC   O12 4391   4.983   3.904  10.487  0.0809 -0.4241 -0.2545
   33POPC   O11 4392   4.728   3.926  10.456 -0.5167  0.2585 -0.3876
   33POPC    C1 4393   4.610   3.849  10.480  0.0424  0.0282  0.4659
   33POPC    HA 4394   4.633   3.742  10.499 -0.6602 -0.8370 -3.1355
   33POPC    HB 4395   4.554   3.894  10.565 -1.0328 -2.2938  1.0227
   33POPC    C2 4396   4.508   3.855  10.356 -0.3408  0.3870  0.0095
   33POPC    HS 4397   4.437   3.770  10.365 -1.9240  1.7358  0.7775
   33POPC   O21 4398   4.590   3.857  10.234 -0.0486 -0.3411 -0.2131
   33POPC   C21 4399   4.651   3.746  10.208  0.1712  0.4680  0.2990
   33POPC   O22 4400   4.608   3.640  10.257  0.2386  0.0616 -0.2666
   33POPC   C22 4401   4.774   3.756  10.117 -0.2303 -0.4761  0.1365
   33POPC   H2R 4402   4.859   3.718  10.178  0.9158 -0.3033 -1.3157
   33POPC   H2S 4403   4.800   3.862  10.096 -0.0216 -0.7411 -0.9605
   33POPC    C3 4404   4.439   3.997  10.360  0.1571  0.3844  0.5910
   33POPC    HX 4405   4.515   4.074  10.385 -1.0490  2.4124 -1.8117
   33POPC    HY 4406   4.372   3.987  10.448  0.8845 -1.0914  1.0005
   33POPC   O31 4407   4.353   4.015  10.249 -0.0694  0.5384 -0.3232
   33POPC   C31 4408   4.420   4.089  10.158  0.2356  1.2692 -0.8007
   33POPC   O32 4409   4.534   4.126  10.157  0.0475 -0.0720  0.4289
   33POPC   C32 4410   4.318   4.132  10.053  0.1919 -0.1931 -0.1628
   33POPC   H2X 4411   4.325   4.242  10.037  0.9529 -0.2835 -0.4814
   33POPC   H2Y 4412   4.216   4.126  10.095  0.2703 -0.7807 -0.0493
   33POPC   C23 4413   4.772   3.668   9.993 -0.0795 -0.9610  0.4333
   33POPC   H3R 4414   4.721   3.570  10.004 -0.5637 -0.6705  0.7689
   33POPC   H3S 4415   4.881   3.660   9.973 -0.0497  0.0216  0.1624
   33POPC   C24 4416   4.704   3.740   9.869  0.8043  0.3568 -0.1833
   33POPC   H4R 4417   4.756   3.827   9.824 -4.4562  2.4869 -2.6757
   33POPC   H4S 4418   4.608   3.775   9.913  0.2558 -0.2036 -0.9265
   33POPC   C25 4419   4.667   3.640   9.755 -0.3341 -0.4829  0.2778
   33POPC   H5R 4420   4.594   3.562   9.784 -0.3511 -0.6005 -0.0839
   33POPC   H5S 4421   4.759   3.590   9.718 -0.6937  0.5276 -2.0568
   33POPC   C26 4422   4.597   3.717   9.642 -0.2202 -0.3612 -0.6042
   33POPC   H6R 4423   4.651   3.811   9.617 -0.5879  0.8472  2.8110
   33POPC   H6S 4424   4.493   3.743   9.671 -0.4629  1.1026 -2.6997
   33POPC   C27 4425   4.568   3.640   9.510 -0.3964  0.4149  0.1715
   33POPC   H7R 4426   4.507   3.554   9.546  2.1461 -1.4739  0.1132
   33POPC   H7S 4427   4.660   3.587   9.477 -1.2451 -0.0894 -1.4794
   33POPC   C28 4428   4.508   3.717   9.393  0.2967 -0.3553 -0.2006
   33POPC   H8R 4429   4.436   3.784   9.446  0.5000  0.1885 -0.6153
   33POPC   H8S 4430   4.453   3.649   9.324 -0.3203  1.8470 -1.9430
   33POPC   C29 4431   4.607   3.798   9.309 -0.6341  0.3564 -0.4867
   33POPC   H91 4432   4.709   3.799   9.349 -0.0413  0.1828 -1.9761
   33POPC  C210 4433   4.582   3.860   9.195 -0.5331 -0.4313 -0.3959
   33POPC  H101 4434   4.668   3.918   9.159 -0.5948  0.2217  0.4815
   33POPC  C211 4435   4.449   3.879   9.124 -0.4305 -0.1199  0.0639
   33POPC  H11R 4436   4.437   3.985   9.093  1.2035 -0.2544 -1.1618
   33POPC  H11S 4437   4.360   3.846   9.182 -2.8114 -0.7748 -3.8035
   33POPC  C212 4438   4.452   3.794   8.996  0.8641  0.4443  0.4263
   33POPC  H12R 4439   4.357   3.790   8.939  0.7321  1.7790  0.5367
   33POPC  H12S 4440   4.469   3.688   9.024 -0.6125 -0.5013 -2.1207
   33POPC  C213 4441   4.568   3.819   8.893  0.3309  0.5715 -0.7147
   33POPC  H13R 4442   4.660   3.775   8.936  0.8666  2.8769  0.5507
   33POPC  H13S 4443   4.588   3.925   8.868  0.7382  0.5097 -0.6520
   33POPC  C214 4444   4.531   3.726   8.769  0.7385  0.5881 -0.3130
   33POPC  H14R 4445   4.440   3.768   8.721  0.2798  0.8932  0.7883
   33POPC  H14S 4446   4.518   3.619   8.797 -3.4346  0.5475 -1.9423
   33POPC  C215 4447   4.630   3.733   8.650  0.7013 -0.5104 -0.0058
   33POPC  H15R 4448   4.592   3.674   8.564  0.3598  0.4924 -0.5524
   33POPC  H15S 4449   4.730   3.698   8.681  1.6317  1.0904 -1.1425
   33POPC  C216 4450   4.622   3.875   8.587 -0.1586 -0.0473 -0.3605
   33POPC  H16R 4451   4.655   3.954   8.658  2.7523 -2.5465  1.1756
   33POPC  H16S 4452   4.514   3.889   8.563  0.5905  1.1531 -3.1266
   33POPC  C217 4453   4.718   3.885   8.467  0.1424  0.0610 -0.8988
   33POPC  H17R 4454   4.692   3.812   8.388  0.2191 -0.2595 -0.6280
   33POPC  H17S 4455   4.826   3.864   8.488  0.0400 -2.0563 -2.3709
   33POPC  C218 4456   4.703   4.020   8.400  0.3749 -0.7238  0.7104
   33POPC  H18R 4457   4.707   4.102   8.475 -1.8940 -0.5614  0.7001
   33POPC  H18S 4458   4.599   4.021   8.360  0.8623 -1.3297 -0.5936
   33POPC  H18T 4459   4.767   4.035   8.311  0.2763 -0.2433  0.7180
   33POPC   C33 4460   4.324   4.064   9.914 -0.3691 -0.1611  0.0775
   33POPC   H3X 4461   4.297   3.957   9.930 -1.4735  0.1437  0.2600
   33POPC   H3Y 4462   4.422   4.070   9.862  0.6328 -0.7932  1.8401
   33POPC   C34 4463   4.228   4.107   9.797 -0.0402 -0.1098 -0.0107
   33POPC   H4X 4464   4.268   4.200   9.751  0.5193  0.6505  1.9672
   33POPC   H4Y 4465   4.127   4.116   9.842  0.6234  1.5765  1.2076
   33POPC   C35 4466   4.218   4.003   9.690  0.9008 -0.1182 -0.1212
   33POPC   H5X 4467   4.158   3.919   9.732  0.2811  1.5497  2.4056
   33POPC   H5Y 4468   4.320   3.964   9.668  1.3296 -0.0192  1.6540
   33POPC   C36 4469   4.141   4.051   9.568 -0.5571  0.0795 -0.3092
   33POPC   H6X 4470   4.210   4.127   9.524  1.4785 -0.5187  1.7097
   33POPC   H6Y 4471   4.051   4.104   9.603 -1.0431 -0.7547 -0.2809
   33POPC   C37 4472   4.114   3.949   9.461  0.1334 -0.4060  0.0069
   33POPC   H7X 4473   4.040   3.872   9.491 -0.1677  0.0704  0.4853
   33POPC   H7Y 4474   4.214   3.903   9.442  0.6135  0.5052  0.2926
   33POPC   C38 4475   4.070   4.008   9.324 -0.0550  1.0318 -1.0407
   33POPC   H8X 4476   3.987   4.077   9.354 -0.2789 -0.1556  1.2059
   33POPC   H8Y 4477   4.021   3.927   9.266  0.0557  0.1836  0.0290
   33POPC   C39 4478   4.185   4.072   9.243 -0.8781 -0.4175 -0.2208
   33POPC   H9X 4479   4.236   3.984   9.198 -0.5372  0.2185 -1.0886
   33POPC   H9Y 4480   4.253   4.117   9.318 -0.3950  1.0798 -1.5395
   33POPC  C310 4481   4.129   4.170   9.136 -1.0260 -0.7004  0.4437
   33POPC  H10X 4482   4.108   4.268   9.183  0.5066 -0.0494 -0.1973
   33POPC  H10Y 4483   4.029   4.126   9.116  0.1489 -3.1832 -0.1764
   33POPC  C311 4484   4.219   4.182   9.011 -0.0755 -0.4271 -0.8989
   33POPC  H11X 4485   4.217   4.087   8.954  0.9183 -0.5280 -0.7784
   33POPC  H11Y 4486   4.320   4.199   9.055 -0.7226 -1.9687  1.2985
   33POPC  C312 4487   4.181   4.291   8.912  0.3212  0.1432  0.2258
   33POPC  H12X 4488   4.218   4.383   8.963 -0.3696  1.0904 -0.9613
   33POPC  H12Y 4489   4.070   4.289   8.908  0.3879  1.2627 -5.5003
   33POPC  C313 4490   4.239   4.286   8.772  0.7813 -0.1742 -0.0202
   33POPC  H13X 4491   4.348   4.268   8.771  0.5912 -1.3510 -0.3575
   33POPC  H13Y 4492   4.217   4.378   8.715  1.4367 -1.2250 -2.0209
   33POPC  C314 4493   4.171   4.163   8.696 -0.3887 -0.2227 -0.2824
   33POPC  H14X 4494   4.064   4.178   8.719 -0.6440 -0.2054 -1.4718
   33POPC  H14Y 4495   4.206   4.064   8.733 -2.0219 -0.1884  1.4344
   33POPC  C315 4496   4.192   4.165   8.551  0.2076  0.7427  0.5423
   33POPC  H15X 4497   4.193   4.269   8.512  0.3569 -0.4298 -2.7200
   33POPC  H15Y 4498   4.098   4.121   8.510 -0.4265  0.4995  2.2035
   33POPC  C316 4499   4.317   4.080   8.498 -0.2308 -0.0733 -0.3383
   33POPC  H16X 4500   4.408   4.144   8.501 -0.6990  0.5513  1.4310
   33POPC  H16Y 4501   4.292   4.054   8.393  0.1390  1.0518 -0.7137
   33POPC  H16Z 4502   4.327   3.989   8.561  0.4376  1.7237  2.2510
   34POPC     N 4503   3.877   4.862  10.654 -0.3126 -0.6335  0.4373
   34POPC   C12 4504   3.748   4.810  10.717 -0.0070 -0.2223  0.3332
   34POPC  H12A 4505   3.761   4.717  10.770  0.5672 -0.6168 -0.4813
   34POPC  H12B 4506   3.688   4.778  10.633 -0.2962  0.7486  0.1634
   34POPC   C13 4507   3.947   4.752  10.577  0.2709  0.8250 -0.2467
   34POPC  H13A 4508   3.886   4.718  10.495  0.5912 -0.0624 -0.1267
   34POPC  H13B 4509   4.036   4.793  10.531  1.6278 -1.1768  0.5133
   34POPC  H13C 4510   3.965   4.662  10.634  0.9919  1.2749  0.2340
   34POPC   C14 4511   3.843   4.967  10.554  0.6023  0.9005 -0.1458
   34POPC  H14A 4512   3.764   5.027  10.597  0.4870 -0.2390  1.3040
   34POPC  H14B 4513   3.926   5.022  10.515  1.3456  0.5537  0.9198
   34POPC  H14C 4514   3.785   4.937  10.468 -0.9812 -0.4405  1.3415
   34POPC   C15 4515   3.977   4.928  10.751  0.2106 -0.1348 -0.1216
   34POPC  H15A 4516   4.046   4.992  10.698 -1.1181  0.6465 -0.9557
   34POPC  H15B 4517   4.035   4.855  10.805 -2.9053 -0.3638  3.1276
   34POPC  H15C 4518   3.930   4.983  10.831  1.6145 -0.4454  0.9365
   34POPC   C11 4519   3.672   4.912  10.805 -0.1440  0.1246 -0.0362
   34POPC  H11A 4520   3.742   4.961  10.876 -0.1829 -0.3163  0.3063
   34POPC  H11B 4521   3.601   4.856  10.869  0.9345 -0.6969  0.4640
   34POPC     P 4522   3.484   4.978  10.648  0.1179 -0.2930 -0.0434
   34POPC   O13 4523   3.377   5.052  10.708 -0.1022  0.4422 -0.0066
   34POPC   O14 4524   3.470   4.831  10.635 -0.2375  0.6081 -0.2027
   34POPC   O12 4525   3.621   5.016  10.722 -0.3815 -0.8485  0.0594
   34POPC   O11 4526   3.514   5.026  10.500  0.1243  0.1575  0.1616
   34POPC    C1 4527   3.564   5.156  10.482  0.2806  0.1690  0.1680
   34POPC    HA 4528   3.672   5.148  10.510  1.2316  0.2601 -3.2347
   34POPC    HB 4529   3.528   5.238  10.547 -1.1224 -0.2039 -0.1370
   34POPC    C2 4530   3.559   5.221  10.341  0.1498 -0.2993  0.3572
   34POPC    HS 4531   3.456   5.236  10.303  0.6901 -0.6369 -1.2638
   34POPC   O21 4532   3.616   5.124  10.255 -0.1481  0.1244 -0.3686
   34POPC   C21 4533   3.582   5.117  10.126 -1.0297  0.1050 -0.3430
   34POPC   O22 4534   3.485   5.176  10.078  0.0384 -0.3919 -0.1199
   34POPC   C22 4535   3.676   5.024  10.053  0.5143  0.6819  0.8246
   34POPC   H2R 4536   3.694   4.928  10.105 -3.0153 -0.0542  0.7760
   34POPC   H2S 4537   3.772   5.079  10.044  1.1788 -0.6158 -0.3228
   34POPC    C3 4538   3.643   5.355  10.334  0.4093 -0.4321 -0.2012
   34POPC    HX 4539   3.753   5.340  10.341  0.4770 -0.0187 -0.3251
   34POPC    HY 4540   3.622   5.427  10.416 -3.2763 -1.4440 -0.1529
   34POPC   O31 4541   3.628   5.407  10.197 -0.0744  0.7156 -0.1724
   34POPC   C31 4542   3.541   5.508  10.184 -0.2513  0.3545  0.1793
   34POPC   O32 4543   3.478   5.569  10.271 -0.2378  0.0100 -0.1835
   34POPC   C32 4544   3.516   5.535  10.038 -0.9039 -0.1589 -0.3545
   34POPC   H2X 4545   3.468   5.635  10.041  1.6430  1.0809  1.1256
   34POPC   H2Y 4546   3.442   5.461  10.000 -1.3522 -0.4525  1.0767
   34POPC   C23 4547   3.611   4.992   9.910  0.4600 -0.1753  0.1018
   34POPC   H3R 4548   3.579   5.084   9.858 -0.7979 -1.4378 -1.4008
   34POPC   H3S 4549   3.514   4.946   9.939  1.8892 -2.8654  0.7815
   34POPC   C24 4550   3.698   4.912   9.816 -0.3622  0.5369  0.1679
   34POPC   H4R 4551   3.640   4.900   9.722 -1.4718 -1.1837  1.0490
   34POPC   H4S 4552   3.731   4.812   9.850  0.5730  1.0688  0.8354
   34POPC   C25 4553   3.817   4.999   9.776 -0.1329 -0.3587  0.2254
   34POPC   H5R 4554   3.868   5.052   9.860 -2.1830  1.3555  0.4172
   34POPC   H5S 4555   3.780   5.075   9.703  2.9530  2.2554  1.2268
   34POPC   C26 4556   3.934   4.921   9.707  0.1470 -0.3504  0.8431
   34POPC   H6R 4557   3.885   4.856   9.632 -0.0167  1.3982 -0.5930
   34POPC   H6S 4558   3.976   4.871   9.797  0.7302 -0.5590  0.4601
   34POPC   C27 4559   4.038   5.016   9.655 -0.0010 -0.9876  0.8294
   34POPC   H7R 4560   4.135   4.961   9.655 -1.1469 -3.0857  0.3360
   34POPC   H7S 4561   4.051   5.103   9.723  1.0719  0.5585 -1.2878
   34POPC   C28 4562   4.016   5.067   9.517  1.1691  0.1544 -0.0111
   34POPC   H8R 4563   4.085   5.149   9.488  1.3676  0.0059  0.0462
   34POPC   H8S 4564   3.911   5.102   9.505  0.3835 -2.0848  0.1279
   34POPC   C29 4565   4.023   4.946   9.428 -0.7452  0.2136 -0.4064
   34POPC   H91 4566   4.124   4.903   9.436 -0.2715  0.7911 -2.9207
   34POPC  C210 4567   3.943   4.893   9.336  0.5097 -0.3993  0.2107
   34POPC  H101 4568   3.966   4.798   9.285  0.5857 -0.1434 -0.2409
   34POPC  C211 4569   3.818   4.959   9.287 -0.0219 -0.6002  0.1468
   34POPC  H11R 4570   3.755   4.997   9.370 -0.6613  0.1724 -0.6752
   34POPC  H11S 4571   3.749   4.884   9.242 -1.9376 -0.9950  3.5816
   34POPC  C212 4572   3.864   5.075   9.187  0.0671  0.5130  0.3475
   34POPC  H12R 4573   3.928   5.031   9.107  1.2460  0.5718  1.2399
   34POPC  H12S 4574   3.921   5.150   9.247 -0.2562  1.0799 -0.0562
   34POPC  C213 4575   3.748   5.153   9.120  0.0274 -0.4898  0.5031
   34POPC  H13R 4576   3.776   5.256   9.087  1.6561 -0.7266  1.1028
   34POPC  H13S 4577   3.669   5.171   9.196 -1.5549 -0.4033 -1.1388
   34POPC  C214 4578   3.676   5.075   9.006 -0.7951  0.1885 -0.3878
   34POPC  H14R 4579   3.613   4.992   9.044 -0.5903  0.1740 -0.0773
   34POPC  H14S 4580   3.750   5.026   8.939  2.2900  2.6288  1.1273
   34POPC  C215 4581   3.577   5.163   8.942  0.1820  0.1188  0.5225
   34POPC  H15R 4582   3.633   5.245   8.893 -1.6654  1.5336  0.7246
   34POPC  H15S 4583   3.517   5.212   9.022  0.5272 -0.1775  0.9614
   34POPC  C216 4584   3.471   5.102   8.846 -0.2471 -0.5116  0.7125
   34POPC  H16R 4585   3.453   4.992   8.846 -1.3206 -0.4134 -2.9302
   34POPC  H16S 4586   3.504   5.131   8.744 -3.5777  0.4644 -0.1428
   34POPC  C217 4587   3.331   5.160   8.855  0.0221  0.4831 -0.6412
   34POPC  H17R 4588   3.333   5.266   8.821 -0.0433 -0.0263 -2.2365
   34POPC  H17S 4589   3.310   5.158   8.964  0.6219 -1.3034 -0.5511
   34POPC  C218 4590   3.226   5.085   8.776 -0.0664  0.2662  1.3024
   34POPC  H18R 4591   3.124   5.094   8.819 -0.2123  1.9738  0.6144
   34POPC  H18S 4592   3.250   4.978   8.761 -0.7770  0.3088 -0.1937
   34POPC  H18T 4593   3.223   5.131   8.675 -1.2257 -0.4203  1.0195
   34POPC   C33 4594   3.639   5.542   9.943 -0.5994 -0.3810  0.4572
   34POPC   H3X 4595   3.693   5.446   9.953 -0.3549 -0.1024  1.8982
   34POPC   H3Y 4596   3.698   5.635   9.964 -0.9065  0.1375 -0.8920
   34POPC   C34 4597   3.596   5.548   9.795  0.2570 -0.9544  0.7157
   34POPC   H4X 4598   3.683   5.575   9.730  0.1824 -3.4749 -0.4837
   34POPC   H4Y 4599   3.516   5.625   9.785  0.4313 -0.7762  0.6814
   34POPC   C35 4600   3.548   5.420   9.729  0.4270 -0.1947 -0.3368
   34POPC   H5X 4601   3.455   5.380   9.775 -0.6717 -0.5842 -2.8374
   34POPC   H5Y 4602   3.625   5.341   9.739 -0.5091 -0.9830  0.8785
   34POPC   C36 4603   3.519   5.449   9.580 -0.4704  0.4022 -0.3033
   34POPC   H6X 4604   3.612   5.466   9.521 -0.4888  1.8311  0.0590
   34POPC   H6Y 4605   3.467   5.547   9.573  0.9291  1.1190 -1.0152
   34POPC   C37 4606   3.462   5.334   9.505 -0.5512  0.6345  0.5968
   34POPC   H7X 4607   3.359   5.322   9.545 -0.0766 -2.1921  1.0844
   34POPC   H7Y 4608   3.505   5.236   9.537 -0.9061 -0.1666 -1.2939
   34POPC   C38 4609   3.447   5.343   9.354  0.0724  0.0980 -0.2442
   34POPC   H8X 4610   3.392   5.254   9.315 -1.0620  0.2563  0.9553
   34POPC   H8Y 4611   3.540   5.362   9.296  0.1704  0.0765 -0.0941
   34POPC   C39 4612   3.348   5.459   9.314  0.8602  0.4959  0.6163
   34POPC   H9X 4613   3.391   5.554   9.353  0.6274  0.3832  1.1537
   34POPC   H9Y 4614   3.252   5.462   9.369  0.9742  0.9867  0.7933
   34POPC  C310 4615   3.307   5.454   9.163  0.2725  0.6860  0.4014
   34POPC  H10X 4616   3.261   5.354   9.146  1.0397  0.6624 -1.7127
   34POPC  H10Y 4617   3.396   5.470   9.098  0.4736 -4.3924 -0.7520
   34POPC  C311 4618   3.203   5.563   9.125 -0.2565  0.2172 -0.0602
   34POPC  H11X 4619   3.248   5.661   9.150 -1.0576  0.3897  0.7400
   34POPC  H11Y 4620   3.122   5.543   9.199  1.3271 -0.1522  1.5908
   34POPC  C312 4621   3.158   5.543   8.982 -0.8824 -0.3525 -0.2306
   34POPC  H12X 4622   3.059   5.594   8.985 -0.4975  0.3051  1.9384
   34POPC  H12Y 4623   3.147   5.434   8.966  1.1983 -0.9670  2.2673
   34POPC  C313 4624   3.251   5.612   8.872 -0.0203  0.3475  0.3458
   34POPC  H13X 4625   3.353   5.568   8.882  0.1661 -0.1114 -3.0896
   34POPC  H13Y 4626   3.253   5.720   8.899 -0.7818  0.7722 -1.2483
   34POPC  C314 4627   3.198   5.602   8.729 -0.6003  0.3414  0.5970
   34POPC  H14X 4628   3.109   5.668   8.728 -0.1808  0.9109  0.0577
   34POPC  H14Y 4629   3.158   5.500   8.708  2.4542 -0.7070 -0.3230
   34POPC  C315 4630   3.298   5.642   8.621  0.1085  0.8061  0.5571
   34POPC  H15X 4631   3.382   5.571   8.637  0.0738  0.6462  0.0328
   34POPC  H15Y 4632   3.340   5.741   8.645 -0.9693  1.4332 -0.0874
   34POPC  C316 4633   3.253   5.650   8.476  0.4542  0.3473 -0.3342
   34POPC  H16X 4634   3.157   5.701   8.457  0.7016 -0.1157 -2.8980
   34POPC  H16Y 4635   3.240   5.545   8.441 -0.2000  0.4554 -0.4117
   34POPC  H16Z 4636   3.336   5.694   8.416 -0.2794  0.4424 -1.2780
   35POPC     N 4637   3.063   2.022  10.905  0.3011 -0.3359 -0.0709
   35POPC   C12 4638   2.931   2.072  10.864 -0.8311 -0.1658 -0.5195
   35POPC  H12A 4639   2.858   2.052  10.941 -1.7616 -2.0758 -1.8513
   35POPC  H12B 4640   2.899   2.009  10.782 -1.2674 -0.7683  0.1190
   35POPC   C13 4641   3.055   1.884  10.966 -0.2112  0.1068  0.0109
   35POPC  H13A 4642   3.030   1.802  10.900 -1.8242  0.5877  0.0114
   35POPC  H13B 4643   3.154   1.856  10.997 -0.0364 -1.4086 -1.7660
   35POPC  H13C 4644   2.980   1.887  11.044 -0.5173 -0.3709 -0.2576
   35POPC   C14 4645   3.148   2.009  10.779 -0.0932  0.4508 -0.3318
   35POPC  H14A 4646   3.141   1.915  10.725 -1.1450  1.3181 -1.7338
   35POPC  H14B 4647   3.119   2.092  10.717 -0.3780  2.2292  2.0800
   35POPC  H14C 4648   3.252   2.014  10.806  0.1350  1.7620 -1.4574
   35POPC   C15 4649   3.132   2.113  10.999  0.3269  0.2461 -0.7151
   35POPC  H15A 4650   3.087   2.122  11.096 -0.7864 -2.6920 -0.9157
   35POPC  H15B 4651   3.142   2.211  10.953 -1.9376  1.4421  1.2407
   35POPC  H15C 4652   3.231   2.075  11.020 -0.6668 -0.6485  2.5611
   35POPC   C11 4653   2.921   2.217  10.825  0.6791  0.0684  0.2815
   35POPC  H11A 4654   2.825   2.216  10.769 -0.2749 -2.1517  1.8767
   35POPC  H11B 4655   2.997   2.256  10.754 -1.0212  2.3284 -0.3589
   35POPC     P 4656   2.814   2.417  10.956 -0.1641 -0.0539  0.5772
   35POPC   O13 4657   2.864   2.502  11.071  0.3820 -0.0238  0.3006
   35POPC   O14 4658   2.682   2.346  10.976 -0.0466  0.2258  0.1533
   35POPC   O12 4659   2.924   2.306  10.936 -0.4841 -0.2250  0.1147
   35POPC   O11 4660   2.825   2.504  10.825 -0.2125  0.4026 -0.4519
   35POPC    C1 4661   2.791   2.456  10.699  0.5894  0.3495  0.1788
   35POPC    HA 4662   2.712   2.378  10.697  0.8206  0.1101  0.2563
   35POPC    HB 4663   2.883   2.408  10.658  0.5030 -0.6073  1.1027
   35POPC    C2 4664   2.738   2.563  10.600 -0.0935 -0.0144 -0.0538
   35POPC    HS 4665   2.685   2.525  10.510 -0.3682 -0.3215  0.2325
   35POPC   O21 4666   2.859   2.645  10.567 -0.0423  0.1149  0.3635
   35POPC   C21 4667   2.913   2.615  10.455  0.6075  0.3314  0.1612
   35POPC   O22 4668   2.872   2.533  10.379  0.0153  0.3912  0.5468
   35POPC   C22 4669   3.045   2.694  10.433  0.7095  0.1534  0.3437
   35POPC   H2R 4670   3.097   2.630  10.358  0.6409  0.1612  0.2897
   35POPC   H2S 4671   3.100   2.694  10.530  0.8807 -1.2968  0.2609
   35POPC    C3 4672   2.632   2.646  10.678 -0.3126 -0.2549  0.0860
   35POPC    HX 4673   2.697   2.709  10.743  2.8723 -0.6016 -2.6260
   35POPC    HY 4674   2.556   2.585  10.733  1.6444 -2.5141  0.3388
   35POPC   O31 4675   2.569   2.739  10.582 -0.1454 -0.5207  0.0368
   35POPC   C31 4676   2.451   2.709  10.526 -0.5810 -0.4311  0.5324
   35POPC   O32 4677   2.378   2.617  10.555 -0.3183 -0.5773 -0.2584
   35POPC   C32 4678   2.426   2.807  10.410  0.0986  0.2766 -0.1918
   35POPC   H2X 4679   2.439   2.903  10.465  0.3610 -0.6382  1.3541
   35POPC   H2Y 4680   2.326   2.779  10.371  0.0536  1.1261 -0.7136
   35POPC   C23 4681   3.036   2.836  10.372 -0.0449  0.5648 -0.1464
   35POPC   H3R 4682   3.137   2.880  10.382 -0.3582  0.9333  1.5552
   35POPC   H3S 4683   2.960   2.892  10.431 -0.4260 -2.4551  2.3945
   35POPC   C24 4684   2.991   2.831  10.229  0.1613 -0.1311 -0.0494
   35POPC   H4R 4685   2.885   2.797  10.220  0.1053 -0.0888  0.4387
   35POPC   H4S 4686   3.065   2.765  10.179  0.8322  0.1591  0.5505
   35POPC   C25 4687   2.996   2.973  10.157  0.1722  0.0529 -0.1608
   35POPC   H5R 4688   3.088   3.022  10.197 -0.4776  0.8140  0.4383
   35POPC   H5S 4689   2.904   3.027  10.190 -0.2560 -2.3439  2.7357
   35POPC   C26 4690   3.016   2.972  10.002  0.2038  0.1831  0.0923
   35POPC   H6R 4691   3.085   2.888   9.982  0.9355  0.4500  1.4515
   35POPC   H6S 4692   3.071   3.056   9.954 -0.3100  0.2481 -0.3908
   35POPC   C27 4693   2.882   2.941   9.928  0.0489  0.0404 -0.6251
   35POPC   H7R 4694   2.820   3.033   9.927 -2.8748 -1.8342 -1.3570
   35POPC   H7S 4695   2.838   2.856   9.985  2.6006 -1.5405 -0.9664
   35POPC   C28 4696   2.915   2.887   9.792  0.3239  0.0007  0.0541
   35POPC   H8R 4697   2.971   2.790   9.790  2.2814  1.0572  1.4187
   35POPC   H8S 4698   2.987   2.953   9.740  0.7643 -0.2957  0.2741
   35POPC   C29 4699   2.783   2.870   9.703  0.4084 -0.9091 -0.9522
   35POPC   H91 4700   2.720   2.788   9.739  1.4926 -0.8340  1.1632
   35POPC  C210 4701   2.759   2.931   9.582 -0.1166 -0.4955 -0.1399
   35POPC  H101 4702   2.659   2.924   9.538  0.3812  1.2532 -1.6246
   35POPC  C211 4703   2.833   3.025   9.493 -0.2264 -1.0075 -0.5932
   35POPC  H11R 4704   2.919   3.066   9.549 -1.4869 -1.3461  1.6242
   35POPC  H11S 4705   2.767   3.110   9.463 -0.5042 -1.3036 -0.8322
   35POPC  C212 4706   2.879   2.960   9.359 -0.5004  0.5127 -0.9102
   35POPC  H12R 4707   2.913   3.031   9.281  1.0386  0.6916 -0.0864
   35POPC  H12S 4708   2.794   2.911   9.307  0.3686 -2.8546  0.7109
   35POPC  C213 4709   2.998   2.858   9.383  0.2506 -0.2416 -0.3497
   35POPC  H13R 4710   2.966   2.768   9.440  1.3884 -0.0516  0.6085
   35POPC  H13S 4711   3.081   2.906   9.439 -0.4700  0.9366 -0.2649
   35POPC  C214 4712   3.059   2.799   9.259  0.8565  0.4259  0.7653
   35POPC  H14R 4713   3.149   2.745   9.297  1.8117  1.1639 -0.4073
   35POPC  H14S 4714   3.083   2.887   9.195 -0.7995  0.3038 -0.0597
   35POPC  C215 4715   2.969   2.708   9.171  0.5665 -0.0064 -0.0491
   35POPC  H15R 4716   2.880   2.775   9.169 -0.1121 -0.8599  1.2053
   35POPC  H15S 4717   2.933   2.611   9.210  0.5529  0.5998  1.4690
   35POPC  C216 4718   3.018   2.682   9.032 -0.6025 -0.0363  0.0888
   35POPC  H16R 4719   3.094   2.602   9.038 -1.4780 -0.9625 -0.7817
   35POPC  H16S 4720   3.077   2.774   9.010 -1.2368 -0.1230 -2.0923
   35POPC  C217 4721   2.906   2.648   8.928 -1.1329  0.4964  0.2103
   35POPC  H17R 4722   2.957   2.632   8.831 -0.8989  0.2156  0.3806
   35POPC  H17S 4723   2.844   2.741   8.924 -1.2944  0.3992  0.4526
   35POPC  C218 4724   2.829   2.529   8.974  0.9263  0.2952  0.2767
   35POPC  H18R 4725   2.744   2.508   8.906  1.6809  0.5306 -0.7479
   35POPC  H18S 4726   2.786   2.537   9.076 -0.9803 -1.8009 -0.3227
   35POPC  H18T 4727   2.891   2.436   8.978  0.8681  0.0849 -2.8898
   35POPC   C33 4728   2.521   2.787  10.292  0.3703  0.1784  0.5314
   35POPC   H3X 4729   2.622   2.833  10.302  1.0413 -1.6192  2.2070
   35POPC   H3Y 4730   2.483   2.842  10.203 -2.7459  0.6069  2.0700
   35POPC   C34 4731   2.533   2.643  10.245  0.0243  0.4046  0.8121
   35POPC   H4X 4732   2.454   2.577  10.287 -0.7131  0.3323 -0.6646
   35POPC   H4Y 4733   2.634   2.608  10.272  1.4350  2.6730 -1.2584
   35POPC   C35 4734   2.500   2.632  10.092 -0.4812 -0.3470 -0.3307
   35POPC   H5X 4735   2.524   2.528  10.063  0.1794  0.3479 -2.3679
   35POPC   H5Y 4736   2.571   2.702  10.044 -0.2250 -0.9881 -0.8917
   35POPC   C36 4737   2.355   2.658  10.042  0.1842  0.2492 -0.3230
   35POPC   H6X 4738   2.336   2.765  10.067 -1.5876  0.0354 -0.6518
   35POPC   H6Y 4739   2.287   2.595  10.103 -0.8681 -1.5290 -3.2409
   35POPC   C37 4740   2.331   2.640   9.892  0.2493 -0.9075  0.3541
   35POPC   H7X 4741   2.224   2.668   9.879  0.3981 -0.4285  0.1813
   35POPC   H7Y 4742   2.341   2.537   9.852  2.2146 -0.6065  0.0432
   35POPC   C38 4743   2.425   2.727   9.810 -0.4388 -0.6812  0.5332
   35POPC   H8X 4744   2.526   2.680   9.808 -0.6058 -1.0069 -0.0954
   35POPC   H8Y 4745   2.447   2.823   9.861  2.2329 -0.9236 -0.0771
   35POPC   C39 4746   2.389   2.754   9.666 -0.6235 -0.1059  0.4475
   35POPC   H9X 4747   2.468   2.822   9.628  1.4835 -3.6221 -1.6979
   35POPC   H9Y 4748   2.296   2.815   9.671 -1.5817 -1.6530  2.0672
   35POPC  C310 4749   2.366   2.628   9.582  0.0052 -0.0942 -0.7165
   35POPC  H10X 4750   2.310   2.661   9.492  0.0717 -0.2045 -0.8000
   35POPC  H10Y 4751   2.303   2.565   9.648  2.5066 -1.3111  0.5989
   35POPC  C311 4752   2.496   2.565   9.522  0.3942  0.1847  0.0710
   35POPC  H11X 4753   2.474   2.466   9.479 -0.4100  0.2282  0.3789
   35POPC  H11Y 4754   2.574   2.556   9.601  1.4410 -1.1256 -1.0754
   35POPC  C312 4755   2.542   2.645   9.395  0.2868  0.2223 -0.3350
   35POPC  H12X 4756   2.652   2.646   9.378  0.5215 -0.9164  1.0412
   35POPC  H12Y 4757   2.507   2.751   9.395 -1.1376 -0.2400 -0.3256
   35POPC  C313 4758   2.479   2.582   9.264  0.8636 -0.1604 -0.5333
   35POPC  H13X 4759   2.371   2.565   9.285  1.2157 -1.4632  0.2661
   35POPC  H13Y 4760   2.528   2.484   9.249 -0.4939 -0.9465  0.0432
   35POPC  C314 4761   2.495   2.661   9.136  0.2533  0.5450 -0.5133
   35POPC  H14X 4762   2.601   2.658   9.101  0.0157 -0.6069 -1.1864
   35POPC  H14Y 4763   2.454   2.764   9.145  1.2684  0.8322  1.0540
   35POPC  C315 4764   2.422   2.590   9.028 -0.0002 -0.1743 -0.0198
   35POPC  H15X 4765   2.315   2.588   9.059  0.1033 -0.9784  0.2825
   35POPC  H15Y 4766   2.455   2.485   9.013  1.6034 -0.2017  3.3855
   35POPC  C316 4767   2.422   2.676   8.901 -0.2629 -0.0672  0.7432
   35POPC  H16X 4768   2.337   2.746   8.911  1.9202  2.8420 -0.3019
   35POPC  H16Y 4769   2.387   2.623   8.809  1.6152 -0.6832  0.3555
   35POPC  H16Z 4770   2.521   2.725   8.888 -1.0088  1.5856  1.2103
   36POPC     N 4771   3.604   0.533  10.843 -0.1211  0.2033 -0.6899
   36POPC   C12 4772   3.484   0.631  10.824  0.3169 -0.8897 -0.1484
   36POPC  H12A 4773   3.509   0.705  10.749 -1.3187  0.6919  0.8257
   36POPC  H12B 4774   3.465   0.689  10.913 -2.7793 -0.8048 -0.8142
   36POPC   C13 4775   3.633   0.466  10.712  0.2502  0.0292  1.0653
   36POPC  H13A 4776   3.554   0.410  10.665  1.8111 -0.6277 -0.8792
   36POPC  H13B 4777   3.680   0.536  10.644  0.5614  1.1077  2.3890
   36POPC  H13C 4778   3.712   0.392  10.715  0.2820 -0.0860 -1.1750
   36POPC   C14 4779   3.724   0.608  10.892 -0.0025  0.2644  0.3955
   36POPC  H14A 4780   3.750   0.680  10.817 -0.0680  0.8393  0.9230
   36POPC  H14B 4781   3.701   0.663  10.982  0.2973  0.0891  0.5774
   36POPC  H14C 4782   3.805   0.537  10.905 -1.2518 -1.5190 -1.2075
   36POPC   C15 4783   3.572   0.420  10.935 -0.4228 -0.6791  0.0450
   36POPC  H15A 4784   3.646   0.342  10.926 -0.7538 -0.9558 -0.3352
   36POPC  H15B 4785   3.484   0.365  10.906 -0.7874  0.8203 -1.8453
   36POPC  H15C 4786   3.562   0.455  11.037  2.8493 -3.6940  1.4864
   36POPC   C11 4787   3.352   0.564  10.781  0.1625  0.1223 -0.2787
   36POPC  H11A 4788   3.375   0.502  10.692 -1.8983 -0.3433 -0.5303
   36POPC  H11B 4789   3.286   0.645  10.742  1.4014  1.6775  0.8225
   36POPC     P 4790   3.214   0.567  11.009 -0.4118 -0.3342 -0.1738
   36POPC   O13 4791   3.320   0.637  11.089 -0.6059  0.3702 -0.1919
   36POPC   O14 4792   3.140   0.475  11.093 -0.2625 -0.4248  0.0115
   36POPC   O12 4793   3.278   0.489  10.885 -0.0210 -0.1382 -0.4551
   36POPC   O11 4794   3.131   0.679  10.939  1.1786 -0.3640  0.5540
   36POPC    C1 4795   2.996   0.648  10.891 -0.0881  0.5999  0.5925
   36POPC    HA 4796   2.953   0.745  10.857 -0.8452  0.2114  0.4310
   36POPC    HB 4797   2.935   0.593  10.966 -0.2329  0.9175  0.7078
   36POPC    C2 4798   2.981   0.574  10.750  0.3610  0.1405 -0.9005
   36POPC    HS 4799   3.034   0.478  10.768 -1.7416 -1.0938 -1.1310
   36POPC   O21 4800   3.044   0.649  10.643 -0.4210 -0.0860 -0.2368
   36POPC   C21 4801   3.071   0.589  10.532  0.1296 -0.0808 -0.4967
   36POPC   O22 4802   3.064   0.471  10.511 -0.0916  0.9507 -0.8824
   36POPC   C22 4803   3.106   0.698  10.427 -0.2576 -0.3428 -0.2377
   36POPC   H2R 4804   3.185   0.759  10.476 -0.8237 -1.1945  1.7668
   36POPC   H2S 4805   3.019   0.768  10.430 -0.7983 -1.0470  4.4600
   36POPC    C3 4806   2.830   0.550  10.731  0.5031  1.1727 -0.2675
   36POPC    HX 4807   2.779   0.648  10.714 -1.7492  0.0660 -0.1625
   36POPC    HY 4808   2.784   0.515  10.826 -0.3117 -1.6231 -1.6328
   36POPC   O31 4809   2.802   0.453  10.626  0.4624 -0.4499  0.0612
   36POPC   C31 4810   2.757   0.484  10.508  0.1475 -0.0759 -0.2871
   36POPC   O32 4811   2.731   0.596  10.467  0.1540 -0.0571 -0.4867
   36POPC   C32 4812   2.747   0.346  10.425 -0.7367 -0.3827 -0.0911
   36POPC   H2X 4813   2.662   0.290  10.471 -0.5912 -0.4045  0.1522
   36POPC   H2Y 4814   2.841   0.293  10.451 -1.2205 -0.1715  2.2551
   36POPC   C23 4815   3.152   0.654  10.280  0.1545  0.2031 -0.2196
   36POPC   H3R 4816   3.136   0.544  10.273  2.6084 -0.1366 -0.6002
   36POPC   H3S 4817   3.262   0.651  10.286  0.1040  0.4719  1.1551
   36POPC   C24 4818   3.106   0.730  10.154  0.4469 -0.4261 -0.4672
   36POPC   H4R 4819   3.123   0.837  10.177 -0.2819 -0.1030 -1.4238
   36POPC   H4S 4820   2.995   0.723  10.150  0.0752  4.2416 -0.9387
   36POPC   C25 4821   3.175   0.699  10.019 -0.0122 -0.2079  0.6056
   36POPC   H5R 4822   3.128   0.603   9.991 -2.1551  0.7156  0.9529
   36POPC   H5S 4823   3.285   0.685  10.029  0.3765  0.0805 -2.6716
   36POPC   C26 4824   3.135   0.792   9.902 -0.4887 -0.3307  0.0540
   36POPC   H6R 4825   3.155   0.896   9.936 -0.6291 -1.0555  2.4424
   36POPC   H6S 4826   3.027   0.788   9.878  0.1758 -0.4559 -3.2223
   36POPC   C27 4827   3.223   0.758   9.778 -0.4070 -0.5047  0.0833
   36POPC   H7R 4828   3.264   0.655   9.782  1.4761  0.2725  1.5176
   36POPC   H7S 4829   3.312   0.824   9.770 -1.0721  0.2115 -1.8151
   36POPC   C28 4830   3.135   0.789   9.653 -0.0594  0.2321 -0.5433
   36POPC   H8R 4831   3.120   0.899   9.658  1.3686  0.4324 -0.4323
   36POPC   H8S 4832   3.041   0.731   9.659 -0.1373  0.4945  0.9035
   36POPC   C29 4833   3.211   0.765   9.526  0.5318 -0.6252  0.0027
   36POPC   H91 4834   3.192   0.663   9.487 -1.0552 -0.2867 -0.1476
   36POPC  C210 4835   3.308   0.839   9.463 -0.2638 -0.1623 -0.4570
   36POPC  H101 4836   3.350   0.795   9.371 -0.2741 -2.1000  0.4447
   36POPC  C211 4837   3.363   0.968   9.514 -0.6221 -0.1521 -0.1698
   36POPC  H11R 4838   3.413   0.941   9.609  0.8794  0.1166 -0.8768
   36POPC  H11S 4839   3.280   1.032   9.550 -1.4243 -1.9196  1.2049
   36POPC  C212 4840   3.471   1.022   9.410 -0.3799 -0.2463 -0.0171
   36POPC  H12R 4841   3.558   0.956   9.392  0.6715  1.4201 -1.1596
   36POPC  H12S 4842   3.532   1.104   9.455  1.5177 -1.8086  0.3296
   36POPC  C213 4843   3.401   1.078   9.282 -0.4084  0.4466 -0.4487
   36POPC  H13R 4844   3.331   1.158   9.314 -1.4158 -0.1250 -1.1631
   36POPC  H13S 4845   3.341   0.991   9.247 -1.3870  0.8507  0.2126
   36POPC  C214 4846   3.490   1.132   9.168  0.1431 -0.0530 -0.4769
   36POPC  H14R 4847   3.560   1.050   9.140 -0.9072 -0.7338 -1.1391
   36POPC  H14S 4848   3.552   1.218   9.201 -1.6557  1.1061 -0.0652
   36POPC  C215 4849   3.410   1.160   9.044 -0.4299 -0.3883  1.4518
   36POPC  H15R 4850   3.350   1.254   9.055 -0.9240 -0.4453 -0.5851
   36POPC  H15S 4851   3.336   1.078   9.033 -0.1462 -0.6696  1.6245
   36POPC  C216 4852   3.497   1.166   8.923  0.1045  0.1016  0.1552
   36POPC  H16R 4853   3.534   1.065   8.897 -0.4948  0.1269 -0.8143
   36POPC  H16S 4854   3.592   1.217   8.951  0.8310 -0.1550 -1.7995
   36POPC  C217 4855   3.436   1.223   8.796  0.5465  0.5486  1.2768
   36POPC  H17R 4856   3.399   1.324   8.823 -0.6789  1.2922 -2.8053
   36POPC  H17S 4857   3.352   1.158   8.762  1.6736  0.3701 -1.2919
   36POPC  C218 4858   3.551   1.237   8.687  1.0930 -0.7496 -0.2587
   36POPC  H18R 4859   3.565   1.141   8.633  1.9980 -0.6431 -0.2347
   36POPC  H18S 4860   3.647   1.277   8.726 -0.2811  2.0698  0.3811
   36POPC  H18T 4861   3.512   1.308   8.611  0.7235  0.3622  0.9565
   36POPC   C33 4862   2.709   0.356  10.273  0.3399  0.9118 -0.3280
   36POPC   H3X 4863   2.641   0.443  10.266  0.8014  1.1205 -2.3807
   36POPC   H3Y 4864   2.678   0.255  10.238  0.9025  0.9427 -0.9210
   36POPC   C34 4865   2.822   0.395  10.180  0.1939  0.0046 -0.1603
   36POPC   H4X 4866   2.901   0.324  10.213 -0.8690  0.1897  2.8756
   36POPC   H4Y 4867   2.860   0.497  10.199  2.5440 -1.0155  0.8929
   36POPC   C35 4868   2.794   0.365  10.035  0.0433  0.0116 -0.1626
   36POPC   H5X 4869   2.742   0.268  10.023 -0.2462  0.3570 -1.8606
   36POPC   H5Y 4870   2.890   0.350   9.980 -0.4359 -0.6328 -0.8165
   36POPC   C36 4871   2.705   0.479   9.974  0.1900 -0.1252  0.6395
   36POPC   H6X 4872   2.745   0.581   9.995  1.6538 -0.0499 -2.2651
   36POPC   H6Y 4873   2.603   0.489  10.016  0.8962  2.0081  1.9569
   36POPC   C37 4874   2.691   0.457   9.822  0.8800  1.3319  0.4487
   36POPC   H7X 4875   2.618   0.375   9.809 -0.3082  2.5875 -0.9213
   36POPC   H7Y 4876   2.795   0.431   9.793  0.2298 -1.8291  0.7363
   36POPC   C38 4877   2.666   0.583   9.745 -0.2590  0.3651 -0.4885
   36POPC   H8X 4878   2.728   0.662   9.793  1.0189 -0.0084 -1.5217
   36POPC   H8Y 4879   2.561   0.618   9.759 -0.3451 -0.7759  1.9812
   36POPC   C39 4880   2.706   0.576   9.595 -0.6579 -0.7789  1.1770
   36POPC   H9X 4881   2.648   0.493   9.550  1.8372 -2.3627  0.8100
   36POPC   H9Y 4882   2.809   0.537   9.585 -0.8293 -0.7090 -0.9732
   36POPC  C310 4883   2.692   0.707   9.510  0.2965  0.1073  0.4880
   36POPC  H10X 4884   2.764   0.781   9.552  1.4713 -1.0456  0.5497
   36POPC  H10Y 4885   2.591   0.742   9.542 -0.1138 -0.8821  0.2883
   36POPC  C311 4886   2.703   0.687   9.353 -0.7814 -0.1909 -0.0249
   36POPC  H11X 4887   2.650   0.775   9.313 -1.1772 -0.1659  0.5540
   36POPC  H11Y 4888   2.673   0.585   9.319  1.0241 -0.7536  0.0326
   36POPC  C312 4889   2.855   0.696   9.309 -0.2911 -0.3628  0.0938
   36POPC  H12X 4890   2.915   0.634   9.379 -2.6318 -1.3318  1.2891
   36POPC  H12Y 4891   2.880   0.802   9.331  0.6543 -0.6823  0.6016
   36POPC  C313 4892   2.886   0.666   9.162 -0.5047  0.1931  0.4845
   36POPC  H13X 4893   2.846   0.564   9.144  1.0563 -0.2944 -0.2815
   36POPC  H13Y 4894   2.995   0.655   9.144 -0.2669  0.7230  1.5871
   36POPC  C314 4895   2.825   0.763   9.055  0.4036  0.3134  0.5956
   36POPC  H14X 4896   2.715   0.747   9.055 -0.0283  2.9315 -1.0048
   36POPC  H14Y 4897   2.870   0.723   8.962  1.4521 -0.7197  1.5337
   36POPC  C315 4898   2.859   0.910   9.074  0.1049  0.1091  0.2249
   36POPC  H15X 4899   2.817   0.947   9.170 -0.4762 -0.2031  0.0938
   36POPC  H15Y 4900   2.798   0.970   9.002 -0.4102  1.5839  1.8586
   36POPC  C316 4901   3.006   0.958   9.063  0.2746  0.0320  0.8042
   36POPC  H16X 4902   3.018   1.069   9.069  1.4391 -0.0968  0.8343
   36POPC  H16Y 4903   3.051   0.933   8.965  2.6116 -0.5297  1.9865
   36POPC  H16Z 4904   3.071   0.907   9.137 -2.5039 -2.0313  1.9196
   37POPC     N 4905   1.315   3.564   6.323  0.1381 -0.2122 -0.4310
   37POPC   C12 4906   1.285   3.495   6.452  0.3105 -0.1155  0.3435
   37POPC  H12A 4907   1.245   3.397   6.435 -0.7089  0.4674 -0.6444
   37POPC  H12B 4908   1.204   3.554   6.492  0.8737  1.0724 -0.2209
   37POPC   C13 4909   1.439   3.515   6.256 -0.0845  0.0703  0.1147
   37POPC  H13A 4910   1.469   3.589   6.184  0.3481 -0.2827 -0.0732
   37POPC  H13B 4911   1.523   3.503   6.324  0.4167  0.9517 -0.3474
   37POPC  H13C 4912   1.431   3.414   6.218 -0.8798  0.3546 -0.4622
   37POPC   C14 4913   1.207   3.536   6.232 -0.1722 -0.4395  0.4778
   37POPC  H14A 4914   1.203   3.431   6.207  3.1096 -0.9523  1.8895
   37POPC  H14B 4915   1.115   3.576   6.272 -1.2502 -0.5638 -1.8009
   37POPC  H14C 4916   1.220   3.593   6.142  2.9962 -0.5200  0.8343
   37POPC   C15 4917   1.335   3.711   6.351 -0.4666  0.0416  0.2516
   37POPC  H15A 4918   1.246   3.762   6.385 -1.9652 -0.4552 -2.7544
   37POPC  H15B 4919   1.373   3.770   6.270 -0.3192  0.8236  0.8816
   37POPC  H15C 4920   1.410   3.729   6.427 -0.5714  2.2785 -0.1579
   37POPC   C11 4921   1.392   3.496   6.566 -0.0196  0.4153 -0.1622
   37POPC  H11A 4922   1.495   3.487   6.527  0.3371  0.4305  0.7631
   37POPC  H11B 4923   1.374   3.407   6.630 -0.9857  0.9023  0.2623
   37POPC     P 4924   1.298   3.644   6.766 -0.1512 -0.1034 -0.1236
   37POPC   O13 4925   1.158   3.632   6.732  0.0318 -0.1046  0.3071
   37POPC   O14 4926   1.346   3.763   6.835 -0.4455  0.6410 -0.5201
   37POPC   O12 4927   1.379   3.621   6.636 -0.5964 -0.0096  0.4574
   37POPC   O11 4928   1.345   3.518   6.847 -0.0299  0.3359  0.1499
   37POPC    C1 4929   1.470   3.512   6.912  0.1219 -0.2734  0.1928
   37POPC    HA 4930   1.524   3.609   6.913 -0.7672  0.2268 -0.0902
   37POPC    HB 4931   1.527   3.428   6.867  0.6296  0.5338 -0.6758
   37POPC    C2 4932   1.448   3.476   7.060 -0.0319 -0.1861  0.6928
   37POPC    HS 4933   1.545   3.491   7.112  0.0626  2.3200 -0.1415
   37POPC   O21 4934   1.383   3.348   7.076 -0.0884 -0.6047 -0.1297
   37POPC   C21 4935   1.461   3.245   7.068  0.0565 -0.5389 -0.4919
   37POPC   O22 4936   1.582   3.241   7.055  0.0792 -0.1468  0.5392
   37POPC   C22 4937   1.368   3.125   7.079  0.0735  0.5997 -0.1133
   37POPC   H2R 4938   1.434   3.037   7.068 -1.6879 -1.0176  1.6873
   37POPC   H2S 4939   1.304   3.134   6.988 -0.1241  0.1953 -0.0144
   37POPC    C3 4940   1.356   3.583   7.115 -0.1639 -0.7672 -0.5560
   37POPC    HX 4941   1.257   3.586   7.065  0.2626  0.7885 -1.3732
   37POPC    HY 4942   1.410   3.678   7.093  0.9318 -0.8948  1.4116
   37POPC   O31 4943   1.355   3.579   7.262  0.3318 -0.2145  0.4223
   37POPC   C31 4944   1.253   3.518   7.330 -0.4912 -0.0742 -0.0408
   37POPC   O32 4945   1.162   3.459   7.276  0.5957  0.5063  0.3798
   37POPC   C32 4946   1.284   3.518   7.483 -0.6044 -0.4178 -0.2505
   37POPC   H2X 4947   1.227   3.434   7.529 -1.5606  0.5392  0.3168
   37POPC   H2Y 4948   1.237   3.616   7.506  1.7291  1.2665 -2.3756
   37POPC   C23 4949   1.287   3.111   7.214  0.8557 -0.0829  0.3172
   37POPC   H3R 4950   1.232   3.015   7.211  0.5484  0.0981  0.0540
   37POPC   H3S 4951   1.220   3.199   7.226 -0.2628 -1.0203  0.9289
   37POPC   C24 4952   1.376   3.102   7.345  0.0409 -0.9397 -0.0841
   37POPC   H4R 4953   1.444   3.190   7.348  0.0641 -0.9154 -1.0682
   37POPC   H4S 4954   1.440   3.012   7.337  1.2138  0.0769 -3.3524
   37POPC   C25 4955   1.291   3.100   7.477  0.1132 -0.0138  0.5060
   37POPC   H5R 4956   1.219   3.016   7.466 -0.0171  0.0747  0.6993
   37POPC   H5S 4957   1.229   3.192   7.478  0.8713  0.5013  0.7136
   37POPC   C26 4958   1.376   3.101   7.599  0.2648  0.3510 -0.1744
   37POPC   H6R 4959   1.433   3.196   7.589  1.3883  0.0297  2.7399
   37POPC   H6S 4960   1.457   3.026   7.600  0.4267  0.4673 -2.3687
   37POPC   C27 4961   1.293   3.104   7.723 -0.0633  0.0837  0.1023
   37POPC   H7R 4962   1.205   3.038   7.705  0.0929 -1.3349  4.1520
   37POPC   H7S 4963   1.255   3.208   7.730 -0.2136 -0.1621  3.8549
   37POPC   C28 4964   1.371   3.074   7.853 -0.3103 -0.5472  0.2357
   37POPC   H8R 4965   1.417   2.977   7.825 -0.1567 -0.0470 -1.3037
   37POPC   H8S 4966   1.297   3.065   7.935  1.3543 -0.6460  1.7353
   37POPC   C29 4967   1.479   3.166   7.883  0.3366 -0.0473 -0.7932
   37POPC   H91 4968   1.554   3.166   7.801 -1.8827  0.5293 -2.8822
   37POPC  C210 4969   1.491   3.242   7.990 -0.0698 -0.3111 -1.2052
   37POPC  H101 4970   1.573   3.315   7.988  0.4086 -0.8394 -1.1158
   37POPC  C211 4971   1.397   3.249   8.117 -0.4472 -0.0106 -0.0790
   37POPC  H11R 4972   1.290   3.229   8.098 -0.7741  1.3234  0.2981
   37POPC  H11S 4973   1.394   3.355   8.150 -0.5143  0.3715 -1.2914
   37POPC  C212 4974   1.447   3.175   8.240  0.2445  0.7645  0.1053
   37POPC  H12R 4975   1.445   3.064   8.233  0.3086  0.7635  0.1049
   37POPC  H12S 4976   1.384   3.197   8.329  1.2253  0.2785  0.9333
   37POPC  C213 4977   1.598   3.210   8.270 -0.2482  0.1959 -0.3777
   37POPC  H13R 4978   1.618   3.307   8.221 -0.0350  0.2952 -0.0985
   37POPC  H13S 4979   1.661   3.139   8.213 -2.2280 -0.4164 -1.8566
   37POPC  C214 4980   1.630   3.201   8.425  0.4996  0.2977 -0.2864
   37POPC  H14R 4981   1.594   3.109   8.478 -2.0079  1.2295 -0.3161
   37POPC  H14S 4982   1.568   3.285   8.463  0.5497  0.4036 -0.4409
   37POPC  C215 4983   1.779   3.218   8.452 -0.0134 -0.0958  0.0422
   37POPC  H15R 4984   1.828   3.232   8.353 -0.4400  1.6296  0.0651
   37POPC  H15S 4985   1.813   3.119   8.491 -1.8337 -0.8459 -0.2142
   37POPC  C216 4986   1.812   3.329   8.555  0.2386 -0.4116 -0.1146
   37POPC  H16R 4987   1.784   3.427   8.512  3.1244  0.3405 -0.3426
   37POPC  H16S 4988   1.921   3.334   8.572  0.4183  2.9587 -1.8957
   37POPC  C217 4989   1.741   3.331   8.690  0.4390  0.6759 -0.4414
   37POPC  H17R 4990   1.764   3.237   8.745  0.4445 -0.1532 -1.8469
   37POPC  H17S 4991   1.633   3.336   8.666  0.6372  1.1532 -1.2324
   37POPC  C218 4992   1.784   3.438   8.785  0.0659  0.6494 -0.1626
   37POPC  H18R 4993   1.893   3.441   8.801  0.2502  0.0402 -1.2213
   37POPC  H18S 4994   1.732   3.418   8.882 -2.1334  0.6299 -1.2981
   37POPC  H18T 4995   1.746   3.533   8.742  1.0474  1.2432  0.2855
   37POPC   C33 4996   1.431   3.520   7.532  0.6260 -0.6404 -0.1275
   37POPC   H3X 4997   1.502   3.525   7.447 -2.2930 -0.3775 -2.6240
   37POPC   H3Y 4998   1.454   3.432   7.597  2.6663 -1.3410 -1.7430
   37POPC   C34 4999   1.460   3.641   7.628 -0.5148 -0.1387  0.6831
   37POPC   H4X 5000   1.418   3.728   7.574  2.5000  1.4505  0.8088
   37POPC   H4Y 5001   1.570   3.644   7.644 -0.2770 -1.0065 -0.7143
   37POPC   C35 5002   1.390   3.618   7.767 -0.5985  0.2690 -0.0661
   37POPC   H5X 5003   1.394   3.509   7.786 -0.1105  0.2502 -0.2531
   37POPC   H5Y 5004   1.282   3.635   7.748 -0.1296  3.0274 -0.5683
   37POPC   C36 5005   1.444   3.714   7.865  0.9643  0.2714 -0.0590
   37POPC   H6X 5006   1.417   3.815   7.827  0.0963  0.4530  1.0114
   37POPC   H6Y 5007   1.555   3.715   7.864  0.9544  0.3439 -0.8074
   37POPC   C37 5008   1.407   3.695   8.015 -0.1513  0.1006  0.3936
   37POPC   H7X 5009   1.434   3.590   8.039 -0.2505  0.2555  1.2082
   37POPC   H7Y 5010   1.300   3.721   8.034 -0.6923 -1.2540 -0.7550
   37POPC   C38 5011   1.483   3.780   8.118 -0.3485  0.2200 -0.2406
   37POPC   H8X 5012   1.453   3.886   8.110 -1.8596 -0.1116  0.6941
   37POPC   H8Y 5013   1.590   3.773   8.089 -0.6073 -1.4276 -0.8828
   37POPC   C39 5014   1.466   3.734   8.261 -0.6356  0.5173 -0.3719
   37POPC   H9X 5015   1.490   3.626   8.267 -3.2358 -0.0944 -0.1772
   37POPC   H9Y 5016   1.365   3.763   8.296 -1.0894 -0.1461 -1.1153
   37POPC  C310 5017   1.569   3.803   8.351  0.6913  0.4607  0.3530
   37POPC  H10X 5018   1.556   3.913   8.336 -1.3808  0.1734 -0.0049
   37POPC  H10Y 5019   1.677   3.776   8.341  0.6921  1.1958 -1.9674
   37POPC  C311 5020   1.535   3.785   8.500 -0.1150  0.2756  0.4540
   37POPC  H11X 5021   1.519   3.676   8.515 -1.6495  0.7965  2.7610
   37POPC  H11Y 5022   1.439   3.830   8.531 -0.3257 -1.5810  2.6290
   37POPC  C312 5023   1.635   3.853   8.595  0.3371 -0.0354 -0.2730
   37POPC  H12X 5024   1.629   3.963   8.577  0.3995  0.0806  0.3806
   37POPC  H12Y 5025   1.740   3.820   8.585  0.7985  1.5851 -1.0372
   37POPC  C313 5026   1.587   3.833   8.743 -0.0090 -0.3632  0.3333
   37POPC  H13X 5027   1.552   3.730   8.767  0.6806 -0.8528 -0.7481
   37POPC  H13Y 5028   1.496   3.895   8.754 -1.0361 -1.9750  1.0979
   37POPC  C314 5029   1.693   3.875   8.848  0.2829 -0.5556  0.1107
   37POPC  H14X 5030   1.715   3.982   8.827  0.5335 -1.2890 -3.6662
   37POPC  H14Y 5031   1.784   3.813   8.838  0.1095 -0.8707  0.4592
   37POPC  C315 5032   1.646   3.870   8.997  0.4072  0.1192  0.2569
   37POPC  H15X 5033   1.548   3.921   8.996  0.7491  0.7861  0.2546
   37POPC  H15Y 5034   1.723   3.923   9.058  2.0210 -1.2445 -0.5513
   37POPC  C316 5035   1.638   3.722   9.046  0.2047 -0.5815  0.7238
   37POPC  H16X 5036   1.621   3.717   9.156 -1.0350 -1.1001  0.5192
   37POPC  H16Y 5037   1.731   3.664   9.028 -0.9180 -2.3414  0.4331
   37POPC  H16Z 5038   1.551   3.665   9.007  1.0640  0.1767 -2.4772
   38POPC     N 5039   3.442   6.244   6.152 -0.4448  0.5239 -0.3032
   38POPC   C12 5040   3.401   6.269   6.294 -0.0010  0.4799  0.2191
   38POPC  H12A 5041   3.313   6.210   6.312  0.0985  0.4635  0.6598
   38POPC  H12B 5042   3.393   6.375   6.315  0.2962  0.4456  0.5166
   38POPC   C13 5043   3.473   6.099   6.123  0.4310 -0.7282 -0.0132
   38POPC  H13A 5044   3.519   6.094   6.025  0.2716  0.9643 -0.2032
   38POPC  H13B 5045   3.544   6.060   6.194  2.2310  0.4407 -1.1256
   38POPC  H13C 5046   3.386   6.034   6.122  1.2443 -1.8371  1.4379
   38POPC   C14 5047   3.323   6.267   6.063  0.3682 -0.0507 -0.2718
   38POPC  H14A 5048   3.351   6.273   5.959  1.1058 -0.5564 -0.1086
   38POPC  H14B 5049   3.250   6.187   6.070  0.2974 -0.0065 -0.5183
   38POPC  H14C 5050   3.270   6.356   6.093 -2.4185 -0.6599 -3.1658
   38POPC   C15 5051   3.548   6.333   6.103 -0.4370 -0.5126  0.0292
   38POPC  H15A 5052   3.546   6.349   5.997  0.8678 -0.8178 -0.0566
   38POPC  H15B 5053   3.644   6.286   6.119  0.0017  1.0474  2.2690
   38POPC  H15C 5054   3.553   6.428   6.154 -0.3660 -0.0271 -0.8824
   38POPC   C11 5055   3.511   6.228   6.396  0.3509 -0.4527 -0.2661
   38POPC  H11A 5056   3.530   6.118   6.393 -3.7994 -1.2352 -0.3916
   38POPC  H11B 5057   3.476   6.238   6.501  0.6881  0.2273 -0.2134
   38POPC     P 5058   3.660   6.445   6.419  0.1880 -0.1776  0.4701
   38POPC   O13 5059   3.555   6.537   6.367  0.1757  0.0333  0.3290
   38POPC   O14 5060   3.800   6.484   6.390  0.6592  0.2944 -0.2378
   38POPC   O12 5061   3.629   6.297   6.372  0.1727 -0.1924 -0.7422
   38POPC   O11 5062   3.656   6.421   6.579 -0.1772  0.3197 -0.6572
   38POPC    C1 5063   3.738   6.309   6.630 -0.3257  0.0313  0.5743
   38POPC    HA 5064   3.846   6.329   6.612  0.1089 -2.2202  0.5328
   38POPC    HB 5065   3.704   6.212   6.588 -0.9873 -0.3628  2.0240
   38POPC    C2 5066   3.732   6.295   6.782 -0.2167 -0.4807  0.0728
   38POPC    HS 5067   3.811   6.226   6.820  0.5780  0.1195 -0.4718
   38POPC   O21 5068   3.604   6.242   6.812  0.1323 -0.1443  0.4498
   38POPC   C21 5069   3.590   6.111   6.794 -0.1616  0.3901  0.0324
   38POPC   O22 5070   3.678   6.035   6.769  0.0147 -0.5147  0.3889
   38POPC   C22 5071   3.442   6.069   6.828  0.0005  0.1574 -0.1663
   38POPC   H2R 5072   3.438   5.958   6.835 -2.3212  0.3264  1.4568
   38POPC   H2S 5073   3.378   6.101   6.744  1.9575 -0.0523 -1.7903
   38POPC    C3 5074   3.747   6.427   6.863  0.1682  0.6652  1.6525
   38POPC    HX 5075   3.666   6.496   6.832 -0.4240  0.2274  2.2246
   38POPC    HY 5076   3.837   6.483   6.829 -2.5951  3.7389 -1.0340
   38POPC   O31 5077   3.742   6.394   7.002 -0.3909 -0.0875 -0.1454
   38POPC   C31 5078   3.850   6.349   7.058  0.5196 -0.4598  0.3813
   38POPC   O32 5079   3.958   6.330   7.012  0.3347  0.5281  0.3887
   38POPC   C32 5080   3.823   6.335   7.208  0.1183 -0.0152 -0.1605
   38POPC   H2X 5081   3.770   6.238   7.223  1.2660 -0.2687  2.3443
   38POPC   H2Y 5082   3.751   6.412   7.244 -0.8700 -0.1067 -1.8315
   38POPC   C23 5083   3.389   6.122   6.971  0.0988 -0.2386  0.4726
   38POPC   H3R 5084   3.293   6.068   6.984 -1.2038  1.5426 -1.3544
   38POPC   H3S 5085   3.371   6.232   6.968  1.6460  0.0096 -0.5896
   38POPC   C24 5086   3.477   6.072   7.087 -0.0079  0.2929 -0.4612
   38POPC   H4R 5087   3.581   6.110   7.075  0.5028 -1.7033 -2.7706
   38POPC   H4S 5088   3.483   5.962   7.094  1.0566  0.4472  1.5239
   38POPC   C25 5089   3.431   6.120   7.222 -0.0967  0.4504 -0.0196
   38POPC   H5R 5090   3.337   6.066   7.246  1.3290 -2.7209 -1.2503
   38POPC   H5S 5091   3.395   6.225   7.223  0.2165  0.5680  2.1438
   38POPC   C26 5092   3.523   6.092   7.345  0.1825 -0.3334  0.1697
   38POPC   H6R 5093   3.474   6.133   7.437 -0.7890  0.4274 -0.6744
   38POPC   H6S 5094   3.624   6.138   7.338 -0.5047  0.9681 -1.5714
   38POPC   C27 5095   3.543   5.938   7.375  0.5914  0.4538  0.0030
   38POPC   H7R 5096   3.607   5.877   7.308  0.7088 -0.5744  1.0177
   38POPC   H7S 5097   3.444   5.889   7.386  1.0190 -0.3083  0.5263
   38POPC   C28 5098   3.607   5.921   7.514  0.1318 -0.6380  0.3374
   38POPC   H8R 5099   3.622   5.811   7.522  1.0915 -0.6127 -0.8390
   38POPC   H8S 5100   3.531   5.952   7.588  0.1333 -2.1447  0.9794
   38POPC   C29 5101   3.735   5.993   7.537 -0.4675 -0.0629 -0.5258
   38POPC   H91 5102   3.816   5.978   7.465 -0.8362 -0.3972 -0.8730
   38POPC  C210 5103   3.766   6.088   7.629  0.5052  0.4000  0.2516
   38POPC  H101 5104   3.861   6.141   7.613  1.0535 -0.5825  0.2746
   38POPC  C211 5105   3.679   6.151   7.728 -0.0597 -0.0414  0.4902
   38POPC  H11R 5106   3.703   6.121   7.833 -0.0008  2.4517  1.2205
   38POPC  H11S 5107   3.573   6.121   7.715 -0.5051  1.0681  1.4537
   38POPC  C212 5108   3.661   6.307   7.726  0.3822  0.3346  0.3825
   38POPC  H12R 5109   3.763   6.351   7.724  0.1627  0.9067  1.3239
   38POPC  H12S 5110   3.618   6.348   7.820  1.4981  2.1388  0.1282
   38POPC  C213 5111   3.567   6.355   7.618 -0.4373  0.2868 -0.2335
   38POPC  H13R 5112   3.474   6.296   7.632 -0.3702 -0.0577 -1.1663
   38POPC  H13S 5113   3.612   6.331   7.519 -1.3280 -0.6854 -0.4139
   38POPC  C214 5114   3.524   6.500   7.621  0.3158  0.4132  0.2893
   38POPC  H14R 5115   3.610   6.568   7.600  0.3970  0.0515 -0.5774
   38POPC  H14S 5116   3.492   6.526   7.724  0.3321 -0.6818  0.5723
   38POPC  C215 5117   3.414   6.539   7.519 -0.5409 -0.1477 -1.4122
   38POPC  H15R 5118   3.380   6.643   7.538 -0.0411 -0.0372 -1.1030
   38POPC  H15S 5119   3.324   6.483   7.553  1.0396 -0.7402  2.0614
   38POPC  C216 5120   3.456   6.519   7.377 -0.6004  1.0409 -0.1024
   38POPC  H16R 5121   3.453   6.409   7.358 -3.3508  1.7392 -4.2354
   38POPC  H16S 5122   3.563   6.546   7.373 -0.1137 -0.9322 -1.3394
   38POPC  C217 5123   3.369   6.599   7.276 -0.5575  0.2700  0.1609
   38POPC  H17R 5124   3.341   6.700   7.313  0.0464  0.5756 -0.2172
   38POPC  H17S 5125   3.271   6.546   7.275 -0.0996 -0.5818  0.2226
   38POPC  C218 5126   3.432   6.589   7.141  0.2447  0.1795 -0.1105
   38POPC  H18R 5127   3.434   6.489   7.094 -1.6440  1.0175 -2.0456
   38POPC  H18S 5128   3.538   6.618   7.157  1.6541 -3.3962 -2.4749
   38POPC  H18T 5129   3.382   6.664   7.076 -2.7623 -0.6166  1.2041
   38POPC   C33 5130   3.947   6.322   7.299  0.2619  0.4388 -0.2471
   38POPC   H3X 5131   4.033   6.287   7.239 -0.4836 -0.3502 -0.8748
   38POPC   H3Y 5132   3.914   6.258   7.383  1.8714 -0.4972 -0.3088
   38POPC   C34 5133   3.978   6.456   7.366  0.1357  0.0224 -0.3121
   38POPC   H4X 5134   3.895   6.477   7.437 -1.3101 -2.0651 -1.3476
   38POPC   H4Y 5135   3.983   6.540   7.293  0.6269  2.0646  1.9942
   38POPC   C35 5136   4.111   6.458   7.441 -0.6792 -0.7331 -0.2013
   38POPC   H5X 5137   4.122   6.559   7.487 -2.0312  0.3737 -2.2496
   38POPC   H5Y 5138   4.203   6.451   7.379  0.3669 -1.6080  1.4068
   38POPC   C36 5139   4.114   6.357   7.555  0.1332  0.0990  0.3966
   38POPC   H6X 5140   4.137   6.260   7.507  0.6360  0.8024 -0.8387
   38POPC   H6Y 5141   4.014   6.343   7.602  0.4517 -0.9572  0.7736
   38POPC   C37 5142   4.213   6.399   7.658  0.4211  0.1285 -0.5639
   38POPC   H7X 5143   4.187   6.502   7.692 -1.3298 -0.0245 -1.3917
   38POPC   H7Y 5144   4.312   6.405   7.608  0.3487 -0.3887 -0.7760
   38POPC   C38 5145   4.225   6.331   7.794 -0.1422  0.6739  0.2778
   38POPC   H8X 5146   4.242   6.223   7.774 -2.8565  0.2171  0.3092
   38POPC   H8Y 5147   4.131   6.341   7.852 -1.2971  0.4341 -1.5081
   38POPC   C39 5148   4.349   6.386   7.870 -0.1303  0.1965 -0.3420
   38POPC   H9X 5149   4.342   6.497   7.867  1.5921  0.3156 -0.4338
   38POPC   H9Y 5150   4.443   6.351   7.823 -0.4877 -1.2578 -0.0118
   38POPC  C310 5151   4.350   6.361   8.022 -0.1557  0.8505  0.0223
   38POPC  H10X 5152   4.336   6.253   8.043  0.6768  0.8177  0.4052
   38POPC  H10Y 5153   4.255   6.408   8.054 -0.3871 -1.0871  2.3072
   38POPC  C311 5154   4.471   6.420   8.097  0.3036 -0.2591  0.6543
   38POPC  H11X 5155   4.481   6.524   8.060  1.0649 -0.4887  0.2020
   38POPC  H11Y 5156   4.564   6.371   8.062 -0.2771 -1.7138  1.1155
   38POPC  C312 5157   4.472   6.417   8.245  0.9846  0.1629 -0.6238
   38POPC  H12X 5158   4.378   6.469   8.272  0.1091 -1.3436 -0.6858
   38POPC  H12Y 5159   4.543   6.494   8.279 -0.7358  1.2580  0.5817
   38POPC  C313 5160   4.483   6.277   8.315  0.1881  0.9342  0.0405
   38POPC  H13X 5161   4.578   6.231   8.281  0.4207  2.2118 -1.1140
   38POPC  H13Y 5162   4.388   6.226   8.288 -0.7446  1.3134  2.5344
   38POPC  C314 5163   4.507   6.296   8.466  0.1749 -0.2220  0.1975
   38POPC  H14X 5164   4.417   6.336   8.518 -0.1576 -1.2370  0.4143
   38POPC  H14Y 5165   4.582   6.377   8.481 -2.3430  2.0420  0.9597
   38POPC  C315 5166   4.554   6.169   8.548 -0.5691 -0.2173  0.3561
   38POPC  H15X 5167   4.661   6.146   8.530 -0.8867 -0.8969 -0.7596
   38POPC  H15Y 5168   4.501   6.081   8.507 -0.3802  0.0080 -0.3728
   38POPC  C316 5169   4.547   6.190   8.702  0.2034 -0.5369 -0.3276
   38POPC  H16X 5170   4.600   6.113   8.761 -0.9167 -0.8084  0.3349
   38POPC  H16Y 5171   4.442   6.189   8.739  1.0652 -0.9992  2.1685
   38POPC  H16Z 5172   4.598   6.286   8.724 -1.0740  0.0007  0.3534
   39POPC     N 5173   6.258   3.694   6.157 -0.4669 -0.0315 -0.0937
   39POPC   C12 5174   6.193   3.785   6.049 -0.3108 -0.3070 -0.1954
   39POPC  H12A 5175   6.213   3.740   5.953  1.3925  0.3415 -0.1588
   39POPC  H12B 5176   6.241   3.882   6.044 -0.4857 -0.2317 -0.4015
   39POPC   C13 5177   6.410   3.693   6.145 -0.2418 -0.2066  0.0462
   39POPC  H13A 5178   6.451   3.791   6.164 -1.9695  0.4864  0.2412
   39POPC  H13B 5179   6.455   3.641   6.228 -1.0050  1.7475  1.7303
   39POPC  H13C 5180   6.442   3.655   6.049  0.1099  1.8530 -0.6918
   39POPC   C14 5181   6.229   3.746   6.290  0.0574 -0.4891 -0.0862
   39POPC  H14A 5182   6.269   3.845   6.301 -0.2116 -0.4750  0.8204
   39POPC  H14B 5183   6.125   3.777   6.288  0.6526  1.5661  0.1145
   39POPC  H14C 5184   6.260   3.695   6.381  0.7553  0.1408  0.0319
   39POPC   C15 5185   6.193   3.557   6.143 -1.3427 -0.4700  1.1861
   39POPC  H15A 5186   6.206   3.513   6.045 -3.0818 -0.9918  1.1714
   39POPC  H15B 5187   6.088   3.567   6.165 -1.3196 -1.9381  2.0014
   39POPC  H15C 5188   6.242   3.485   6.206  0.5307  2.1539  2.8564
   39POPC   C11 5189   6.037   3.810   6.059  0.6825  0.3195 -0.3275
   39POPC  H11A 5190   5.991   3.712   6.082  3.1658 -0.8728 -0.3012
   39POPC  H11B 5191   6.000   3.845   5.961  0.2831  0.5819 -0.0825
   39POPC     P 5192   6.032   4.046   6.162  0.3827  0.4197 -0.4135
   39POPC   O13 5193   5.902   4.108   6.143 -0.0958  0.6381 -0.1066
   39POPC   O14 5194   6.139   4.081   6.064  0.0566 -0.0215 -0.1632
   39POPC   O12 5195   6.012   3.891   6.177  0.1843 -1.1859 -0.5029
   39POPC   O11 5196   6.088   4.086   6.303 -0.2976 -0.2550 -0.5167
   39POPC    C1 5197   5.995   4.075   6.413  0.4618  0.4918  0.1294
   39POPC    HA 5198   5.948   3.975   6.424 -0.5770  1.2113  2.8143
   39POPC    HB 5199   5.918   4.152   6.391  2.2391  1.9126 -1.3450
   39POPC    C2 5200   6.048   4.120   6.558 -1.2336  0.7242 -0.1879
   39POPC    HS 5201   5.976   4.103   6.641  0.2737  0.5413  1.1033
   39POPC   O21 5202   6.108   4.255   6.558 -0.3030 -0.6764 -0.1570
   39POPC   C21 5203   6.006   4.343   6.548  0.0469 -0.3063 -0.2045
   39POPC   O22 5204   5.888   4.316   6.562  0.0636 -0.0533 -0.5574
   39POPC   C22 5205   6.058   4.480   6.541  0.1190 -0.1846 -0.5305
   39POPC   H2R 5206   5.977   4.555   6.534  0.4630  0.2694  0.2668
   39POPC   H2S 5207   6.117   4.488   6.447 -0.6773 -0.4139 -1.0473
   39POPC    C3 5208   6.160   4.016   6.593 -0.0759 -0.0210  0.6380
   39POPC    HX 5209   6.208   4.071   6.678 -1.6265  3.4437 -0.6259
   39POPC    HY 5210   6.234   4.013   6.510  0.2844  1.7665  0.8566
   39POPC   O31 5211   6.098   3.891   6.637  0.2276 -0.5918  0.1216
   39POPC   C31 5212   6.194   3.801   6.670  0.6239 -0.0098  0.5138
   39POPC   O32 5213   6.312   3.824   6.660  0.0380  0.4977  0.8925
   39POPC   C32 5214   6.126   3.682   6.731  0.2284  0.3441  0.2702
   39POPC   H2X 5215   6.020   3.714   6.740 -0.2751 -1.7929  2.4728
   39POPC   H2Y 5216   6.126   3.598   6.659 -1.5881  2.0350 -1.7688
   39POPC   C23 5217   6.141   4.517   6.666 -0.1238 -0.0620  0.6013
   39POPC   H3R 5218   6.207   4.597   6.626  1.7019 -2.5770 -1.5888
   39POPC   H3S 5219   6.198   4.431   6.707 -2.0028  0.1491  3.8416
   39POPC   C24 5220   6.055   4.582   6.774  0.1032  0.0157  0.2396
   39POPC   H4R 5221   5.999   4.501   6.825  1.8693 -0.2159  1.8547
   39POPC   H4S 5222   5.985   4.654   6.727  1.1434 -1.0956 -3.1410
   39POPC   C25 5223   6.135   4.661   6.880 -0.3373 -0.4548 -0.0463
   39POPC   H5R 5224   6.078   4.754   6.896 -0.9128 -0.8833  0.3977
   39POPC   H5S 5225   6.231   4.694   6.833 -1.0277 -0.4047 -1.4556
   39POPC   C26 5226   6.142   4.594   7.013 -0.3196  0.5269  0.7177
   39POPC   H6R 5227   6.197   4.502   6.983 -2.3083 -0.4673  0.0289
   39POPC   H6S 5228   6.040   4.563   7.045 -2.4472  4.3055 -1.9684
   39POPC   C27 5229   6.210   4.675   7.126 -0.7342  0.2070 -0.2346
   39POPC   H7R 5230   6.157   4.756   7.180 -2.7010 -0.0103 -1.7584
   39POPC   H7S 5231   6.289   4.733   7.074  0.3341  0.1295  1.2821
   39POPC   C28 5232   6.297   4.596   7.231 -0.2347 -0.2565  0.4313
   39POPC   H8R 5233   6.334   4.669   7.306 -0.0355  1.2831 -1.1098
   39POPC   H8S 5234   6.396   4.566   7.189  0.0533  0.1608  0.8107
   39POPC   C29 5235   6.228   4.474   7.285 -0.9362 -0.7261 -0.3189
   39POPC   H91 5236   6.169   4.416   7.213 -0.5655 -1.4940 -0.0097
   39POPC  C210 5237   6.227   4.447   7.415 -0.4017  0.2447  0.2865
   39POPC  H101 5238   6.159   4.369   7.452  0.3436 -0.7716 -0.4510
   39POPC  C211 5239   6.289   4.526   7.528  1.1613 -0.5794 -0.2666
   39POPC  H11R 5240   6.369   4.593   7.489  1.8539 -1.7466 -0.8795
   39POPC  H11S 5241   6.330   4.470   7.614  0.3378 -0.0232  0.4930
   39POPC  C212 5242   6.182   4.613   7.599 -0.2182  0.4872  0.0742
   39POPC  H12R 5243   6.102   4.548   7.641  2.2409 -2.2036  0.7641
   39POPC  H12S 5244   6.138   4.679   7.522 -0.0794 -0.9570 -1.2896
   39POPC  C213 5245   6.236   4.699   7.721  0.1147  0.0270  0.6162
   39POPC  H13R 5246   6.157   4.769   7.755 -0.6268  0.4060 -1.7322
   39POPC  H13S 5247   6.324   4.753   7.679 -0.5156  0.3926 -0.2514
   39POPC  C214 5248   6.276   4.613   7.842  0.0116 -0.2997  0.1342
   39POPC  H14R 5249   6.357   4.545   7.810  0.0041 -0.7720  1.1265
   39POPC  H14S 5250   6.189   4.552   7.876 -1.1988  2.8727  3.0728
   39POPC  C215 5251   6.314   4.701   7.962  0.1658  0.0339 -0.0572
   39POPC  H15R 5252   6.230   4.772   7.979  0.4390 -0.0493  1.7361
   39POPC  H15S 5253   6.409   4.757   7.944  1.2676 -0.8357  2.6880
   39POPC  C216 5254   6.359   4.625   8.088  0.7280 -0.1827 -0.2103
   39POPC  H16R 5255   6.447   4.561   8.065 -0.2054 -0.7320 -2.3615
   39POPC  H16S 5256   6.279   4.559   8.129 -0.4910  2.8437  2.4729
   39POPC  C217 5257   6.403   4.717   8.202  0.5767 -0.1192  0.2395
   39POPC  H17R 5258   6.318   4.776   8.243  0.4095  0.6311 -1.1446
   39POPC  H17S 5259   6.477   4.782   8.150  2.3706 -0.3103  2.5310
   39POPC  C218 5260   6.456   4.643   8.323 -0.2778 -0.2323 -0.9186
   39POPC  H18R 5261   6.384   4.559   8.333 -0.7342  0.4160  1.5694
   39POPC  H18S 5262   6.466   4.707   8.413 -2.1361 -0.4710 -0.5215
   39POPC  H18T 5263   6.554   4.600   8.295  0.4948 -0.4151  1.9477
   39POPC   C33 5264   6.183   3.653   6.867 -0.4784 -0.3808  0.1123
   39POPC   H3X 5265   6.097   3.640   6.936 -0.3461 -1.6768  0.0577
   39POPC   H3Y 5266   6.243   3.738   6.904 -0.3933 -0.0927 -0.6829
   39POPC   C34 5267   6.261   3.517   6.863 -0.4345 -1.0122 -0.4790
   39POPC   H4X 5268   6.360   3.527   6.812  0.3053 -0.5455  1.0110
   39POPC   H4Y 5269   6.201   3.435   6.820 -0.9874  0.0220 -1.7227
   39POPC   C35 5270   6.294   3.468   7.013  0.4189 -0.0179 -0.4317
   39POPC   H5X 5271   6.336   3.366   7.000  0.4523 -0.2873  1.6636
   39POPC   H5Y 5272   6.197   3.454   7.066 -0.1740  2.5774 -0.7530
   39POPC   C36 5273   6.397   3.557   7.088 -0.1062 -0.1489  0.0373
   39POPC   H6X 5274   6.354   3.658   7.103  1.6706  0.6374  0.0062
   39POPC   H6Y 5275   6.489   3.570   7.027  0.7862 -0.9144  1.2082
   39POPC   C37 5276   6.419   3.510   7.229 -0.8164  0.1189 -1.1753
   39POPC   H7X 5277   6.466   3.410   7.215  0.3624  0.5916 -0.6578
   39POPC   H7Y 5278   6.334   3.494   7.298  0.7625  1.1320  1.1034
   39POPC   C38 5279   6.521   3.601   7.310 -1.1014 -0.3418  0.1181
   39POPC   H8X 5280   6.485   3.706   7.315  1.9164  0.6342  3.7311
   39POPC   H8Y 5281   6.613   3.602   7.248 -1.9100  3.2537 -1.1350
   39POPC   C39 5282   6.543   3.560   7.454 -0.2378 -0.8572 -0.2958
   39POPC   H9X 5283   6.557   3.452   7.479 -0.7290 -0.6628  0.8475
   39POPC   H9Y 5284   6.443   3.587   7.495  0.9137  1.5779  0.9889
   39POPC  C310 5285   6.656   3.642   7.518  0.6123 -0.5215  0.2330
   39POPC  H10X 5286   6.625   3.747   7.500 -1.9253 -1.1414  0.7515
   39POPC  H10Y 5287   6.754   3.624   7.469  0.7581  1.1032 -0.1019
   39POPC  C311 5288   6.674   3.615   7.670 -0.0259 -0.3201  0.0909
   39POPC  H11X 5289   6.726   3.518   7.683 -0.0938 -0.2865  0.6453
   39POPC  H11Y 5290   6.574   3.622   7.718  0.6028 -0.6271  1.4806
   39POPC  C312 5291   6.776   3.720   7.729 -0.3413 -0.6119 -0.2733
   39POPC  H12X 5292   6.736   3.821   7.704  1.6541  0.1995 -0.2378
   39POPC  H12Y 5293   6.875   3.722   7.680 -0.0213  2.2520  0.4387
   39POPC  C313 5294   6.794   3.708   7.877  0.0661 -0.2167 -0.3844
   39POPC  H13X 5295   6.853   3.787   7.928 -2.3351  0.2101  1.8576
   39POPC  H13Y 5296   6.846   3.615   7.906 -1.0224 -0.2719  1.4590
   39POPC  C314 5297   6.660   3.717   7.955 -0.1196 -0.5929 -1.3048
   39POPC  H14X 5298   6.592   3.636   7.921 -1.7677  0.0771  0.3604
   39POPC  H14Y 5299   6.611   3.814   7.934 -1.1911 -0.3655  2.0283
   39POPC  C315 5300   6.679   3.720   8.110  0.3040 -0.1561  0.0419
   39POPC  H15X 5301   6.738   3.811   8.134  0.9650 -1.0253  1.7701
   39POPC  H15Y 5302   6.740   3.633   8.140  0.7440  0.1562  0.0641
   39POPC  C316 5303   6.547   3.718   8.189  0.0089  0.7145 -0.1807
   39POPC  H16X 5304   6.573   3.757   8.290  0.6870  0.3424 -0.2066
   39POPC  H16Y 5305   6.520   3.611   8.201  1.0331  0.3738 -0.8435
   39POPC  H16Z 5306   6.472   3.777   8.132  0.7878  0.2898 -1.6941
   40POPC     N 5307   5.745   2.237   6.437  0.4398  0.0030  0.2924
   40POPC   C12 5308   5.687   2.121   6.512  0.1161 -0.0198 -0.3728
   40POPC  H12A 5309   5.640   2.060   6.437  0.2966  0.4952 -0.9142
   40POPC  H12B 5310   5.604   2.165   6.566  1.6844  0.2864  1.8765
   40POPC   C13 5311   5.834   2.317   6.531 -0.7424  0.2685  0.1603
   40POPC  H13A 5312   5.877   2.401   6.478 -0.9882  0.0775 -0.3486
   40POPC  H13B 5313   5.778   2.369   6.608  1.5369  0.1642  1.9198
   40POPC  H13C 5314   5.911   2.259   6.579  2.6284  4.2902 -0.0621
   40POPC   C14 5315   5.822   2.178   6.324  0.4060  0.1768 -0.1932
   40POPC  H14A 5316   5.873   2.255   6.267 -1.3398  2.3383  1.0828
   40POPC  H14B 5317   5.887   2.102   6.364 -0.8751 -0.6842  0.2888
   40POPC  H14C 5318   5.758   2.123   6.256 -1.1357  2.5952 -0.7846
   40POPC   C15 5319   5.638   2.322   6.378  0.2299 -0.3326  0.2471
   40POPC  H15A 5320   5.578   2.371   6.452  1.8508  1.1590  0.6111
   40POPC  H15B 5321   5.574   2.265   6.312  0.9517 -4.5765  3.0113
   40POPC  H15C 5322   5.693   2.403   6.332 -2.3752  1.0346 -0.5446
   40POPC   C11 5323   5.777   2.022   6.600  0.7291  0.2849 -0.4165
   40POPC  H11A 5324   5.708   1.954   6.655 -0.7596  0.7714 -1.6690
   40POPC  H11B 5325   5.842   2.069   6.677 -0.8980  2.4970 -0.3626
   40POPC     P 5326   5.815   1.810   6.444  0.0667  0.2190  0.6008
   40POPC   O13 5327   5.906   1.775   6.336  0.3828 -0.2019 -0.6208
   40POPC   O14 5328   5.677   1.824   6.402  0.3480 -0.1917  0.3412
   40POPC   O12 5329   5.863   1.946   6.512  0.2492  0.1995 -0.3184
   40POPC   O11 5330   5.826   1.705   6.553 -0.2445 -0.0018 -0.3708
   40POPC    C1 5331   5.946   1.675   6.626  0.5919 -0.2155 -0.4503
   40POPC    HA 5332   6.023   1.749   6.596 -0.7347  1.5238  0.3465
   40POPC    HB 5333   5.976   1.571   6.603 -1.1108 -1.0357  0.9043
   40POPC    C2 5334   5.921   1.692   6.780  0.1686 -0.6747 -0.0405
   40POPC    HS 5335   5.951   1.592   6.819 -0.7957 -0.7160  0.5912
   40POPC   O21 5336   5.785   1.719   6.820  0.8337 -0.1959  0.6384
   40POPC   C21 5337   5.689   1.638   6.789  0.0713  0.0504  0.0173
   40POPC   O22 5338   5.703   1.537   6.725  0.0264 -0.0279  0.2332
   40POPC   C22 5339   5.558   1.695   6.850  0.3441  0.5673  0.0140
   40POPC   H2R 5340   5.473   1.690   6.779  0.8479  1.0333 -0.6413
   40POPC   H2S 5341   5.576   1.803   6.870 -2.0397  1.7953 -3.9533
   40POPC    C3 5342   6.015   1.804   6.832  0.6958  0.5905 -0.4101
   40POPC    HX 5343   5.971   1.904   6.812  1.9701  1.2205 -0.0669
   40POPC    HY 5344   6.116   1.792   6.788  0.1608 -4.2709 -0.6513
   40POPC   O31 5345   6.034   1.811   6.978  0.2967 -0.1062 -0.0692
   40POPC   C31 5346   6.086   1.700   7.032 -0.2038  0.5321 -0.0357
   40POPC   O32 5347   6.123   1.602   6.973  0.0445  0.1586 -0.9343
   40POPC   C32 5348   6.072   1.702   7.187  1.1453 -0.3697  0.2911
   40POPC   H2X 5349   5.988   1.772   7.208  1.9026  0.3050  1.0676
   40POPC   H2Y 5350   6.173   1.733   7.219  0.9922  1.5808 -1.0363
   40POPC   C23 5351   5.524   1.609   6.975 -0.6773 -0.3476  0.2663
   40POPC   H3R 5352   5.516   1.503   6.943  2.3633  0.5487 -3.8322
   40POPC   H3S 5353   5.426   1.633   7.020 -0.3854 -0.0637  0.7589
   40POPC   C24 5354   5.627   1.623   7.093  0.4095  0.1317  0.1690
   40POPC   H4R 5355   5.650   1.728   7.120  1.5222  0.6456 -2.6336
   40POPC   H4S 5356   5.725   1.575   7.074 -0.0259 -0.3788 -0.8535
   40POPC   C25 5357   5.568   1.551   7.216  0.0220 -0.3852 -0.1930
   40POPC   H5R 5358   5.549   1.446   7.186  1.4396 -0.4587 -0.8937
   40POPC   H5S 5359   5.471   1.590   7.254 -0.0038 -1.4003  0.8313
   40POPC   C26 5360   5.663   1.543   7.335  0.0231 -0.2860 -0.2777
   40POPC   H6R 5361   5.698   1.644   7.365 -2.3467  0.4336  0.2050
   40POPC   H6S 5362   5.740   1.471   7.302  0.8392 -0.2700  1.5173
   40POPC   C27 5363   5.591   1.483   7.454 -0.2102 -0.3560 -0.2501
   40POPC   H7R 5364   5.550   1.384   7.426 -2.2244  0.5219 -0.4872
   40POPC   H7S 5365   5.508   1.553   7.476 -1.5595 -2.1649  0.4955
   40POPC   C28 5366   5.695   1.457   7.572 -0.0651 -0.2316 -0.3079
   40POPC   H8R 5367   5.751   1.551   7.593  1.7777 -1.8231  2.1601
   40POPC   H8S 5368   5.775   1.390   7.535 -0.3849 -0.4278 -0.6378
   40POPC   C29 5369   5.639   1.382   7.693  0.1587 -0.4512 -0.2287
   40POPC   H91 5370   5.539   1.336   7.687  0.4271 -1.1473  0.5875
   40POPC  C210 5371   5.696   1.389   7.815  0.9225 -0.5012  0.6709
   40POPC  H101 5372   5.640   1.357   7.904 -0.3583 -2.5099 -0.8103
   40POPC  C211 5373   5.826   1.454   7.860 -0.8221 -0.1033  0.1053
   40POPC  H11R 5374   5.815   1.563   7.847 -1.2776 -0.2099 -0.4488
   40POPC  H11S 5375   5.902   1.420   7.787  0.4773  2.4555  0.2431
   40POPC  C212 5376   5.885   1.430   8.000  0.7199 -0.1554 -0.0960
   40POPC  H12R 5377   5.995   1.446   7.998  1.1005 -2.7049 -1.1413
   40POPC  H12S 5378   5.869   1.320   8.005 -0.1013 -0.0165  0.5129
   40POPC  C213 5379   5.813   1.519   8.103  0.0786  0.2760 -1.0168
   40POPC  H13R 5380   5.708   1.534   8.069 -0.2377  0.1268 -0.1155
   40POPC  H13S 5381   5.858   1.621   8.106  1.1697 -0.2486  3.1883
   40POPC  C214 5382   5.807   1.462   8.241  0.3572  0.5667  0.3999
   40POPC  H14R 5383   5.779   1.355   8.244  0.0852  0.5740 -1.2152
   40POPC  H14S 5384   5.727   1.514   8.297 -0.3893  0.5047 -0.5973
   40POPC  C215 5385   5.949   1.466   8.306 -0.3414  0.0033  0.1075
   40POPC  H15R 5386   5.987   1.570   8.310 -0.5208  0.0032  2.8619
   40POPC  H15S 5387   6.018   1.398   8.250 -1.0831 -1.0420  0.4410
   40POPC  C216 5388   5.937   1.412   8.452 -0.8847  0.4669  0.0919
   40POPC  H16R 5389   6.038   1.403   8.499 -0.0086  0.5203 -1.7384
   40POPC  H16S 5390   5.887   1.313   8.445 -0.6198  0.3185  0.2624
   40POPC  C217 5391   5.859   1.507   8.545 -0.5959  0.5153  0.2564
   40POPC  H17R 5392   5.749   1.497   8.531 -0.5816  1.4145 -0.5677
   40POPC  H17S 5393   5.886   1.612   8.522 -2.0357  0.3788 -2.2763
   40POPC  C218 5394   5.868   1.474   8.695 -0.5644  0.0103  0.3828
   40POPC  H18R 5395   5.791   1.527   8.756  1.0529  1.9516  0.8124
   40POPC  H18S 5396   5.967   1.506   8.735 -0.6618  2.6274 -1.3441
   40POPC  H18T 5397   5.852   1.368   8.723  0.8929 -0.6541 -1.1885
   40POPC   C33 5398   6.030   1.568   7.257  0.0728 -0.4666  0.3892
   40POPC   H3X 5399   6.102   1.485   7.241  0.4295 -0.2411  0.8209
   40POPC   H3Y 5400   5.932   1.536   7.216 -0.0802  0.7582 -0.2163
   40POPC   C34 5401   6.007   1.592   7.408  0.9258  0.8466  0.0253
   40POPC   H4X 5402   5.950   1.513   7.462  0.8637  1.4598  0.8592
   40POPC   H4Y 5403   5.931   1.673   7.412 -0.0487 -0.1724  4.0831
   40POPC   C35 5404   6.134   1.630   7.484 -0.0116  1.1319 -0.2203
   40POPC   H5X 5405   6.176   1.728   7.454  0.8362  0.8593  0.0466
   40POPC   H5Y 5406   6.214   1.565   7.442 -0.2426  0.2849  0.6045
   40POPC   C36 5407   6.101   1.616   7.631  0.3119 -0.2342  0.1161
   40POPC   H6X 5408   6.052   1.519   7.654  1.1466 -0.1160  2.5604
   40POPC   H6Y 5409   6.030   1.695   7.664  0.2766 -0.3428  0.2997
   40POPC   C37 5410   6.217   1.634   7.725  0.3094 -1.0396 -0.6016
   40POPC   H7X 5411   6.245   1.739   7.704 -2.7441  0.0034  0.3887
   40POPC   H7Y 5412   6.299   1.565   7.697  2.0557  0.6064  0.3290
   40POPC   C38 5413   6.189   1.621   7.877 -0.1567  0.9944  0.6445
   40POPC   H8X 5414   6.181   1.516   7.910  2.0688 -0.1820 -2.3809
   40POPC   H8Y 5415   6.089   1.667   7.895  0.5931  3.1198 -0.4203
   40POPC   C39 5416   6.299   1.695   7.959 -0.4034  0.1117 -0.4109
   40POPC   H9X 5417   6.298   1.804   7.937 -0.3097 -0.3067 -2.6755
   40POPC   H9Y 5418   6.393   1.640   7.936  0.2864  0.6786  1.0505
   40POPC  C310 5419   6.290   1.657   8.113 -0.3073  0.5914  0.5775
   40POPC  H10X 5420   6.273   1.548   8.128  0.2067  0.4289  0.0253
   40POPC  H10Y 5421   6.200   1.709   8.151  0.0342  0.4907  1.5349
   40POPC  C311 5422   6.416   1.693   8.199  0.0253  0.4856  0.3815
   40POPC  H11X 5423   6.388   1.693   8.307  2.5866  1.7288  1.0895
   40POPC  H11Y 5424   6.432   1.800   8.174  2.2812 -0.1172 -0.8116
   40POPC  C312 5425   6.546   1.608   8.161 -0.4970 -0.2283 -0.2266
   40POPC  H12X 5426   6.565   1.622   8.053 -1.3492  0.9867 -0.2276
   40POPC  H12Y 5427   6.544   1.501   8.190 -1.8065  0.0209  0.6996
   40POPC  C313 5428   6.670   1.657   8.226 -0.7650 -0.1204  0.0126
   40POPC  H13X 5429   6.660   1.623   8.331 -1.3398  1.6209  0.5361
   40POPC  H13Y 5430   6.672   1.768   8.232  1.2451 -0.1105 -0.6384
   40POPC  C314 5431   6.792   1.608   8.146 -0.1903 -0.2035  0.2284
   40POPC  H14X 5432   6.779   1.651   8.045  1.2329 -2.6668 -1.0544
   40POPC  H14Y 5433   6.777   1.497   8.145  2.6453 -0.6184 -1.1238
   40POPC  C315 5434   6.922   1.662   8.203 -0.0296 -0.2206  0.0167
   40POPC  H15X 5435   6.922   1.629   8.309 -1.7140 -2.6978 -0.7002
   40POPC  H15Y 5436   6.927   1.772   8.193 -0.9531 -0.0432  1.4212
   40POPC  C316 5437   7.041   1.607   8.129 -0.6211  0.4729 -0.6214
   40POPC  H16X 5438   7.136   1.650   8.168 -2.2096  2.4451  1.2165
   40POPC  H16Y 5439   7.038   1.646   8.025 -0.0677  0.1441 -0.7642
   40POPC  H16Z 5440   7.033   1.497   8.138  1.3221  0.5435  2.9411
   41CHL1    C3 5441   5.333   5.078  10.205 -0.7187 -1.0417 -0.7381
   41CHL1    H3 5442   5.441   5.081  10.178 -1.0478 -0.3334 -1.9918
   41CHL1    O3 5443   5.311   5.042  10.342  0.2003  0.3220 -0.0973
   41CHL1   H3' 5444   5.220   5.013  10.341 -0.0067  0.9579  0.0838
   41CHL1    C4 5445   5.270   5.217  10.188 -0.5025  0.4946 -0.3176
   41CHL1   H4A 5446   5.163   5.213  10.216  0.0700  0.7233  2.0907
   41CHL1   H4B 5447   5.316   5.284  10.264 -2.3037  1.0859  0.2800
   41CHL1    C5 5448   5.281   5.262  10.049  0.2849 -0.2460  0.8916
   41CHL1    C6 5449   5.336   5.385  10.029  0.0045 -0.3888  0.3804
   41CHL1    H6 5450   5.365   5.447  10.115 -1.3090  0.7201  0.0281
   41CHL1    C7 5451   5.352   5.446   9.898  0.3558 -0.7332  0.1317
   41CHL1   H7A 5452   5.322   5.553   9.904  0.7241 -0.6672  0.8671
   41CHL1   H7B 5453   5.460   5.447   9.872 -0.1941  0.1099 -2.2126
   41CHL1    C8 5454   5.280   5.365   9.791 -0.8751 -0.0394 -0.1643
   41CHL1    H8 5455   5.173   5.393   9.801 -0.6163  1.8954 -2.5778
   41CHL1   C14 5456   5.345   5.403   9.652  0.2284  0.3548 -0.4626
   41CHL1   H14 5457   5.448   5.361   9.647  0.3365  0.7538 -2.0118
   41CHL1   C15 5458   5.344   5.559   9.625  0.0071 -1.0844 -0.6033
   41CHL1  H15A 5459   5.265   5.621   9.672  2.0077  0.6376  0.6333
   41CHL1  H15B 5460   5.436   5.600   9.673  0.2862  0.5127 -2.4473
   41CHL1   C16 5461   5.361   5.568   9.472  0.8072  0.8868 -0.0225
   41CHL1  H16A 5462   5.280   5.636   9.439  0.1783 -1.0505 -2.6251
   41CHL1  H16B 5463   5.463   5.601   9.440  1.2060  0.7934  1.1158
   41CHL1   C17 5464   5.332   5.420   9.421  0.7975 -1.2632  0.1728
   41CHL1   H17 5465   5.429   5.366   9.411  1.2092 -0.6123  0.5554
   41CHL1   C13 5466   5.271   5.339   9.534 -0.6722 -0.2763  0.2185
   41CHL1   C18 5467   5.119   5.363   9.535  0.0801 -0.0736  0.1013
   41CHL1  H18A 5468   5.062   5.333   9.626 -2.8560 -2.1472 -2.3112
   41CHL1  H18B 5469   5.091   5.469   9.523 -0.1281 -0.0663  0.6332
   41CHL1  H18C 5470   5.079   5.308   9.447 -1.9275  1.7405 -0.1397
   41CHL1   C12 5471   5.294   5.182   9.546 -0.1290  0.5452 -0.7165
   41CHL1  H12A 5472   5.225   5.127   9.478 -2.6806  1.3096  1.2031
   41CHL1  H12B 5473   5.400   5.156   9.526 -0.0589  1.1097 -1.1088
   41CHL1   C11 5474   5.245   5.135   9.681  0.1726  0.2562 -0.8648
   41CHL1  H11A 5475   5.134   5.132   9.687  0.2372 -1.3284 -0.1461
   41CHL1  H11B 5476   5.262   5.026   9.691 -0.6727  0.1976 -0.0187
   41CHL1    C9 5477   5.298   5.206   9.810  0.3024  0.2241 -0.3240
   41CHL1    H9 5478   5.408   5.194   9.808  0.6681  2.3372  3.3361
   41CHL1   C10 5479   5.249   5.156   9.945 -0.2105 -0.4941  0.4021
   41CHL1   C19 5480   5.095   5.143   9.946 -0.1711 -0.2267 -0.2221
   41CHL1  H19A 5481   5.050   5.111  10.042  0.2804 -0.7577 -0.1838
   41CHL1  H19B 5482   5.045   5.239   9.922 -2.1332 -0.5637  2.3459
   41CHL1  H19C 5483   5.048   5.070   9.876  1.8017 -2.3695  0.5933
   41CHL1    C1 5484   5.303   5.012   9.971 -0.4046 -0.7198  0.1076
   41CHL1   H1A 5485   5.265   4.948   9.889 -1.1652  2.6516 -2.2878
   41CHL1   H1B 5486   5.413   5.024   9.963 -0.2669 -1.6891  0.5686
   41CHL1    C2 5487   5.277   4.969  10.115  0.3405  0.2068  0.2374
   41CHL1   H2A 5488   5.328   4.874  10.139 -2.2873 -1.3064  0.0945
   41CHL1   H2B 5489   5.167   4.960  10.132 -0.2885  3.0187 -1.8393
   41CHL1   C20 5490   5.262   5.428   9.281 -0.4832  0.2613  0.0008
   41CHL1   H20 5491   5.158   5.461   9.302 -0.9918 -1.1867 -0.1876
   41CHL1   C21 5492   5.265   5.287   9.224 -0.0719  0.3939  0.8501
   41CHL1  H21A 5493   5.211   5.207   9.279 -0.1561 -2.1053 -2.7141
   41CHL1  H21B 5494   5.370   5.251   9.213 -0.2883 -0.0470  0.1506
   41CHL1  H21C 5495   5.221   5.288   9.122 -1.6552 -0.4633  1.5120
   41CHL1   C22 5496   5.328   5.526   9.183  0.0258  0.5153 -0.3543
   41CHL1  H22A 5497   5.319   5.630   9.223 -2.1030  0.4569 -0.6061
   41CHL1  H22B 5498   5.434   5.505   9.208 -0.2581  0.3551  0.7335
   41CHL1   C23 5499   5.312   5.501   9.025  0.3594 -0.2923  0.3868
   41CHL1  H23A 5500   5.344   5.401   8.988  2.9865  1.1932 -1.4283
   41CHL1  H23B 5501   5.209   5.516   8.986  0.4257  1.6301  0.9125
   41CHL1   C24 5502   5.381   5.620   8.949  0.2174  0.6123  0.0115
   41CHL1  H24A 5503   5.345   5.722   8.975 -0.6165  0.0466  1.1165
   41CHL1  H24B 5504   5.486   5.609   8.985 -0.1605 -0.0064  0.9681
   41CHL1   C25 5505   5.385   5.606   8.795 -0.2705 -0.4324 -0.4859
   41CHL1   H25 5506   5.411   5.500   8.775 -0.5655 -0.6088  0.0391
   41CHL1   C26 5507   5.250   5.633   8.731 -0.5478  0.5329 -0.0335
   41CHL1  H26A 5508   5.231   5.743   8.727  0.6986  0.7325 -0.8666
   41CHL1  H26B 5509   5.262   5.617   8.621  0.1419 -0.2610  0.1543
   41CHL1  H26C 5510   5.170   5.579   8.785  0.2945 -0.4631  0.2317
   41CHL1   C27 5511   5.491   5.696   8.748  0.0996  0.0856  0.1714
   41CHL1  H27A 5512   5.591   5.666   8.784 -0.0141 -1.1719 -0.5238
   41CHL1  H27B 5513   5.506   5.684   8.638  1.1759  0.1349  0.3057
   41CHL1  H27C 5514   5.471   5.804   8.765 -1.2427 -0.0030 -0.7111
   42CHL1    C3 5515   5.015   4.441   9.888 -0.3177 -0.0414  0.2306
   42CHL1    H3 5516   4.941   4.373   9.842 -0.1843  0.7933 -1.2288
   42CHL1    O3 5517   5.056   4.376  10.013 -0.5741 -0.0893 -0.0588
   42CHL1   H3' 5518   4.978   4.383  10.069 -0.8908 -2.0156 -0.2326
   42CHL1    C4 5519   5.127   4.460   9.787 -0.7725 -1.2449 -0.7008
   42CHL1   H4A 5520   5.206   4.525   9.830 -2.2346  0.2718 -0.2146
   42CHL1   H4B 5521   5.167   4.361   9.759  0.4599 -1.3026  1.1627
   42CHL1    C5 5522   5.067   4.531   9.664  0.4591  0.4637  0.1759
   42CHL1    C6 5523   5.068   4.479   9.541  0.9992  0.5119  0.2934
   42CHL1    H6 5524   5.121   4.383   9.533 -1.0167 -0.6473  0.4881
   42CHL1    C7 5525   5.017   4.547   9.416 -0.3865 -0.6635  0.4227
   42CHL1   H7A 5526   5.092   4.541   9.334 -0.6991 -0.6275  0.1306
   42CHL1   H7B 5527   4.928   4.492   9.379 -0.7857  1.7870 -2.5474
   42CHL1    C8 5528   4.995   4.692   9.432 -0.8616 -0.1451 -0.8904
   42CHL1    H8 5529   5.086   4.756   9.434 -0.0954 -1.2684  1.2326
   42CHL1   C14 5530   4.915   4.741   9.310  0.7120  0.5830 -0.3902
   42CHL1   H14 5531   4.819   4.684   9.310  1.1085 -0.1691 -4.1031
   42CHL1   C15 5532   4.967   4.712   9.173  0.5472 -0.9732 -0.3777
   42CHL1  H15A 5533   5.071   4.750   9.161 -0.3181  1.2344 -1.1273
   42CHL1  H15B 5534   4.942   4.611   9.136  1.1227 -1.1100 -0.3955
   42CHL1   C16 5535   4.880   4.810   9.095  0.7800  0.4102 -0.1689
   42CHL1  H16A 5536   4.942   4.881   9.037  1.7483 -1.9613 -2.1127
   42CHL1  H16B 5537   4.817   4.754   9.023  1.3832 -1.8480  1.0160
   42CHL1   C17 5538   4.782   4.892   9.188  0.0515 -0.6587  0.2740
   42CHL1   H17 5539   4.692   4.832   9.212 -0.3160 -0.0220  0.5006
   42CHL1   C13 5540   4.872   4.884   9.318 -0.9498 -0.4559  0.4232
   42CHL1   C18 5541   4.994   4.985   9.323 -0.6868  0.3237 -0.4728
   42CHL1  H18A 5542   5.056   4.962   9.234 -0.3541 -3.2286  0.6028
   42CHL1  H18B 5543   4.959   5.090   9.331 -3.1477 -0.4779 -0.2867
   42CHL1  H18C 5544   5.054   4.962   9.414 -1.1485  0.9938  0.0034
   42CHL1   C12 5545   4.788   4.898   9.443  0.6861 -0.6266 -0.1178
   42CHL1  H12A 5546   4.747   4.998   9.466  0.6813 -0.6790  0.1075
   42CHL1  H12B 5547   4.701   4.830   9.440 -0.1426  0.4228 -0.0868
   42CHL1   C11 5548   4.858   4.854   9.571 -0.4780  0.3197  0.0374
   42CHL1  H11A 5549   4.927   4.937   9.598  0.0983  0.8515 -2.8743
   42CHL1  H11B 5550   4.784   4.849   9.653 -0.5389  0.8601  0.0213
   42CHL1    C9 5551   4.912   4.719   9.559  0.2743 -0.0257  0.1257
   42CHL1    H9 5552   4.826   4.648   9.561 -0.1777  0.5307  0.5823
   42CHL1   C10 5553   4.994   4.673   9.691 -0.1492  0.1556 -0.6346
   42CHL1   C19 5554   5.100   4.778   9.728 -0.3725  0.2247 -0.0442
   42CHL1  H19A 5555   5.044   4.871   9.751 -0.9185  0.5036 -2.3742
   42CHL1  H19B 5556   5.154   4.734   9.814  0.0169  1.1352  0.1880
   42CHL1  H19C 5557   5.173   4.794   9.645  0.5488  1.9011  1.0635
   42CHL1    C1 5558   4.890   4.651   9.809 -0.1598 -0.0796  0.4062
   42CHL1   H1A 5559   4.854   4.751   9.841  1.2986  0.5159  0.2273
   42CHL1   H1B 5560   4.800   4.595   9.775  0.6878 -1.2135 -0.0075
   42CHL1    C2 5561   4.938   4.572   9.932 -0.3275 -0.0001 -0.2084
   42CHL1   H2A 5562   4.857   4.527   9.994 -0.4285  0.5886  0.0940
   42CHL1   H2B 5563   4.990   4.633  10.009  2.0270 -2.4371  0.1718
   42CHL1   C20 5564   4.748   5.035   9.140 -0.4606  0.0574  0.8516
   42CHL1   H20 5565   4.724   5.088   9.235  2.7170  0.4366  1.4934
   42CHL1   C21 5566   4.623   5.010   9.057  0.3934  0.1048 -0.3604
   42CHL1  H21A 5567   4.595   5.104   9.004 -1.5121  1.1003  2.2877
   42CHL1  H21B 5568   4.539   4.977   9.122 -0.9445  1.8507 -1.1525
   42CHL1  H21C 5569   4.656   4.931   8.986  1.5606  0.4421 -0.2000
   42CHL1   C22 5570   4.853   5.116   9.068 -0.0451  0.0371  0.0100
   42CHL1  H22A 5571   4.960   5.110   9.096  0.0628  0.9902 -0.1820
   42CHL1  H22B 5572   4.862   5.069   8.968 -2.1547  1.0586 -0.6876
   42CHL1   C23 5573   4.826   5.266   9.059 -0.0254  0.8565  0.3747
   42CHL1  H23A 5574   4.881   5.312   8.974  0.6869 -1.5468 -0.5114
   42CHL1  H23B 5575   4.719   5.277   9.032 -0.2743 -1.5826  0.2237
   42CHL1   C24 5576   4.840   5.342   9.193  0.4851 -0.2759  0.2400
   42CHL1  H24A 5577   4.810   5.290   9.287  2.3435  0.8516  1.4984
   42CHL1  H24B 5578   4.951   5.349   9.203  0.7814 -1.9852 -1.6957
   42CHL1   C25 5579   4.793   5.485   9.188  0.4028 -0.5991 -0.4104
   42CHL1   H25 5580   4.813   5.520   9.291  0.9730 -0.4209 -0.5807
   42CHL1   C26 5581   4.875   5.568   9.083  0.0174 -0.5620  0.0343
   42CHL1  H26A 5582   4.842   5.673   9.096 -1.1638 -0.9612  0.3100
   42CHL1  H26B 5583   4.985   5.581   9.092 -0.0442  0.2078 -0.2769
   42CHL1  H26C 5584   4.848   5.546   8.978  0.7392  3.0951 -0.9622
   42CHL1   C27 5585   4.640   5.492   9.154  0.0223 -0.3367 -0.0912
   42CHL1  H27A 5586   4.570   5.442   9.224  1.9767 -0.7315  1.6351
   42CHL1  H27B 5587   4.612   5.598   9.174  1.2248 -0.4033  2.1397
   42CHL1  H27C 5588   4.621   5.459   9.050  1.6734 -0.0368 -0.5027
   43CHL1    C3 5589   5.699   4.484   9.995  0.0985 -0.1108 -0.1414
   43CHL1    H3 5590   5.753   4.398   9.950 -0.8688 -1.1521  0.6367
   43CHL1    O3 5591   5.715   4.477  10.139 -0.0175  0.0600 -0.5171
   43CHL1   H3' 5592   5.651   4.413  10.171 -1.7213  1.6929 -0.6491
   43CHL1    C4 5593   5.760   4.624   9.953  0.1550 -0.0251  0.5681
   43CHL1   H4A 5594   5.710   4.698  10.018 -0.7226 -1.6275  1.7656
   43CHL1   H4B 5595   5.869   4.628   9.976  0.4214  4.3796 -1.0286
   43CHL1    C5 5596   5.727   4.643   9.802 -0.5061  0.6144 -0.6541
   43CHL1    C6 5597   5.823   4.663   9.710  0.3436 -0.5263 -0.0436
   43CHL1    H6 5598   5.926   4.677   9.747 -0.5706  0.4637  2.2730
   43CHL1    C7 5599   5.799   4.671   9.565 -0.2545  0.1683  0.7794
   43CHL1   H7A 5600   5.862   4.752   9.524 -0.4875  0.2951  0.6704
   43CHL1   H7B 5601   5.822   4.576   9.512  0.2901  0.1169  1.1038
   43CHL1    C8 5602   5.655   4.699   9.526  0.3091  0.0440 -0.4367
   43CHL1    H8 5603   5.639   4.803   9.561 -0.8776 -0.2749  0.0050
   43CHL1   C14 5604   5.633   4.687   9.378 -0.0421  0.4096 -0.3174
   43CHL1   H14 5605   5.635   4.577   9.366  0.5917  0.3719  0.0791
   43CHL1   C15 5606   5.734   4.746   9.276 -0.3858  0.5009  0.0892
   43CHL1  H15A 5607   5.749   4.853   9.303 -1.7192  1.2162 -1.8532
   43CHL1  H15B 5608   5.829   4.688   9.276 -0.6824 -0.0513 -3.0116
   43CHL1   C16 5609   5.640   4.753   9.145  0.6879 -0.3336  0.0812
   43CHL1  H16A 5610   5.643   4.859   9.112  0.4934 -0.7839 -1.4034
   43CHL1  H16B 5611   5.668   4.691   9.057 -3.7135 -0.5508 -1.2682
   43CHL1   C17 5612   5.500   4.708   9.184  0.3439  0.1096  0.5308
   43CHL1   H17 5613   5.514   4.599   9.162 -0.8944  0.1720 -0.6556
   43CHL1   C13 5614   5.494   4.729   9.336  0.5674  0.4690  0.4527
   43CHL1   C18 5615   5.463   4.885   9.366  0.4920  0.4183  0.0474
   43CHL1  H18A 5616   5.359   4.898   9.329 -0.2581 -2.3484  1.0735
   43CHL1  H18B 5617   5.473   4.911   9.473  0.1007 -0.8350  0.3988
   43CHL1  H18C 5618   5.536   4.946   9.309  0.2518  2.0275  1.4228
   43CHL1   C12 5619   5.386   4.644   9.404 -0.0396 -0.2024 -0.4854
   43CHL1  H12A 5620   5.288   4.694   9.389  1.2677  2.5782 -0.0582
   43CHL1  H12B 5621   5.390   4.544   9.355  0.4344 -1.5710  2.2626
   43CHL1   C11 5622   5.412   4.635   9.557 -0.1434  0.4244  0.6466
   43CHL1  H11A 5623   5.369   4.727   9.601  0.1811  0.5711  0.6571
   43CHL1  H11B 5624   5.350   4.550   9.594  0.2882 -0.0658  0.2438
   43CHL1    C9 5625   5.557   4.607   9.608  0.0459 -0.1379  0.4745
   43CHL1    H9 5626   5.583   4.505   9.572  3.5511  1.2006 -1.0736
   43CHL1   C10 5627   5.576   4.621   9.757  0.7875 -0.4455 -0.4045
   43CHL1   C19 5628   5.500   4.743   9.816  0.2982 -0.5630  0.3097
   43CHL1  H19A 5629   5.390   4.735   9.804  0.1109  0.7585  1.0347
   43CHL1  H19B 5630   5.503   4.752   9.927  2.5228  0.1008  0.2202
   43CHL1  H19C 5631   5.536   4.833   9.761  2.8681 -1.5327  0.3268
   43CHL1    C1 5632   5.527   4.485   9.817  0.6060 -0.6563  0.1512
   43CHL1   H1A 5633   5.418   4.483   9.796  0.4624  0.3616  0.7571
   43CHL1   H1B 5634   5.571   4.402   9.759  2.0158 -0.2439  0.6052
   43CHL1    C2 5635   5.556   4.463   9.967  0.0008 -0.1629 -0.4516
   43CHL1   H2A 5636   5.530   4.359   9.995 -1.8633  0.0442 -1.3674
   43CHL1   H2B 5637   5.508   4.542  10.028  0.1550 -1.2164  1.0573
   43CHL1   C20 5638   5.381   4.754   9.106  0.9031 -0.5274 -0.0818
   43CHL1   H20 5639   5.295   4.763   9.176  1.6294  1.2617  0.6115
   43CHL1   C21 5640   5.333   4.645   9.010 -0.1492 -0.8316  0.1254
   43CHL1  H21A 5641   5.235   4.659   8.960  1.1118  0.4744 -2.0366
   43CHL1  H21B 5642   5.334   4.546   9.061  0.4431 -0.8981 -0.0111
   43CHL1  H21C 5643   5.408   4.632   8.929 -0.4845  2.9970 -0.8766
   43CHL1   C22 5644   5.396   4.889   9.029 -0.3191 -0.1481  0.5867
   43CHL1  H22A 5645   5.427   4.958   9.110  1.1758 -0.5931  0.3975
   43CHL1  H22B 5646   5.473   4.881   8.949  0.8267  1.3428  1.5177
   43CHL1   C23 5647   5.268   4.948   8.970 -0.5401 -0.2763 -0.4257
   43CHL1  H23A 5648   5.210   4.878   8.906 -0.3978 -0.3265 -0.5019
   43CHL1  H23B 5649   5.202   4.974   9.056 -0.9306 -0.7920 -0.5685
   43CHL1   C24 5650   5.304   5.066   8.874  0.3766  0.0229  0.2855
   43CHL1  H24A 5651   5.369   5.138   8.927  0.0491  0.0300  0.6803
   43CHL1  H24B 5652   5.366   5.034   8.788  0.0167  0.1394 -0.0165
   43CHL1   C25 5653   5.182   5.157   8.832 -0.1331  0.5295 -0.2427
   43CHL1   H25 5654   5.147   5.206   8.925  0.1421  0.3310 -0.0380
   43CHL1   C26 5655   5.230   5.264   8.729  0.0400  0.4716  0.3337
   43CHL1  H26A 5656   5.233   5.250   8.619  0.1721 -1.5622  0.5847
   43CHL1  H26B 5657   5.146   5.337   8.730  0.3659  0.8464  0.4099
   43CHL1  H26C 5658   5.318   5.317   8.772 -1.2218  2.5226  0.4746
   43CHL1   C27 5659   5.063   5.080   8.770  0.4583 -0.2666 -0.1232
   43CHL1  H27A 5660   4.979   5.143   8.733  0.8338  0.9758  1.1357
   43CHL1  H27B 5661   5.102   5.016   8.687 -1.0490 -3.2283  1.3455
   43CHL1  H27C 5662   5.019   5.007   8.841  1.2231 -0.0162  0.6053
   44CHL1    C3 5663   5.687   5.285  10.358  0.4009  0.0332 -0.3441
   44CHL1    H3 5664   5.582   5.258  10.337  0.6601 -1.4018  0.1133
   44CHL1    O3 5665   5.704   5.295  10.494  0.2968  0.3320  0.3599
   44CHL1   H3' 5666   5.765   5.369  10.500 -1.2026  1.6862 -0.7775
   44CHL1    C4 5667   5.775   5.175  10.292  0.8218  0.1327  0.1309
   44CHL1   H4A 5668   5.875   5.201  10.334  0.7941  1.1153 -0.3845
   44CHL1   H4B 5669   5.735   5.086  10.345 -0.1358  0.2808 -0.3430
   44CHL1    C5 5670   5.772   5.162  10.148 -0.0019 -0.7073 -0.4542
   44CHL1    C6 5671   5.736   5.051  10.090 -0.2101 -0.3086 -0.3351
   44CHL1    H6 5672   5.729   4.959  10.150 -0.0209 -0.3498 -0.3775
   44CHL1    C7 5673   5.741   5.041   9.940 -0.1119 -0.3224  0.3283
   44CHL1   H7A 5674   5.805   4.952   9.922 -0.5136 -0.8063  1.2533
   44CHL1   H7B 5675   5.642   5.021   9.892  0.1690 -1.3148  0.1422
   44CHL1    C8 5676   5.790   5.163   9.862  1.0284 -0.4179  0.2543
   44CHL1    H8 5677   5.900   5.156   9.863  0.9819 -1.1196  0.1891
   44CHL1   C14 5678   5.741   5.177   9.714 -0.1063  0.1785 -0.2512
   44CHL1   H14 5679   5.630   5.186   9.725 -0.1579 -0.9258  0.1885
   44CHL1   C15 5680   5.764   5.056   9.624 -0.6999 -0.5750  0.1402
   44CHL1  H15A 5681   5.870   5.023   9.616 -0.4498  0.3468 -0.3136
   44CHL1  H15B 5682   5.709   4.973   9.675  1.5470 -0.4876  2.8166
   44CHL1   C16 5683   5.722   5.110   9.490 -0.0131  0.0147 -0.4484
   44CHL1  H16A 5684   5.794   5.064   9.419 -0.2860  1.6715 -1.8424
   44CHL1  H16B 5685   5.615   5.092   9.469  0.2007 -2.1134  0.2008
   44CHL1   C17 5686   5.737   5.269   9.495  0.0578  0.8673  0.5128
   44CHL1   H17 5687   5.631   5.301   9.487 -0.1691  0.1335  0.5407
   44CHL1   C13 5688   5.792   5.295   9.638  0.4089 -0.1207 -0.6603
   44CHL1   C18 5689   5.948   5.293   9.623  0.4648  0.2440  0.3897
   44CHL1  H18A 5690   5.988   5.391   9.587  1.6986  0.8364  3.2280
   44CHL1  H18B 5691   6.005   5.277   9.717  1.3657  1.3098  0.0399
   44CHL1  H18C 5692   5.980   5.218   9.548  3.3976  2.0120 -0.2277
   44CHL1   C12 5693   5.746   5.428   9.698  0.4829  0.2050  0.4177
   44CHL1  H12A 5694   5.806   5.508   9.649  0.5559  0.3135  0.6836
   44CHL1  H12B 5695   5.641   5.456   9.674 -0.9591 -2.9151  2.7574
   44CHL1   C11 5696   5.782   5.430   9.847 -0.6619  0.1715 -0.1930
   44CHL1  H11A 5697   5.893   5.439   9.843 -0.4007 -0.8036  3.4662
   44CHL1  H11B 5698   5.732   5.520   9.890 -0.2423  0.8303 -1.0562
   44CHL1    C9 5699   5.751   5.295   9.926 -0.3508  0.4028  0.2901
   44CHL1    H9 5700   5.640   5.297   9.930 -0.5224 -0.4556 -2.6937
   44CHL1   C10 5701   5.794   5.302  10.077  0.0688  0.0123  0.4569
   44CHL1   C19 5702   5.941   5.340  10.069  0.4852 -0.5142  0.0447
   44CHL1  H19A 5703   5.989   5.315  10.166  0.7769  1.3175  0.3758
   44CHL1  H19B 5704   5.997   5.283   9.992 -1.8810 -2.1092 -0.5694
   44CHL1  H19C 5705   5.949   5.449  10.051 -0.3001 -0.2182  1.4144
   44CHL1    C1 5706   5.711   5.416  10.148  0.1331  0.3047 -0.7296
   44CHL1   H1A 5707   5.738   5.506  10.089  1.0150 -0.0856 -0.9361
   44CHL1   H1B 5708   5.605   5.398  10.122 -0.1696 -0.4428  0.9603
   44CHL1    C2 5709   5.716   5.422  10.297  0.0853  0.7290 -0.5628
   44CHL1   H2A 5710   5.646   5.498  10.336  0.6494  1.2038 -0.4544
   44CHL1   H2B 5711   5.822   5.452  10.316  0.9022 -2.9289  1.1727
   44CHL1   C20 5712   5.791   5.324   9.364 -0.1653 -0.2799 -0.2852
   44CHL1   H20 5713   5.899   5.300   9.355  0.0088 -0.9954  2.9328
   44CHL1   C21 5714   5.777   5.481   9.360 -0.5757 -0.3153 -0.4356
   44CHL1  H21A 5715   5.678   5.512   9.398  0.5680  3.2485 -0.1640
   44CHL1  H21B 5716   5.789   5.523   9.258  1.3935  0.6985  0.1749
   44CHL1  H21C 5717   5.850   5.525   9.432 -0.8335  2.5920 -1.8578
   44CHL1   C22 5718   5.706   5.260   9.243  0.3753 -0.0668 -0.5917
   44CHL1  H22A 5719   5.717   5.150   9.245  1.5458  0.0357 -1.1526
   44CHL1  H22B 5720   5.602   5.300   9.242 -0.4534 -2.1060  1.0531
   44CHL1   C23 5721   5.780   5.284   9.110  0.6343  0.7686  0.1023
   44CHL1  H23A 5722   5.778   5.392   9.087  0.1681  0.7346 -0.0282
   44CHL1  H23B 5723   5.882   5.243   9.128  0.5011  0.6530  0.6155
   44CHL1   C24 5724   5.725   5.205   8.993  0.6221  0.2466 -0.1260
   44CHL1  H24A 5725   5.749   5.097   9.003  2.4282  0.3264 -2.9502
   44CHL1  H24B 5726   5.617   5.227   8.979  0.2894 -1.7056 -0.8010
   44CHL1   C25 5727   5.789   5.240   8.855  0.6088  0.0568  0.1432
   44CHL1   H25 5728   5.755   5.342   8.825  0.5696  0.0918  0.3085
   44CHL1   C26 5729   5.939   5.246   8.849  0.0156  1.1326  0.1404
   44CHL1  H26A 5730   5.993   5.295   8.933  1.2977 -1.7339  1.0468
   44CHL1  H26B 5731   5.992   5.150   8.835  0.1280  1.1886  0.1862
   44CHL1  H26C 5732   5.967   5.303   8.757  3.1165 -0.1543  0.2361
   44CHL1   C27 5733   5.724   5.147   8.748  0.1425  0.7749  0.8601
   44CHL1  H27A 5734   5.757   5.043   8.769 -1.0577  0.1251 -0.4583
   44CHL1  H27B 5735   5.614   5.160   8.747 -0.0408 -0.6015  1.5834
   44CHL1  H27C 5736   5.768   5.183   8.653  0.2021 -0.2564  0.4979
   45CHL1    C3 5737   2.376   3.666  10.427  0.1825 -0.0253  1.0655
   45CHL1    H3 5738   2.407   3.560  10.418 -3.2105 -0.8093 -3.2405
   45CHL1    O3 5739   2.344   3.708  10.556 -0.5655  0.7241 -0.0494
   45CHL1   H3' 5740   2.329   3.802  10.558 -0.2762  0.7797  4.3954
   45CHL1    C4 5741   2.498   3.749  10.378 -0.2773  0.3985 -0.8345
   45CHL1   H4A 5742   2.472   3.856  10.395 -1.7830 -0.1762  0.5881
   45CHL1   H4B 5743   2.580   3.731  10.451 -0.2422 -0.7630 -1.1582
   45CHL1    C5 5744   2.537   3.736  10.233  0.7722  0.0145  0.0644
   45CHL1    C6 5745   2.664   3.739  10.204 -0.2214  0.2054 -0.2945
   45CHL1    H6 5746   2.746   3.752  10.277  0.1388  0.6790 -0.7705
   45CHL1    C7 5747   2.720   3.712  10.069  0.0590  0.1492  0.5960
   45CHL1   H7A 5748   2.786   3.798  10.046 -1.2511  0.8387 -0.6535
   45CHL1   H7B 5749   2.783   3.620  10.069  0.7433  0.6166 -1.5420
   45CHL1    C8 5750   2.614   3.672   9.962  0.1353  0.0261 -0.0270
   45CHL1    H8 5751   2.662   3.586   9.912  4.5432  2.4987 -0.3005
   45CHL1   C14 5752   2.611   3.770   9.848 -0.2725 -1.2253 -0.3856
   45CHL1   H14 5753   2.590   3.871   9.889 -1.5829 -2.7436  2.8670
   45CHL1   C15 5754   2.755   3.774   9.775 -0.0803 -0.0820 -0.7654
   45CHL1  H15A 5755   2.830   3.844   9.817 -0.9028  0.0911  0.4115
   45CHL1  H15B 5756   2.792   3.669   9.781  0.1659  0.1524  2.4934
   45CHL1   C16 5757   2.724   3.809   9.633  0.1552  0.2930  0.0125
   45CHL1  H16A 5758   2.704   3.916   9.609  0.9792  0.1289 -1.4239
   45CHL1  H16B 5759   2.805   3.777   9.564  1.3417  1.1786  0.9585
   45CHL1   C17 5760   2.592   3.734   9.608 -0.2902  0.2034 -0.0087
   45CHL1   H17 5761   2.623   3.628   9.600  2.6912  1.0301  0.0236
   45CHL1   C13 5762   2.505   3.742   9.734  0.0666  0.2672  0.2036
   45CHL1   C18 5763   2.408   3.862   9.731 -0.1441 -0.3071 -0.1772
   45CHL1  H18A 5764   2.451   3.959   9.699 -0.2304 -0.2855 -0.2251
   45CHL1  H18B 5765   2.338   3.840   9.648  1.3422  2.4893 -2.2652
   45CHL1  H18C 5766   2.362   3.883   9.830  0.8726 -1.6713  0.6090
   45CHL1   C12 5767   2.439   3.611   9.769 -0.3963  0.1594  0.3380
   45CHL1  H12A 5768   2.353   3.596   9.700 -1.7157  1.0516  1.7525
   45CHL1  H12B 5769   2.505   3.523   9.757  0.0599  0.5356  0.0696
   45CHL1   C11 5770   2.370   3.603   9.910  0.2713  0.2004  0.1171
   45CHL1  H11A 5771   2.295   3.685   9.912 -1.3898 -1.2655 -0.2951
   45CHL1  H11B 5772   2.327   3.502   9.928 -2.8694  1.0414 -2.0349
   45CHL1    C9 5773   2.477   3.634  10.021  1.0831 -0.2358  0.3101
   45CHL1    H9 5774   2.502   3.535  10.064 -0.0806 -0.0633  1.3976
   45CHL1   C10 5775   2.419   3.708  10.141 -0.2338 -0.3664  0.5493
   45CHL1   C19 5776   2.368   3.852  10.106  0.4238  0.4756 -0.0642
   45CHL1  H19A 5777   2.451   3.913  10.064  2.9225 -2.0191  0.9835
   45CHL1  H19B 5778   2.285   3.853  10.033 -2.2373 -2.7252  2.7535
   45CHL1  H19C 5779   2.342   3.904  10.200  1.8485  0.7986  0.1708
   45CHL1    C1 5780   2.300   3.629  10.202 -0.2479 -0.2594 -0.1184
   45CHL1   H1A 5781   2.211   3.628  10.135 -0.6088  1.5221  0.3117
   45CHL1   H1B 5782   2.341   3.527  10.214 -0.0720 -0.2273 -0.4539
   45CHL1    C2 5783   2.256   3.683  10.340  0.1711  0.2925  0.2864
   45CHL1   H2A 5784   2.178   3.615  10.381 -0.1551  1.2915  1.3217
   45CHL1   H2B 5785   2.227   3.790  10.337 -1.7815 -0.2432 -0.0417
   45CHL1   C20 5786   2.525   3.765   9.467  0.6708  0.6109  0.2724
   45CHL1   H20 5787   2.466   3.860   9.473  0.4736  0.5720 -0.9177
   45CHL1   C21 5788   2.417   3.656   9.441 -0.4721 -0.7712  0.2306
   45CHL1  H21A 5789   2.325   3.658   9.504 -2.4853  0.5890 -2.6262
   45CHL1  H21B 5790   2.461   3.554   9.442  2.7383  0.5682  1.0967
   45CHL1  H21C 5791   2.370   3.669   9.341 -2.0242 -0.3636  1.0060
   45CHL1   C22 5792   2.623   3.780   9.346 -0.4724 -0.5160 -0.6860
   45CHL1  H22A 5793   2.693   3.861   9.375  0.2741 -1.4268  0.0938
   45CHL1  H22B 5794   2.690   3.692   9.350  0.8765  0.5639  1.4962
   45CHL1   C23 5795   2.564   3.796   9.208 -0.5644  0.0487  0.3610
   45CHL1  H23A 5796   2.521   3.694   9.198  0.5346 -0.5897  1.9290
   45CHL1  H23B 5797   2.481   3.868   9.193 -1.0805 -0.7223 -0.5684
   45CHL1   C24 5798   2.674   3.832   9.112 -0.1992  0.7606  0.0743
   45CHL1  H24A 5799   2.736   3.916   9.150 -0.6503  1.0338  0.2114
   45CHL1  H24B 5800   2.753   3.755   9.128 -0.7967 -0.2291 -1.6695
   45CHL1   C25 5801   2.637   3.845   8.964  0.3375  0.4521 -0.3318
   45CHL1   H25 5802   2.578   3.937   8.948 -0.4989  0.1066  0.7288
   45CHL1   C26 5803   2.770   3.857   8.889 -0.3986 -0.2270 -0.6629
   45CHL1  H26A 5804   2.759   3.864   8.778  0.7735  0.4857 -0.7451
   45CHL1  H26B 5805   2.823   3.946   8.929 -0.7924  0.1072 -0.8716
   45CHL1  H26C 5806   2.835   3.768   8.900  2.2912  1.7280 -0.2155
   45CHL1   C27 5807   2.555   3.729   8.912  0.0915 -0.0597  1.0985
   45CHL1  H27A 5808   2.457   3.738   8.965 -1.0280  1.3749 -1.1482
   45CHL1  H27B 5809   2.546   3.725   8.802 -0.6710  0.1631  1.1464
   45CHL1  H27C 5810   2.598   3.628   8.928  0.7236  0.0918  0.3561
   46CHL1    C3 5811   4.944   1.394  10.203  0.1137  0.2416 -0.0121
   46CHL1    H3 5812   5.027   1.467  10.192  0.1730 -0.0055 -1.2810
   46CHL1    O3 5813   4.915   1.372  10.338 -0.3237 -0.0736  0.6259
   46CHL1   H3' 5814   4.862   1.292  10.339 -1.2498  0.5445  0.9634
   46CHL1    C4 5815   4.816   1.445  10.128  0.3086  0.7690 -0.7163
   46CHL1   H4A 5816   4.744   1.368  10.163  0.9165  1.4905  2.2244
   46CHL1   H4B 5817   4.777   1.541  10.168 -1.1704 -0.6475  1.3544
   46CHL1    C5 5818   4.819   1.443   9.972  0.4256 -0.0975 -0.0056
   46CHL1    C6 5819   4.789   1.546   9.893 -0.6484 -0.2594 -0.0128
   46CHL1    H6 5820   4.749   1.639   9.937  2.3805  1.4673 -0.7782
   46CHL1    C7 5821   4.794   1.556   9.744  0.1555 -0.6291  0.1718
   46CHL1   H7A 5822   4.703   1.610   9.711  0.7513 -0.6627 -1.6146
   46CHL1   H7B 5823   4.870   1.627   9.704  1.0436 -2.8576 -2.2674
   46CHL1    C8 5824   4.818   1.419   9.679 -0.3514  0.3423 -0.3785
   46CHL1    H8 5825   4.726   1.358   9.669  1.7131 -2.8160 -0.5817
   46CHL1   C14 5826   4.874   1.431   9.533 -0.0457  0.1174  0.1428
   46CHL1   H14 5827   4.970   1.487   9.538 -0.7986  1.6501 -1.8204
   46CHL1   C15 5828   4.795   1.516   9.432 -0.1846 -0.3987 -0.2100
   46CHL1  H15A 5829   4.688   1.486   9.422  0.5946 -2.7960 -1.9085
   46CHL1  H15B 5830   4.792   1.623   9.461 -1.5557  0.1538 -2.3253
   46CHL1   C16 5831   4.855   1.486   9.295 -0.2330  0.8484  0.0596
   46CHL1  H16A 5832   4.775   1.485   9.219 -0.2812 -0.9118  0.1233
   46CHL1  H16B 5833   4.920   1.571   9.264  1.6893 -0.8216 -0.6440
   46CHL1   C17 5834   4.943   1.359   9.316  0.6702 -0.7083  0.0468
   46CHL1   H17 5835   5.048   1.392   9.333  0.2240  0.2463  1.0473
   46CHL1   C13 5836   4.907   1.300   9.457  0.3338 -0.2692  0.6429
   46CHL1   C18 5837   4.778   1.214   9.445 -0.1378  0.3847 -0.4019
   46CHL1  H18A 5838   4.718   1.212   9.539  0.3112  0.4053 -0.1103
   46CHL1  H18B 5839   4.713   1.244   9.360 -2.1942 -1.5026  0.4524
   46CHL1  H18C 5840   4.809   1.110   9.420 -0.1517  0.2529  0.1192
   46CHL1   C12 5841   5.012   1.232   9.544  0.6506 -0.3291  0.1978
   46CHL1  H12A 5842   5.036   1.130   9.507  2.1612  0.2713 -0.4947
   46CHL1  H12B 5843   5.103   1.295   9.534 -1.4618  3.0381  1.2275
   46CHL1   C11 5844   4.975   1.217   9.693  0.2222  0.2722 -0.4242
   46CHL1  H11A 5845   4.897   1.137   9.687 -1.7892  2.2547 -1.3286
   46CHL1  H11B 5846   5.063   1.182   9.751  0.6641  0.5440 -0.9189
   46CHL1    C9 5847   4.925   1.346   9.765  1.0520  0.1401  0.4256
   46CHL1    H9 5848   5.010   1.417   9.763  1.4996 -0.4031  0.1852
   46CHL1   C10 5849   4.878   1.317   9.909 -0.1830  1.0656 -0.4962
   46CHL1   C19 5850   4.763   1.209   9.899 -0.3061 -0.1846 -0.6947
   46CHL1  H19A 5851   4.789   1.114   9.847  1.5206  1.1966 -2.3803
   46CHL1  H19B 5852   4.731   1.187  10.003 -0.4795  1.3582 -0.4079
   46CHL1  H19C 5853   4.672   1.240   9.843 -1.1239  1.2181  1.3563
   46CHL1    C1 5854   5.006   1.262   9.991  0.2245 -0.8427  0.4030
   46CHL1   H1A 5855   5.036   1.163   9.952 -0.4906 -0.0217 -2.3006
   46CHL1   H1B 5856   5.088   1.329   9.959  0.6817 -3.3267 -4.0538
   46CHL1    C2 5857   4.987   1.258  10.145  0.6784  0.0127  0.3311
   46CHL1   H2A 5858   5.086   1.230  10.187 -0.3304 -0.0320  2.7351
   46CHL1   H2B 5859   4.911   1.185  10.178  0.1261  0.0799 -0.7568
   46CHL1   C20 5860   4.945   1.268   9.192 -0.1743  0.5630 -0.2830
   46CHL1   H20 5861   4.839   1.237   9.187 -0.7365  1.8863  2.4851
   46CHL1   C21 5862   5.032   1.144   9.211  0.1033 -0.0317  0.5007
   46CHL1  H21A 5863   5.133   1.185   9.195  0.1002 -1.0302 -2.3293
   46CHL1  H21B 5864   5.003   1.058   9.147 -1.0621  0.5914  0.1682
   46CHL1  H21C 5865   5.024   1.098   9.312 -0.1038 -1.7969 -0.2961
   46CHL1   C22 5866   4.991   1.342   9.060 -0.4284  0.0565  0.3086
   46CHL1  H22A 5867   4.952   1.446   9.055  2.0613  1.0040 -0.0867
   46CHL1  H22B 5868   5.101   1.356   9.053 -0.4368 -0.4418 -1.0750
   46CHL1   C23 5869   4.955   1.269   8.935 -0.4129 -0.7720  0.2733
   46CHL1  H23A 5870   4.984   1.163   8.953 -0.4902 -0.7825  0.3329
   46CHL1  H23B 5871   4.846   1.261   8.918 -0.3599 -0.7049 -0.1026
   46CHL1   C24 5872   5.014   1.322   8.803 -0.2040 -0.4857  0.3317
   46CHL1  H24A 5873   4.979   1.426   8.786 -1.6418 -0.9004  0.7057
   46CHL1  H24B 5874   5.123   1.334   8.821 -0.4064  0.2782  1.1117
   46CHL1   C25 5875   4.999   1.240   8.667  0.2592  0.2656  0.2783
   46CHL1   H25 5876   5.018   1.131   8.682 -1.4446 -0.2986 -1.4711
   46CHL1   C26 5877   4.850   1.256   8.618  0.6488 -0.1915 -0.1290
   46CHL1  H26A 5878   4.786   1.205   8.693  0.5769 -2.0359 -1.3990
   46CHL1  H26B 5879   4.828   1.365   8.612 -0.8828 -0.4272  0.8257
   46CHL1  H26C 5880   4.824   1.207   8.522  1.2437  1.9012 -1.4017
   46CHL1   C27 5881   5.093   1.286   8.554  0.2684  0.6809 -0.3103
   46CHL1  H27A 5882   5.200   1.272   8.578  0.7685  0.4243 -2.6453
   46CHL1  H27B 5883   5.073   1.223   8.465 -0.2551 -0.4615  0.5955
   46CHL1  H27C 5884   5.088   1.392   8.522  0.4178  0.7078 -0.2436
   47CHL1    C3 5885   6.247   4.796  10.177 -0.4741  0.4718  0.8222
   47CHL1    H3 5886   6.190   4.701  10.175 -0.3409  0.3615  1.8320
   47CHL1    O3 5887   6.270   4.815  10.308 -0.0592  0.3019  0.0563
   47CHL1   H3' 5888   6.330   4.744  10.332 -1.2024 -0.9157 -0.6557
   47CHL1    C4 5889   6.385   4.782  10.106 -0.5492 -0.5293  0.2106
   47CHL1   H4A 5890   6.448   4.872  10.120  0.2561 -1.2017  0.9331
   47CHL1   H4B 5891   6.436   4.697  10.156 -1.7967 -0.9447  0.8102
   47CHL1    C5 5892   6.362   4.766   9.961 -0.4181  0.7442  0.7983
   47CHL1    C6 5893   6.423   4.664   9.898  0.5132  0.1718  0.2144
   47CHL1    H6 5894   6.486   4.591   9.951  0.5073 -0.4819 -0.6652
   47CHL1    C7 5895   6.418   4.655   9.751  0.0548 -0.2082 -0.0382
   47CHL1   H7A 5896   6.504   4.605   9.701 -1.4801 -2.1240 -0.8257
   47CHL1   H7B 5897   6.334   4.587   9.724 -1.8574  2.3810 -0.9168
   47CHL1    C8 5898   6.370   4.782   9.671  1.0451 -0.4398 -0.1724
   47CHL1    H8 5899   6.458   4.850   9.670 -0.1571  1.1538  0.0055
   47CHL1   C14 5900   6.319   4.737   9.534 -0.0891  0.2163 -0.7215
   47CHL1   H14 5901   6.238   4.664   9.559 -2.9509  2.6949 -2.4922
   47CHL1   C15 5902   6.418   4.665   9.438  0.1326 -0.5351 -0.2034
   47CHL1  H15A 5903   6.514   4.720   9.447 -0.6295  0.5511  1.6621
   47CHL1  H15B 5904   6.439   4.560   9.468  0.5501 -0.3761  0.0632
   47CHL1   C16 5905   6.333   4.665   9.306  0.0242  0.0465 -0.8779
   47CHL1  H16A 5906   6.409   4.683   9.227  0.1838 -1.5065 -1.0967
   47CHL1  H16B 5907   6.309   4.559   9.285  0.3168 -0.1755 -0.1106
   47CHL1   C17 5908   6.205   4.758   9.324  1.0620  0.0328 -0.9785
   47CHL1   H17 5909   6.113   4.703   9.351 -0.3578  0.4848 -4.5358
   47CHL1   C13 5910   6.241   4.844   9.450 -0.3321  0.0285 -0.2164
   47CHL1   C18 5911   6.344   4.950   9.404 -0.2531  0.5234 -0.0850
   47CHL1  H18A 5912   6.399   4.979   9.496  0.9874  0.0859 -0.6775
   47CHL1  H18B 5913   6.411   4.918   9.322  0.9346  1.0696  0.6522
   47CHL1  H18C 5914   6.289   5.038   9.365  1.6296  2.3999  1.4046
   47CHL1   C12 5915   6.127   4.893   9.538 -0.2520  0.4826 -0.4735
   47CHL1  H12A 5916   6.061   4.970   9.493  0.7792  1.0597 -0.9983
   47CHL1  H12B 5917   6.069   4.804   9.571  2.1170 -0.2802  1.8165
   47CHL1   C11 5918   6.184   4.956   9.667  1.0255 -0.2927 -0.3242
   47CHL1  H11A 5919   6.244   5.046   9.643 -1.6653  2.3172  2.1553
   47CHL1  H11B 5920   6.101   4.995   9.730  0.7150 -1.5284  0.0368
   47CHL1    C9 5921   6.252   4.848   9.747 -0.0908  0.4660 -0.7351
   47CHL1    H9 5922   6.175   4.768   9.744  1.2816 -1.0381  2.3517
   47CHL1   C10 5923   6.281   4.881   9.896 -0.4596 -0.3934 -0.1986
   47CHL1   C19 5924   6.358   5.018   9.898 -0.4808  0.2296 -0.1509
   47CHL1  H19A 5925   6.406   5.035   9.997 -0.5196  1.6720 -0.3717
   47CHL1  H19B 5926   6.445   5.010   9.829 -1.3912 -1.0942 -1.1699
   47CHL1  H19C 5927   6.293   5.102   9.868 -0.3653  0.0859 -0.8030
   47CHL1    C1 5928   6.145   4.892   9.974 -0.7460 -0.1781  0.0279
   47CHL1   H1A 5929   6.094   4.983   9.938  0.6613  0.6068 -0.0398
   47CHL1   H1B 5930   6.077   4.807   9.954 -0.9375  0.1806 -0.8954
   47CHL1    C2 5931   6.167   4.905  10.125  0.1949  0.0374  0.1834
   47CHL1   H2A 5932   6.067   4.915  10.172  0.0645  1.3456 -0.3436
   47CHL1   H2B 5933   6.220   4.999  10.150  1.3882 -0.2646 -1.0960
   47CHL1   C20 5934   6.176   4.834   9.193 -0.2623 -0.8490 -0.6902
   47CHL1   H20 5935   6.270   4.883   9.159  1.2986 -1.2261  2.8313
   47CHL1   C21 5936   6.062   4.934   9.217 -0.0464  0.1415  0.1492
   47CHL1  H21A 5937   6.017   4.965   9.120  1.5958  1.5839 -0.1805
   47CHL1  H21B 5938   6.107   5.028   9.256 -0.0588  0.2335 -0.0542
   47CHL1  H21C 5939   5.983   4.894   9.284  1.8598 -3.5532  0.3059
   47CHL1   C22 5940   6.152   4.744   9.071 -0.4508 -0.6305  0.3836
   47CHL1  H22A 5941   6.208   4.648   9.075 -0.7811 -0.9485 -1.8978
   47CHL1  H22B 5942   6.045   4.716   9.065  0.1184 -2.7941 -0.4734
   47CHL1   C23 5943   6.190   4.803   8.928 -0.4674  0.3679 -0.5889
   47CHL1  H23A 5944   6.144   4.904   8.933 -0.7057  0.2853 -1.1423
   47CHL1  H23B 5945   6.300   4.817   8.919 -0.4067  0.4964  0.3205
   47CHL1   C24 5946   6.131   4.713   8.813  0.5799 -0.0368  0.2485
   47CHL1  H24A 5947   6.155   4.607   8.833  1.2206  0.2039  0.7975
   47CHL1  H24B 5948   6.021   4.718   8.804  0.5789 -0.1597  0.2016
   47CHL1   C25 5949   6.181   4.758   8.674  0.4828 -0.3807 -0.3002
   47CHL1   H25 5950   6.290   4.780   8.675  0.4073  0.0449  1.8232
   47CHL1   C26 5951   6.153   4.653   8.563  0.4912 -0.2054 -0.7184
   47CHL1  H26A 5952   6.215   4.564   8.587 -0.4084 -0.7363 -0.3216
   47CHL1  H26B 5953   6.189   4.706   8.472 -0.1870 -0.8739 -1.3845
   47CHL1  H26C 5954   6.043   4.640   8.555  0.0019  1.8138  1.7996
   47CHL1   C27 5955   6.111   4.896   8.629 -0.7361  0.4398  0.4186
   47CHL1  H27A 5956   6.112   4.954   8.724 -1.6905 -2.0301  1.9952
   47CHL1  H27B 5957   6.157   4.938   8.537 -1.6523 -0.1086 -0.2872
   47CHL1  H27C 5958   6.005   4.878   8.601 -1.1780  2.4964  0.6981
   48CHL1    C3 5959   6.811   5.691  10.142  0.3002 -0.0131  0.2397
   48CHL1    H3 5960   6.827   5.582  10.129  1.8446  0.2034  0.1740
   48CHL1    O3 5961   6.811   5.717  10.281  0.0502 -0.5001  0.7277
   48CHL1   H3' 5962   6.734   5.671  10.316 -0.8305  1.0984  0.9221
   48CHL1    C4 5963   6.916   5.780  10.073 -0.7529 -0.0593 -1.0242
   48CHL1   H4A 5964   6.909   5.889  10.095  1.4049 -0.3260  1.2893
   48CHL1   H4B 5965   7.020   5.762  10.110 -1.1342  1.5312  0.9553
   48CHL1    C5 5966   6.904   5.775   9.926  0.0790 -0.1332 -0.1342
   48CHL1    C6 5967   7.007   5.734   9.842  0.5669 -0.5045 -0.0502
   48CHL1    H6 5968   7.107   5.722   9.885  0.0072 -0.7664  1.1983
   48CHL1    C7 5969   6.997   5.719   9.691  0.5691  0.0190 -0.2320
   48CHL1   H7A 5970   7.087   5.761   9.641  0.2133 -0.9834 -1.7253
   48CHL1   H7B 5971   7.002   5.610   9.671 -0.4186 -0.0865  0.0563
   48CHL1    C8 5972   6.877   5.795   9.630 -0.7756  0.1202  0.1012
   48CHL1    H8 5973   6.893   5.905   9.623 -1.1199  0.1238 -0.5941
   48CHL1   C14 5974   6.864   5.747   9.487  0.7759 -0.3516 -0.2933
   48CHL1   H14 5975   6.844   5.638   9.492  0.6892 -0.3704 -1.0547
   48CHL1   C15 5976   6.971   5.765   9.379 -0.9039  0.2697 -0.2559
   48CHL1  H15A 5977   7.008   5.869   9.378 -1.1833  0.3769  0.3297
   48CHL1  H15B 5978   7.055   5.698   9.409  0.7476  2.0981 -0.7016
   48CHL1   C16 5979   6.896   5.728   9.256  0.8610 -0.3599  0.1210
   48CHL1  H16A 5980   6.916   5.801   9.174  0.2380 -0.2881  0.0326
   48CHL1  H16B 5981   6.937   5.632   9.218 -0.4560 -1.7295  2.0879
   48CHL1   C17 5982   6.739   5.726   9.280  0.3202 -0.2463 -0.7763
   48CHL1   H17 5983   6.716   5.618   9.292 -0.3632  0.0349  0.5987
   48CHL1   C13 5984   6.732   5.795   9.420 -0.1063 -0.1387  0.2920
   48CHL1   C18 5985   6.737   5.956   9.396  0.0813  0.2366  0.0808
   48CHL1  H18A 5986   6.637   5.999   9.375  0.6158  2.1319  1.4085
   48CHL1  H18B 5987   6.783   5.999   9.487 -0.0045 -1.9643  1.1919
   48CHL1  H18C 5988   6.799   5.977   9.306 -0.9831 -1.8786 -1.1942
   48CHL1   C12 5989   6.613   5.759   9.504 -0.6113  0.0814  0.9631
   48CHL1  H12A 5990   6.514   5.792   9.467 -0.3195  0.2115  0.2995
   48CHL1  H12B 5991   6.606   5.649   9.521 -2.4265 -0.2775 -1.7889
   48CHL1   C11 5992   6.630   5.815   9.644 -0.3845 -0.1990 -0.7828
   48CHL1  H11A 5993   6.626   5.926   9.651 -2.9872 -0.3015  0.0271
   48CHL1  H11B 5994   6.538   5.795   9.703 -0.5952 -1.7746 -1.6210
   48CHL1    C9 5995   6.758   5.765   9.712 -0.7988 -0.8145  0.3736
   48CHL1    H9 5996   6.759   5.654   9.712  0.0623 -0.8204 -1.6663
   48CHL1   C10 5997   6.768   5.805   9.870  0.2326  0.2915  0.2727
   48CHL1   C19 5998   6.747   5.953   9.885 -0.3467  0.6033  0.5298
   48CHL1  H19A 5999   6.816   6.015   9.823 -1.4670  1.1352 -0.2090
   48CHL1  H19B 6000   6.644   5.979   9.852 -0.4849  0.3754  0.7762
   48CHL1  H19C 6001   6.756   5.987   9.990  0.4603  2.3950 -0.0934
   48CHL1    C1 6002   6.658   5.728   9.940 -0.3961  0.0288  0.2119
   48CHL1   H1A 6003   6.561   5.777   9.919  0.1352  1.3286  0.7296
   48CHL1   H1B 6004   6.650   5.626   9.896  0.2360 -0.9400  2.2959
   48CHL1    C2 6005   6.667   5.724  10.094 -0.2275 -0.7288  0.1429
   48CHL1   H2A 6006   6.593   5.657  10.143 -0.3233 -2.2267 -2.0261
   48CHL1   H2B 6007   6.661   5.830  10.128 -1.2187 -0.1991 -1.6434
   48CHL1   C20 6008   6.649   5.786   9.166 -0.4118  0.8678 -0.3909
   48CHL1   H20 6009   6.661   5.896   9.164  0.6481  0.7420 -1.2249
   48CHL1   C21 6010   6.506   5.756   9.211  0.5830 -0.4214  0.1256
   48CHL1  H21A 6011   6.471   5.835   9.281  1.4476 -0.5404  0.6946
   48CHL1  H21B 6012   6.501   5.656   9.258 -0.3704 -1.3570 -1.8830
   48CHL1  H21C 6013   6.437   5.761   9.124  1.4991 -1.1346 -0.6462
   48CHL1   C22 6014   6.672   5.731   9.029 -0.2455 -0.3930  0.4491
   48CHL1  H22A 6015   6.778   5.704   9.011 -0.3556 -0.3597 -0.2809
   48CHL1  H22B 6016   6.611   5.638   9.020 -0.2314 -0.1141 -3.4332
   48CHL1   C23 6017   6.639   5.825   8.911 -0.3789  0.7652 -0.2620
   48CHL1  H23A 6018   6.532   5.856   8.907 -0.2757  0.9438 -2.0853
   48CHL1  H23B 6019   6.698   5.918   8.925  1.6978 -0.5295 -0.2403
   48CHL1   C24 6020   6.663   5.753   8.777  0.3996 -0.0701 -0.1149
   48CHL1  H24A 6021   6.761   5.702   8.782  1.1473  1.3376 -0.3507
   48CHL1  H24B 6022   6.595   5.665   8.778 -1.8771  1.6497  0.6537
   48CHL1   C25 6023   6.656   5.838   8.648 -0.6066 -0.3177  0.7080
   48CHL1   H25 6024   6.568   5.904   8.668  0.3383  0.8128  1.2060
   48CHL1   C26 6025   6.774   5.932   8.621  0.6972 -0.6407  0.3785
   48CHL1  H26A 6026   6.741   6.030   8.579 -1.2835 -0.9172  1.2405
   48CHL1  H26B 6027   6.814   5.952   8.723  1.5638 -0.7848  0.0718
   48CHL1  H26C 6028   6.845   5.893   8.545 -0.0235 -2.9676  0.8910
   48CHL1   C27 6029   6.630   5.749   8.523  0.5261 -0.1512  0.1264
   48CHL1  H27A 6030   6.609   5.806   8.430  0.8137 -0.4109 -0.0969
   48CHL1  H27B 6031   6.715   5.679   8.511  1.6745  1.1955  0.1729
   48CHL1  H27C 6032   6.543   5.683   8.540  1.2822 -1.0458  0.5920
   49CHL1    C3 6033   4.456   0.861  10.198  0.0947 -0.5336  0.2747
   49CHL1    H3 6034   4.399   0.957  10.195  1.7764  0.4649 -0.9152
   49CHL1    O3 6035   4.479   0.836  10.332  0.1656  0.6914  0.0098
   49CHL1   H3' 6036   4.534   0.758  10.325 -0.3387  0.3597 -0.3198
   49CHL1    C4 6037   4.384   0.753  10.124 -0.7567  0.4929  0.4258
   49CHL1   H4A 6038   4.423   0.651  10.145  1.3994  0.3621 -3.6468
   49CHL1   H4B 6039   4.283   0.744  10.170 -0.0348  0.3199  2.0295
   49CHL1    C5 6040   4.363   0.767   9.976  0.0905 -0.2195  0.6830
   49CHL1    C6 6041   4.248   0.769   9.917 -0.4037 -0.2047  0.0509
   49CHL1    H6 6042   4.153   0.752   9.968 -1.2987 -0.6954 -1.7412
   49CHL1    C7 6043   4.230   0.790   9.770 -0.4904 -0.5899  0.6656
   49CHL1   H7A 6044   4.173   0.702   9.733  1.7857 -0.6145 -3.0459
   49CHL1   H7B 6045   4.166   0.875   9.737 -0.7313 -0.0887  2.3613
   49CHL1    C8 6046   4.354   0.785   9.688  0.4084  0.1319 -0.5834
   49CHL1    H8 6047   4.396   0.683   9.682 -1.0814 -0.4596 -1.1499
   49CHL1   C14 6048   4.329   0.850   9.550 -1.0004  0.2931 -0.1860
   49CHL1   H14 6049   4.315   0.960   9.556  0.7332  0.5642 -0.8118
   49CHL1   C15 6050   4.209   0.793   9.470 -0.1194  0.3457  0.3630
   49CHL1  H15A 6051   4.212   0.682   9.466 -2.0421  0.2837  0.2837
   49CHL1  H15B 6052   4.115   0.823   9.521  0.2478  0.2955  1.0812
   49CHL1   C16 6053   4.230   0.851   9.329 -0.3654 -0.3279 -0.3465
   49CHL1  H16A 6054   4.215   0.779   9.245  0.2643  0.4869 -1.1634
   49CHL1  H16B 6055   4.162   0.938   9.322 -1.6241 -1.2298  0.5352
   49CHL1   C17 6056   4.378   0.902   9.321  0.6820 -0.8013  0.1186
   49CHL1   H17 6057   4.368   1.012   9.333 -0.7712 -1.0524  1.2477
   49CHL1   C13 6058   4.445   0.851   9.451 -0.1682 -0.0014 -0.2164
   49CHL1   C18 6059   4.491   0.710   9.421  0.1513 -0.0106  0.4047
   49CHL1  H18A 6060   4.517   0.647   9.509  0.0023 -0.6793 -0.0241
   49CHL1  H18B 6061   4.402   0.659   9.378 -0.7311  1.7413  0.0943
   49CHL1  H18C 6062   4.576   0.700   9.350 -0.0368 -1.5776  0.3781
   49CHL1   C12 6063   4.563   0.929   9.514  0.9149  0.1509 -0.7176
   49CHL1  H12A 6064   4.651   0.912   9.449  0.2843  0.3462 -1.6209
   49CHL1  H12B 6065   4.527   1.033   9.503  0.7396  0.5143  2.6056
   49CHL1   C11 6066   4.592   0.883   9.660  0.3153  0.3691 -0.2026
   49CHL1  H11A 6067   4.634   0.782   9.643  0.4360  0.5254 -0.8530
   49CHL1  H11B 6068   4.664   0.948   9.714 -0.2796  0.1066  0.9118
   49CHL1    C9 6069   4.467   0.867   9.755  0.4227  0.4295  0.3512
   49CHL1    H9 6070   4.423   0.969   9.762  1.6769  1.0028  0.0281
   49CHL1   C10 6071   4.488   0.807   9.900 -0.5649 -0.1699  0.4506
   49CHL1   C19 6072   4.583   0.685   9.896 -0.0703  0.4172  0.2167
   49CHL1  H19A 6073   4.587   0.616   9.983  0.7045  2.1939  1.6207
   49CHL1  H19B 6074   4.549   0.616   9.816 -0.0305  1.6682 -0.8956
   49CHL1  H19C 6075   4.685   0.722   9.872  0.1384  1.0906  2.1056
   49CHL1    C1 6076   4.571   0.915   9.981  0.1155 -0.2571  0.2351
   49CHL1   H1A 6077   4.673   0.926   9.939 -0.6498  2.8194 -0.9587
   49CHL1   H1B 6078   4.521   1.015   9.979  1.3323  0.4324  2.7045
   49CHL1    C2 6079   4.590   0.884  10.128 -0.4144 -0.2478  0.4395
   49CHL1   H2A 6080   4.659   0.953  10.180  1.2025  0.4853 -2.5719
   49CHL1   H2B 6081   4.656   0.795  10.134  1.2091  0.7560 -1.8433
   49CHL1   C20 6082   4.452   0.877   9.186 -0.5493 -0.2665  0.7289
   49CHL1   H20 6083   4.468   0.771   9.157 -0.5984  0.5245 -2.3191
   49CHL1   C21 6084   4.591   0.938   9.191  0.1927  0.4286  0.3391
   49CHL1  H21A 6085   4.587   1.042   9.230 -0.9222 -0.1101  1.6905
   49CHL1  H21B 6086   4.638   0.923   9.091  0.3586  0.0027  0.4779
   49CHL1  H21C 6087   4.651   0.868   9.253  1.2845 -1.8951 -3.1331
   49CHL1   C22 6088   4.369   0.939   9.077  0.9040 -0.4316 -0.2156
   49CHL1  H22A 6089   4.271   0.887   9.078  0.4066  0.4326 -2.1818
   49CHL1  H22B 6090   4.340   1.044   9.103  0.6447 -0.2469 -1.2229
   49CHL1   C23 6091   4.427   0.917   8.944 -0.2642  0.3597  0.6884
   49CHL1  H23A 6092   4.530   0.957   8.933 -1.0030  1.9754 -0.7181
   49CHL1  H23B 6093   4.444   0.809   8.927 -0.5594  0.8169 -2.8225
   49CHL1   C24 6094   4.349   0.969   8.826 -0.1198  0.5256  0.7297
   49CHL1  H24A 6095   4.245   0.933   8.836  0.3747 -1.0294  0.4866
   49CHL1  H24B 6096   4.335   1.078   8.844 -0.1152  1.0884 -2.3445
   49CHL1   C25 6097   4.423   0.929   8.694  0.6977 -0.4988  0.1510
   49CHL1   H25 6098   4.445   0.821   8.703  1.1544 -0.6973 -2.6829
   49CHL1   C26 6099   4.332   0.959   8.578  0.6381 -0.2310 -0.0796
   49CHL1  H26A 6100   4.238   0.906   8.603 -0.5893  1.7066 -0.5035
   49CHL1  H26B 6101   4.310   1.068   8.577 -0.0061 -0.3632 -0.9133
   49CHL1  H26C 6102   4.366   0.916   8.481 -2.4784 -1.9664 -0.4750
   49CHL1   C27 6103   4.554   0.991   8.672 -0.0647  0.0975 -0.0784
   49CHL1  H27A 6104   4.558   1.102   8.680 -3.3146  0.2855 -0.5689
   49CHL1  H27B 6105   4.633   0.947   8.736 -0.2395 -1.5153 -0.9567
   49CHL1  H27C 6106   4.583   0.981   8.565  1.1519  1.2066  0.1398
   50CHL1    C3 6107   1.113   2.982  10.039  0.4784  0.0373  0.2485
   50CHL1    H3 6108   1.188   2.908  10.003 -0.6771 -1.6713  1.3062
   50CHL1    O3 6109   1.130   3.029  10.170 -0.5016 -0.4888  0.6169
   50CHL1   H3' 6110   1.073   3.106  10.173 -0.9558 -0.8145  0.3834
   50CHL1    C4 6111   1.104   3.097   9.940  0.8011 -0.3559  0.3603
   50CHL1   H4A 6112   1.024   3.170   9.963 -1.3894 -2.7329  0.4812
   50CHL1   H4B 6113   1.201   3.151   9.945  0.0954  1.0990 -1.5197
   50CHL1    C5 6114   1.086   3.045   9.796  0.6809  0.2229  1.0102
   50CHL1    C6 6115   1.170   3.067   9.698  0.2822 -0.2855  0.8315
   50CHL1    H6 6116   1.262   3.123   9.719  1.3793 -1.7346 -0.0691
   50CHL1    C7 6117   1.158   3.008   9.558  0.4850  0.3561  0.2925
   50CHL1   H7A 6118   1.193   3.083   9.483  0.5595  1.0948  1.0536
   50CHL1   H7B 6119   1.231   2.925   9.555  1.1495  0.9019  1.1602
   50CHL1    C8 6120   1.021   2.941   9.535  0.0622 -0.1128  0.2356
   50CHL1    H8 6121   0.949   3.023   9.512  1.9949  1.2926 -1.0505
   50CHL1   C14 6122   1.018   2.839   9.420 -0.7043 -0.0036 -0.0662
   50CHL1   H14 6123   1.081   2.757   9.461 -0.0246 -1.1578 -3.3174
   50CHL1   C15 6124   1.094   2.882   9.296  0.4077  0.3751 -0.0328
   50CHL1  H15A 6125   1.068   2.989   9.278 -1.0636  0.3435  1.8198
   50CHL1  H15B 6126   1.205   2.879   9.306  0.3477 -0.1208  0.5135
   50CHL1   C16 6127   1.035   2.799   9.182 -0.7354  0.2754 -0.4936
   50CHL1  H16A 6128   0.979   2.869   9.116 -0.0409  0.7915 -0.5481
   50CHL1  H16B 6129   1.112   2.756   9.114  0.2287 -0.1217  0.8344
   50CHL1   C17 6130   0.926   2.704   9.256 -0.4518  0.3718  0.8827
   50CHL1   H17 6131   0.983   2.611   9.277  0.7097  0.9029  0.1376
   50CHL1   C13 6132   0.882   2.770   9.387  0.4284  0.2540 -0.3334
   50CHL1   C18 6133   0.780   2.881   9.350 -0.7632  0.7082  0.1126
   50CHL1  H18A 6134   0.689   2.819   9.336  1.5195 -2.8771  0.5631
   50CHL1  H18B 6135   0.767   2.956   9.431  1.1598  1.2095 -0.0322
   50CHL1  H18C 6136   0.811   2.924   9.252  1.5345 -0.2627  0.3714
   50CHL1   C12 6137   0.850   2.681   9.510  0.2410 -0.6897  0.2687
   50CHL1  H12A 6138   0.747   2.642   9.493 -0.1925 -0.9128  3.2767
   50CHL1  H12B 6139   0.927   2.603   9.526 -0.4588 -1.1124  1.5739
   50CHL1   C11 6140   0.847   2.777   9.633  0.2570  0.2991  0.2639
   50CHL1  H11A 6141   0.763   2.850   9.625  0.4986  0.8584  2.5320
   50CHL1  H11B 6142   0.817   2.721   9.725 -2.0670  1.5999  0.3441
   50CHL1    C9 6143   0.977   2.863   9.660 -0.2712 -0.2219  0.4152
   50CHL1    H9 6144   1.059   2.792   9.684 -0.5813 -0.4447  0.8292
   50CHL1   C10 6145   0.960   2.945   9.787  0.2351 -0.8647  0.3603
   50CHL1   C19 6146   0.839   3.041   9.782 -0.3317 -0.0888  0.0001
   50CHL1  H19A 6147   0.848   3.102   9.873 -0.2975  0.9683 -0.7046
   50CHL1  H19B 6148   0.844   3.104   9.690  1.1919  2.3657  1.7083
   50CHL1  H19C 6149   0.748   2.978   9.786 -0.9587  0.7740 -0.4611
   50CHL1    C1 6150   0.948   2.851   9.905  0.8619  0.6118  0.2639
   50CHL1   H1A 6151   0.844   2.817   9.923  1.0587  1.1696  2.6886
   50CHL1   H1B 6152   1.011   2.761   9.890  0.7293  1.0169 -3.0967
   50CHL1    C2 6153   0.975   2.914  10.037  0.7670 -0.8218 -0.1539
   50CHL1   H2A 6154   0.974   2.832  10.111 -0.9464  0.0269  0.7957
   50CHL1   H2B 6155   0.894   2.983  10.071  0.1265 -1.3354 -0.6423
   50CHL1   C20 6156   0.822   2.646   9.153 -0.1453 -1.0294  0.4909
   50CHL1   H20 6157   0.769   2.732   9.106 -0.2529 -0.3888  1.7692
   50CHL1   C21 6158   0.721   2.558   9.228 -0.1742 -0.7319 -0.3312
   50CHL1  H21A 6159   0.647   2.505   9.165  0.3281 -1.4870 -0.3019
   50CHL1  H21B 6160   0.665   2.615   9.306 -0.0981  1.3464 -1.7569
   50CHL1  H21C 6161   0.782   2.480   9.279 -2.7112 -3.8123 -1.8573
   50CHL1   C22 6162   0.878   2.558   9.036  0.4829  0.8281 -0.3630
   50CHL1  H22A 6163   0.966   2.603   8.984  1.3698  1.4664  1.6303
   50CHL1  H22B 6164   0.899   2.459   9.080  1.1026  0.6716 -0.9959
   50CHL1   C23 6165   0.780   2.532   8.916  0.1697 -0.1483 -0.8192
   50CHL1  H23A 6166   0.695   2.469   8.951  1.1548 -0.6344  0.7606
   50CHL1  H23B 6167   0.735   2.627   8.881  0.6408  0.4593  0.2201
   50CHL1   C24 6168   0.860   2.462   8.805  0.2620  0.1934 -0.3823
   50CHL1  H24A 6169   0.940   2.531   8.773 -0.1951  1.1737  0.5422
   50CHL1  H24B 6170   0.896   2.369   8.853 -0.9832  0.6669  1.5418
   50CHL1   C25 6171   0.776   2.428   8.680 -1.0500  0.2192  0.0243
   50CHL1   H25 6172   0.850   2.357   8.637  0.6843  0.8102  1.9472
   50CHL1   C26 6173   0.645   2.356   8.707 -0.0353  0.4414  0.3368
   50CHL1  H26A 6174   0.661   2.266   8.770 -0.4636 -0.2515 -0.5225
   50CHL1  H26B 6175   0.567   2.423   8.748 -1.5509 -0.1389 -1.4792
   50CHL1  H26C 6176   0.606   2.321   8.609 -0.5624  0.3651  0.5712
   50CHL1   C27 6177   0.756   2.551   8.590  0.2565  0.2020  0.1060
   50CHL1  H27A 6178   0.671   2.612   8.627  0.5459  1.1716 -0.7955
   50CHL1  H27B 6179   0.847   2.614   8.588  1.6365 -1.7156  1.0606
   50CHL1  H27C 6180   0.745   2.525   8.482 -0.7815  1.6773 -0.1708
   51CHL1    C3 6181   2.527   5.305  10.339  0.0103  0.3881 -0.4735
   51CHL1    H3 6182   2.502   5.199  10.316 -1.5585  0.5495  0.3917
   51CHL1    O3 6183   2.563   5.308  10.477  0.2632  0.4146  0.1344
   51CHL1   H3' 6184   2.645   5.259  10.478  1.4146  2.2495 -1.8929
   51CHL1    C4 6185   2.641   5.358  10.241 -0.1988  0.3441  0.3875
   51CHL1   H4A 6186   2.646   5.465  10.269  1.4834  0.4557 -0.3363
   51CHL1   H4B 6187   2.737   5.313  10.274 -0.3887  1.3226  2.3626
   51CHL1    C5 6188   2.601   5.358  10.093 -0.2689  0.2618 -0.0679
   51CHL1    C6 6189   2.667   5.281  10.009 -0.0595 -0.8546 -0.4576
   51CHL1    H6 6190   2.748   5.221  10.053 -0.5243 -1.4167 -0.3615
   51CHL1    C7 6191   2.640   5.266   9.862 -1.1865  0.4910  0.2538
   51CHL1   H7A 6192   2.731   5.266   9.800 -0.9184  2.0386  0.6233
   51CHL1   H7B 6193   2.589   5.167   9.858 -0.0087 -0.1619  1.2003
   51CHL1    C8 6194   2.541   5.374   9.804  0.0744  0.0425 -0.0680
   51CHL1    H8 6195   2.597   5.470   9.790 -1.0502  0.6083 -0.7269
   51CHL1   C14 6196   2.481   5.334   9.663  0.4006 -1.0417 -0.1768
   51CHL1   H14 6197   2.433   5.236   9.681 -1.8980 -0.0157 -0.4861
   51CHL1   C15 6198   2.589   5.305   9.555  0.2342 -0.1106  0.2188
   51CHL1  H15A 6199   2.682   5.365   9.548  0.5624 -0.7438 -1.1156
   51CHL1  H15B 6200   2.638   5.205   9.565  1.5414  0.3758 -1.1509
   51CHL1   C16 6201   2.517   5.312   9.419 -1.1965 -0.0887 -0.0497
   51CHL1  H16A 6202   2.551   5.397   9.355 -2.1356  0.8015  0.6170
   51CHL1  H16B 6203   2.516   5.218   9.361 -1.6265  1.2734 -2.3308
   51CHL1   C17 6204   2.368   5.356   9.461  0.7194 -0.2343  0.0953
   51CHL1   H17 6205   2.302   5.269   9.482 -2.3988  2.2286  0.9853
   51CHL1   C13 6206   2.387   5.430   9.602  0.2189  0.5579  0.5928
   51CHL1   C18 6207   2.455   5.571   9.584 -0.1343 -0.3446 -0.2892
   51CHL1  H18A 6208   2.383   5.643   9.540 -1.6848 -1.3379  0.5573
   51CHL1  H18B 6209   2.492   5.606   9.682  0.4503  0.7932 -0.9112
   51CHL1  H18C 6210   2.548   5.543   9.529 -0.2087 -0.2438 -0.4676
   51CHL1   C12 6211   2.266   5.433   9.697 -0.5142  0.5175  0.5034
   51CHL1  H12A 6212   2.181   5.494   9.660 -2.0174 -2.1795 -0.6487
   51CHL1  H12B 6213   2.234   5.327   9.692  2.7034 -0.4174 -1.4296
   51CHL1   C11 6214   2.311   5.486   9.841  0.1075  0.0992  0.4270
   51CHL1  H11A 6215   2.328   5.595   9.827 -2.1792  0.5687  1.0041
   51CHL1  H11B 6216   2.220   5.478   9.905 -0.4561  1.6766 -0.1633
   51CHL1    C9 6217   2.427   5.397   9.904 -0.7194 -0.4023 -0.5416
   51CHL1    H9 6218   2.386   5.294   9.919  0.9206 -1.0023 -0.0645
   51CHL1   C10 6219   2.471   5.434  10.051 -0.0261 -0.2399  0.0950
   51CHL1   C19 6220   2.492   5.594  10.053 -0.2239  0.0581 -0.1455
   51CHL1  H19A 6221   2.394   5.644  10.041 -0.6546 -0.4284  1.2344
   51CHL1  H19B 6222   2.544   5.621  10.148  1.3649  0.5703 -1.1391
   51CHL1  H19C 6223   2.569   5.620   9.977 -0.5180  0.3341 -0.3523
   51CHL1    C1 6224   2.363   5.383  10.147  0.5077 -0.3183 -0.0368
   51CHL1   H1A 6225   2.281   5.456  10.130  0.9362 -0.1273 -1.3311
   51CHL1   H1B 6226   2.328   5.281  10.120  2.2151 -0.3439 -2.3145
   51CHL1    C2 6227   2.397   5.393  10.302  0.0912  0.3249  0.7273
   51CHL1   H2A 6228   2.317   5.358  10.370 -0.0308  0.5804  0.7137
   51CHL1   H2B 6229   2.409   5.501  10.326 -0.4685  0.6483 -0.4175
   51CHL1   C20 6230   2.314   5.436   9.339 -0.0565 -0.3959 -0.1891
   51CHL1   H20 6231   2.360   5.537   9.336 -0.3683 -0.2731 -0.8403
   51CHL1   C21 6232   2.164   5.453   9.377 -0.9539 -0.3631  0.1903
   51CHL1  H21A 6233   2.122   5.496   9.283  0.6593  0.8513 -0.0006
   51CHL1  H21B 6234   2.147   5.534   9.451  1.3277 -0.3397  0.7065
   51CHL1  H21C 6235   2.130   5.350   9.401  1.1591 -0.9586  0.7325
   51CHL1   C22 6236   2.332   5.360   9.204 -0.1435  0.2703  0.3519
   51CHL1  H22A 6237   2.440   5.359   9.178 -0.7446  0.1348 -2.2223
   51CHL1  H22B 6238   2.289   5.258   9.200  0.6889 -0.0483 -0.7733
   51CHL1   C23 6239   2.279   5.436   9.082  0.0725  0.3093  0.6229
   51CHL1  H23A 6240   2.168   5.432   9.074  0.3072 -0.9505 -3.0575
   51CHL1  H23B 6241   2.311   5.542   9.084  1.1699 -0.0363  2.1048
   51CHL1   C24 6242   2.320   5.370   8.948 -0.5078 -0.7010 -0.4876
   51CHL1  H24A 6243   2.429   5.380   8.935 -0.7256  0.9933 -1.0971
   51CHL1  H24B 6244   2.285   5.265   8.959 -0.7965 -0.3890  1.7916
   51CHL1   C25 6245   2.256   5.444   8.820 -0.5993  0.0098 -0.6474
   51CHL1   H25 6246   2.315   5.537   8.814 -0.8522  0.2710  0.8491
   51CHL1   C26 6247   2.286   5.363   8.686  0.3258 -0.1002 -0.0783
   51CHL1  H26A 6248   2.265   5.435   8.605 -0.1959 -0.2963 -0.1160
   51CHL1  H26B 6249   2.388   5.320   8.687  0.0315 -0.8154 -0.6655
   51CHL1  H26C 6250   2.216   5.278   8.684  0.8548 -0.6378  2.3260
   51CHL1   C27 6251   2.105   5.472   8.829  0.4912  0.5036 -0.6993
   51CHL1  H27A 6252   2.045   5.380   8.818 -0.4593  0.9418  0.7209
   51CHL1  H27B 6253   2.087   5.528   8.923 -1.8715 -0.7761 -0.3838
   51CHL1  H27C 6254   2.067   5.536   8.746  3.2488  1.9472 -0.9400
   52CHL1    C3 6255   6.097   4.305   9.968 -0.4585  0.1918  0.3314
   52CHL1    H3 6256   6.058   4.410   9.972 -0.7771  0.0400  1.4555
   52CHL1    O3 6257   6.139   4.268  10.095 -0.5151  0.7940  0.2709
   52CHL1   H3' 6258   6.125   4.173  10.087 -1.4345  0.9242  0.2272
   52CHL1    C4 6259   5.996   4.204   9.910  0.3435 -0.3171 -0.3785
   52CHL1   H4A 6260   6.047   4.106   9.917  2.2008  0.5713 -1.1328
   52CHL1   H4B 6261   5.910   4.180   9.977 -0.2488  0.2788 -0.9263
   52CHL1    C5 6262   5.963   4.233   9.764  0.7404  0.7976  0.3634
   52CHL1    C6 6263   5.835   4.246   9.726  0.2225  0.5064 -0.1055
   52CHL1    H6 6264   5.758   4.237   9.804 -0.7791 -2.3620 -1.3365
   52CHL1    C7 6265   5.794   4.258   9.581  0.1281  0.2368  0.1139
   52CHL1   H7A 6266   5.717   4.179   9.571  1.5648 -1.2013  0.1473
   52CHL1   H7B 6267   5.754   4.359   9.561  2.6188  1.1342 -0.4527
   52CHL1    C8 6268   5.917   4.231   9.481 -0.7422  0.7912  0.0666
   52CHL1    H8 6269   5.937   4.121   9.475 -0.5837  0.7593  1.1648
   52CHL1   C14 6270   5.877   4.288   9.344  0.2448 -0.3168 -0.4046
   52CHL1   H14 6271   5.865   4.396   9.366  1.3114 -0.4638  0.9633
   52CHL1   C15 6272   5.747   4.227   9.286 -0.3406 -0.0925 -0.1053
   52CHL1  H15A 6273   5.729   4.121   9.313  0.1027 -0.8337 -2.6517
   52CHL1  H15B 6274   5.657   4.281   9.324 -0.1847  0.3190 -0.3226
   52CHL1   C16 6275   5.763   4.248   9.130  0.0865 -0.3752  0.4163
   52CHL1  H16A 6276   5.764   4.154   9.070 -3.0586 -0.1403 -0.0991
   52CHL1  H16B 6277   5.688   4.313   9.081 -0.9926 -2.3983 -0.6835
   52CHL1   C17 6278   5.900   4.316   9.111 -0.9541 -0.6051  0.0150
   52CHL1   H17 6279   5.875   4.423   9.120 -1.5208 -0.7822  0.6095
   52CHL1   C13 6280   5.984   4.269   9.233  0.1194  0.3093 -0.5061
   52CHL1   C18 6281   6.018   4.115   9.214 -0.2291 -0.5104 -0.4022
   52CHL1  H18A 6282   6.051   4.063   9.307 -1.2569 -1.4655 -0.5606
   52CHL1  H18B 6283   5.922   4.066   9.186 -0.7452  0.1093  0.2388
   52CHL1  H18C 6284   6.089   4.107   9.130  0.4360 -0.6640  0.1686
   52CHL1   C12 6285   6.101   4.353   9.282 -0.9669  0.2008  1.0329
   52CHL1  H12A 6286   6.192   4.348   9.219 -0.8637 -0.5497  1.2334
   52CHL1  H12B 6287   6.072   4.459   9.297 -0.5583  0.0326  3.1960
   52CHL1   C11 6288   6.157   4.303   9.418 -0.0480  0.2798 -0.3300
   52CHL1  H11A 6289   6.193   4.199   9.406  1.1145  0.1904  3.3171
   52CHL1  H11B 6290   6.241   4.361   9.462  0.7950 -2.8263  2.3332
   52CHL1    C9 6291   6.044   4.306   9.528  0.0431 -0.1985  0.4376
   52CHL1    H9 6292   6.019   4.414   9.542  3.1539  0.4845  1.0236
   52CHL1   C10 6293   6.080   4.247   9.670  0.1869  0.3819 -0.2010
   52CHL1   C19 6294   6.143   4.107   9.647  0.4650 -0.2231  0.4141
   52CHL1  H19A 6295   6.235   4.108   9.585  1.0955 -2.7146  1.2633
   52CHL1  H19B 6296   6.177   4.058   9.741  2.1111 -1.3118 -0.7362
   52CHL1  H19C 6297   6.075   4.034   9.598 -2.4821  2.3923  0.4683
   52CHL1    C1 6298   6.184   4.341   9.734  0.5113  0.1325  0.2035
   52CHL1   H1A 6299   6.273   4.352   9.668 -0.1984  0.4882 -0.7063
   52CHL1   H1B 6300   6.142   4.444   9.741  0.1989  0.1273 -1.4861
   52CHL1    C2 6301   6.223   4.312   9.883 -0.2789  0.3607 -0.5926
   52CHL1   H2A 6302   6.290   4.393   9.920 -0.4628  0.7539 -1.1147
   52CHL1   H2B 6303   6.275   4.214   9.881  0.5589  0.7421  0.9747
   52CHL1   C20 6304   5.957   4.286   8.970 -0.8521 -0.9813 -0.1072
   52CHL1   H20 6305   5.962   4.177   8.951  0.7233 -1.0136  0.3950
   52CHL1   C21 6306   6.097   4.338   8.951 -0.2940 -0.5504 -0.6462
   52CHL1  H21A 6307   6.110   4.447   8.973 -0.3970 -0.8497  1.0003
   52CHL1  H21B 6308   6.146   4.320   8.854  2.0210 -0.0293  0.3927
   52CHL1  H21C 6309   6.170   4.280   9.011 -1.8347 -0.5842  1.2552
   52CHL1   C22 6310   5.866   4.337   8.852 -0.9507 -0.6020  0.0415
   52CHL1  H22A 6311   5.918   4.324   8.755 -0.7318 -4.2372  0.5808
   52CHL1  H22B 6312   5.770   4.283   8.839  0.3202 -2.9386  0.1385
   52CHL1   C23 6313   5.827   4.488   8.860  0.0416  0.1083 -0.1939
   52CHL1  H23A 6314   5.745   4.485   8.934 -0.0174 -1.5163 -0.3083
   52CHL1  H23B 6315   5.911   4.552   8.894  0.4702 -1.7464  2.3761
   52CHL1   C24 6316   5.776   4.530   8.722 -0.1355 -0.5261 -0.1255
   52CHL1  H24A 6317   5.858   4.565   8.656  1.1947 -0.9950  1.2356
   52CHL1  H24B 6318   5.729   4.444   8.669  2.2383 -1.4454 -0.7874
   52CHL1   C25 6319   5.672   4.647   8.721  0.2445 -0.1058  0.2906
   52CHL1   H25 6320   5.579   4.620   8.775  0.0754  0.7094  0.4068
   52CHL1   C26 6321   5.719   4.781   8.775 -0.2790 -0.2235  0.2344
   52CHL1  H26A 6322   5.806   4.828   8.724 -0.1335 -0.6330  0.1016
   52CHL1  H26B 6323   5.641   4.858   8.760 -0.2602 -0.7680 -3.0965
   52CHL1  H26C 6324   5.745   4.777   8.883 -0.4602 -0.9430  0.2546
   52CHL1   C27 6325   5.626   4.680   8.577 -0.0333 -0.2060  0.0250
   52CHL1  H27A 6326   5.709   4.682   8.504  1.8606 -1.7086  2.0694
   52CHL1  H27B 6327   5.554   4.601   8.545  0.7572 -1.0122  0.2216
   52CHL1  H27C 6328   5.595   4.786   8.570 -0.4057 -0.1517  2.0485
   53CHL1    C3 6329   0.366   4.176  10.019  0.4741 -0.2880  0.7953
   53CHL1    H3 6330   0.333   4.263   9.960 -1.3574 -0.7673  1.0897
   53CHL1    O3 6331   0.369   4.205  10.158  0.0647 -0.2337 -0.5489
   53CHL1   H3' 6332   0.404   4.123  10.196  1.6343  0.1722 -1.0903
   53CHL1    C4 6333   0.287   4.050   9.994  0.2586 -0.3965 -0.0289
   53CHL1   H4A 6334   0.337   3.971  10.055  2.1688  1.7614  1.2703
   53CHL1   H4B 6335   0.182   4.052  10.031  0.0829 -0.4011 -0.5346
   53CHL1    C5 6336   0.282   4.019   9.846  0.3587 -1.1562  0.5900
   53CHL1    C6 6337   0.166   4.005   9.786  0.0895  0.2223 -0.6731
   53CHL1    H6 6338   0.067   4.027   9.828  0.9770  0.6068  1.2266
   53CHL1    C7 6339   0.169   3.958   9.640  0.6741 -0.0704 -0.2036
   53CHL1   H7A 6340   0.086   3.886   9.622  2.2581 -1.9698 -0.0473
   53CHL1   H7B 6341   0.138   4.047   9.581 -0.2997  0.8340  1.6141
   53CHL1    C8 6342   0.300   3.897   9.578 -0.6010 -0.2389  0.2078
   53CHL1    H8 6343   0.313   3.791   9.609 -1.9151  0.0524  1.7673
   53CHL1   C14 6344   0.306   3.912   9.426 -0.1173 -0.1469  0.8272
   53CHL1   H14 6345   0.299   4.022   9.409  1.7086 -0.2992 -1.1260
   53CHL1   C15 6346   0.190   3.860   9.339 -0.0667 -0.0248  0.3694
   53CHL1  H15A 6347   0.164   3.760   9.379 -0.8871 -0.7248 -1.8142
   53CHL1  H15B 6348   0.104   3.929   9.355 -0.8991 -1.0866  0.5314
   53CHL1   C16 6349   0.237   3.860   9.193  0.1440 -0.4639  0.1830
   53CHL1  H16A 6350   0.207   3.758   9.160 -0.0742 -0.3716  0.0970
   53CHL1  H16B 6351   0.182   3.937   9.136 -0.1813 -0.7170  0.1556
   53CHL1   C17 6352   0.393   3.887   9.213  0.2081  0.6255 -0.1403
   53CHL1   H17 6353   0.396   3.996   9.192 -1.0641  1.1673  2.2811
   53CHL1   C13 6354   0.431   3.862   9.356  0.5038 -0.6064 -0.6545
   53CHL1   C18 6355   0.434   3.705   9.386  0.0619 -0.4232 -0.3713
   53CHL1  H18A 6356   0.357   3.655   9.324 -0.4867 -0.9612  0.7237
   53CHL1  H18B 6357   0.531   3.671   9.344 -0.5816 -1.6414 -0.8853
   53CHL1  H18C 6358   0.419   3.678   9.493 -0.5737 -0.2704 -0.4236
   53CHL1   C12 6359   0.553   3.934   9.414  0.5680 -0.4803  0.4982
   53CHL1  H12A 6360   0.647   3.901   9.364  0.3073 -0.0029 -0.3172
   53CHL1  H12B 6361   0.560   4.038   9.376 -0.1951 -0.9341 -0.9382
   53CHL1   C11 6362   0.557   3.925   9.567  0.3156  0.1654 -0.8101
   53CHL1  H11A 6363   0.581   3.819   9.592  2.7226  0.5714 -1.2371
   53CHL1  H11B 6364   0.638   3.984   9.616 -2.5792  3.6123  0.0131
   53CHL1    C9 6365   0.423   3.977   9.634  0.9253 -0.3746  0.5284
   53CHL1    H9 6366   0.412   4.077   9.587 -1.1220 -1.2680 -0.9504
   53CHL1   C10 6367   0.424   3.990   9.789 -0.1219  0.5266 -0.1562
   53CHL1   C19 6368   0.470   3.858   9.852 -1.0441 -0.2176  0.5780
   53CHL1  H19A 6369   0.572   3.852   9.807 -1.9998  1.0948 -1.8598
   53CHL1  H19B 6370   0.466   3.849   9.962 -1.7463  3.7545  0.9237
   53CHL1  H19C 6371   0.409   3.774   9.812  0.3959 -0.4783 -1.1618
   53CHL1    C1 6372   0.511   4.115   9.828 -0.2611  0.5929 -0.2993
   53CHL1   H1A 6373   0.614   4.092   9.792 -0.0401 -0.8513  1.2154
   53CHL1   H1B 6374   0.462   4.192   9.764 -1.0149  1.6245  1.5094
   53CHL1    C2 6375   0.512   4.159   9.974 -0.1392  0.6814  0.1460
   53CHL1   H2A 6376   0.577   4.248   9.984  2.4688 -1.2870  1.3908
   53CHL1   H2B 6377   0.560   4.071  10.023 -0.3723  0.9862  0.9175
   53CHL1   C20 6378   0.470   3.826   9.098 -0.0288  0.0057  0.5880
   53CHL1   H20 6379   0.467   3.716   9.116  1.7339 -0.0764  0.5126
   53CHL1   C21 6380   0.617   3.872   9.089  0.2982 -0.7175  0.6949
   53CHL1  H21A 6381   0.666   3.825   9.002  0.5172  0.2318  0.2949
   53CHL1  H21B 6382   0.666   3.855   9.187 -3.6283  0.5862  2.9973
   53CHL1  H21C 6383   0.609   3.983   9.087 -1.2091 -0.7959  1.1982
   53CHL1   C22 6384   0.392   3.848   8.962  0.6300 -0.0345  0.6313
   53CHL1  H22A 6385   0.440   3.795   8.877 -2.0689 -0.0533 -0.9617
   53CHL1  H22B 6386   0.292   3.798   8.957  1.5782 -1.8756 -0.5205
   53CHL1   C23 6387   0.374   3.997   8.918  0.3519 -0.0542 -0.0054
   53CHL1  H23A 6388   0.326   4.058   8.998  0.1000  1.4485 -1.2807
   53CHL1  H23B 6389   0.473   4.044   8.903 -0.9022  3.2410  1.4192
   53CHL1   C24 6390   0.290   4.023   8.794  0.1414  0.4858  0.2741
   53CHL1  H24A 6391   0.351   3.985   8.709 -1.1163 -2.6180  0.7200
   53CHL1  H24B 6392   0.185   3.988   8.803 -0.2197 -0.1634 -4.6649
   53CHL1   C25 6393   0.281   4.172   8.753  0.2156  0.8054 -0.6330
   53CHL1   H25 6394   0.252   4.233   8.841 -0.8958  0.2047 -0.5723
   53CHL1   C26 6395   0.405   4.237   8.689 -0.1948 -0.0923  0.1139
   53CHL1  H26A 6396   0.498   4.203   8.740  0.4679  0.5086 -0.6834
   53CHL1  H26B 6397   0.412   4.202   8.584 -1.2442  0.3338 -0.1015
   53CHL1  H26C 6398   0.402   4.348   8.688 -0.4082 -0.0935  0.4708
   53CHL1   C27 6399   0.169   4.196   8.652  0.2043 -0.6598  0.5124
   53CHL1  H27A 6400   0.187   4.123   8.570  0.0153 -2.0573  1.6950
   53CHL1  H27B 6401   0.076   4.172   8.708  1.0504  0.9634  2.6415
   53CHL1  H27C 6402   0.172   4.300   8.614 -1.8613 -0.2367  1.3979
   54CHL1    C3 6403   0.557   5.255  10.053 -0.5425 -0.1623  0.7494
   54CHL1    H3 6404   0.621   5.166  10.070  0.3800  0.6874  1.8139
   54CHL1    O3 6405   0.532   5.312  10.180 -0.1759  0.4058 -0.2683
   54CHL1   H3' 6406   0.604   5.370  10.206 -1.1502  1.5664 -0.1212
   54CHL1    C4 6407   0.632   5.352   9.969 -0.7054 -0.0494  0.0542
   54CHL1   H4A 6408   0.589   5.453   9.986  2.5503  1.5666 -1.0059
   54CHL1   H4B 6409   0.737   5.369  10.001 -1.1598  0.1003  1.4906
   54CHL1    C5 6410   0.627   5.321   9.821 -0.2681  0.1356 -0.0569
   54CHL1    C6 6411   0.744   5.342   9.746  0.1381  0.0857 -0.2567
   54CHL1    H6 6412   0.836   5.378   9.795 -0.4526 -1.9357  2.4512
   54CHL1    C7 6413   0.740   5.338   9.595  0.1822  0.0942  0.2333
   54CHL1   H7A 6414   0.771   5.442   9.569  0.7272  0.5780  2.6821
   54CHL1   H7B 6415   0.810   5.267   9.546  1.3327  0.9457  0.6245
   54CHL1    C8 6416   0.602   5.308   9.530 -0.2039 -0.3126 -0.6401
   54CHL1    H8 6417   0.550   5.405   9.524  0.5210  0.0904 -0.4803
   54CHL1   C14 6418   0.614   5.252   9.394  0.3216  0.0714  0.9601
   54CHL1   H14 6419   0.666   5.154   9.399 -2.8368 -1.7273 -0.4174
   54CHL1   C15 6420   0.703   5.334   9.288  0.2544  0.3558 -0.3144
   54CHL1  H15A 6421   0.696   5.444   9.303 -1.4091 -0.2631  4.2377
   54CHL1  H15B 6422   0.810   5.307   9.293  0.5096  1.4708  0.3203
   54CHL1   C16 6423   0.646   5.307   9.145  0.2279  0.1887 -0.1877
   54CHL1  H16A 6424   0.595   5.397   9.106  0.5303  0.5618  0.2800
   54CHL1  H16B 6425   0.720   5.271   9.069 -0.0150 -0.1407 -0.2701
   54CHL1   C17 6426   0.538   5.200   9.175 -0.2390 -0.2642  0.0989
   54CHL1   H17 6427   0.598   5.107   9.175  0.7045  0.3421  0.3098
   54CHL1   C13 6428   0.482   5.221   9.323  0.6183 -0.5121 -0.4421
   54CHL1   C18 6429   0.376   5.333   9.320 -0.0842 -0.3889  0.1315
   54CHL1  H18A 6430   0.427   5.428   9.292 -1.6604  1.7216  3.9981
   54CHL1  H18B 6431   0.291   5.313   9.252  0.6787 -1.4332 -0.5202
   54CHL1  H18C 6432   0.337   5.362   9.420 -0.8491  1.1580 -0.6031
   54CHL1   C12 6433   0.414   5.105   9.409 -0.3640 -0.4095  0.5131
   54CHL1  H12A 6434   0.314   5.067   9.376  0.5383 -2.0518 -0.3824
   54CHL1  H12B 6435   0.486   5.022   9.399  2.2534  1.5786  2.4154
   54CHL1   C11 6436   0.392   5.145   9.557 -0.1372 -0.3896  1.1436
   54CHL1  H11A 6437   0.306   5.215   9.562  0.5053  0.5389 -0.2893
   54CHL1  H11B 6438   0.360   5.054   9.612 -2.1772 -0.0245  0.5852
   54CHL1    C9 6439   0.522   5.213   9.627  0.7168  0.6094 -0.2258
   54CHL1    H9 6440   0.597   5.133   9.645  3.0809  3.1432  1.5980
   54CHL1   C10 6441   0.494   5.278   9.759  0.5010  0.5327 -0.2910
   54CHL1   C19 6442   0.396   5.400   9.741 -0.9518 -0.8909 -0.0164
   54CHL1  H19A 6443   0.442   5.473   9.671 -0.4472 -1.0132  0.1848
   54CHL1  H19B 6444   0.293   5.372   9.709 -1.6974 -1.4219  2.7670
   54CHL1  H19C 6445   0.380   5.453   9.837 -1.3808 -0.0413 -0.5458
   54CHL1    C1 6446   0.438   5.170   9.851  1.1265 -0.0045  0.0049
   54CHL1   H1A 6447   0.336   5.148   9.812  0.1269 -1.8857  3.4497
   54CHL1   H1B 6448   0.500   5.082   9.824  1.5785 -0.3947  2.1824
   54CHL1    C2 6449   0.422   5.210   9.992  0.3831  0.0287 -0.0005
   54CHL1   H2A 6450   0.385   5.123  10.051  0.5710 -2.1349 -2.9948
   54CHL1   H2B 6451   0.359   5.301  10.007 -0.5152 -0.9160  2.1796
   54CHL1   C20 6452   0.437   5.183   9.056  0.0864 -0.0357 -0.4409
   54CHL1   H20 6453   0.380   5.277   9.039  1.0211  0.4271 -1.0780
   54CHL1   C21 6454   0.346   5.074   9.102 -0.4758  0.2755 -0.5181
   54CHL1  H21A 6455   0.279   5.110   9.183  2.3133  3.4289  0.5017
   54CHL1  H21B 6456   0.400   4.981   9.132 -1.4521 -0.3123 -0.5663
   54CHL1  H21C 6457   0.276   5.052   9.019 -1.0103  0.4226 -0.1085
   54CHL1   C22 6458   0.508   5.153   8.923 -0.5295  0.1140  0.0909
   54CHL1  H22A 6459   0.592   5.225   8.917 -1.4828  1.1824 -0.8179
   54CHL1  H22B 6460   0.539   5.047   8.919 -1.4567 -0.1812  0.5585
   54CHL1   C23 6461   0.430   5.193   8.788 -0.0295  0.4516  0.6475
   54CHL1  H23A 6462   0.335   5.137   8.796 -0.1880  0.5242 -0.5486
   54CHL1  H23B 6463   0.405   5.301   8.797  0.1848  0.6816 -1.3146
   54CHL1   C24 6464   0.494   5.171   8.644  0.2143  0.9072 -0.8915
   54CHL1  H24A 6465   0.585   5.107   8.652  0.0797  0.6293 -1.5156
   54CHL1  H24B 6466   0.414   5.111   8.595  0.0422  1.3140 -1.1079
   54CHL1   C25 6467   0.522   5.294   8.548  0.1867  0.7826 -0.2891
   54CHL1   H25 6468   0.559   5.252   8.452  1.0672  0.6524  0.1104
   54CHL1   C26 6469   0.387   5.368   8.532 -0.1669 -0.3113  0.0143
   54CHL1  H26A 6470   0.340   5.380   8.632  1.3376  0.0170  0.7041
   54CHL1  H26B 6471   0.401   5.467   8.482 -0.9452  0.0221  0.4374
   54CHL1  H26C 6472   0.317   5.306   8.472  0.9369 -0.8189 -0.7574
   54CHL1   C27 6473   0.635   5.380   8.606 -0.3269  0.6715 -0.2308
   54CHL1  H27A 6474   0.614   5.485   8.576 -1.5617  0.5413  0.1616
   54CHL1  H27B 6475   0.630   5.391   8.716 -1.1655  0.8680 -0.2851
   54CHL1  H27C 6476   0.734   5.340   8.576 -0.0763  0.4334  0.8912
   55CHL1    C3 6477   0.745   2.415  10.142  0.1219 -0.0514 -0.6731
   55CHL1    H3 6478   0.638   2.440  10.129  0.3074  1.2242  0.0857
   55CHL1    O3 6479   0.797   2.459  10.267  0.1721  0.0707 -0.1601
   55CHL1   H3' 6480   0.892   2.458  10.256  0.1238 -1.0147 -0.5443
   55CHL1    C4 6481   0.771   2.260  10.140  0.3463  0.0663  0.3978
   55CHL1   H4A 6482   0.876   2.255  10.175  0.8497  0.2745 -1.0674
   55CHL1   H4B 6483   0.701   2.226  10.219  1.7542 -1.0176  1.1983
   55CHL1    C5 6484   0.739   2.194  10.004 -0.3855  0.0460  0.2562
   55CHL1    C6 6485   0.649   2.094   9.990  0.6048 -0.7919 -0.5769
   55CHL1    H6 6486   0.600   2.046  10.076 -0.7134 -0.3276 -1.0654
   55CHL1    C7 6487   0.605   2.055   9.853 -0.2951 -0.0502  0.1520
   55CHL1   H7A 6488   0.577   1.948   9.862 -0.0505 -0.0093  1.5698
   55CHL1   H7B 6489   0.512   2.111   9.829 -1.4373 -2.2047 -0.6359
   55CHL1    C8 6490   0.700   2.088   9.736  0.1618  0.4766  0.2670
   55CHL1    H8 6491   0.794   2.029   9.744  0.4771  1.0358  0.7520
   55CHL1   C14 6492   0.642   2.059   9.598  0.5140 -0.1805  0.1286
   55CHL1   H14 6493   0.555   2.129   9.595 -1.2173 -2.2759 -0.1743
   55CHL1   C15 6494   0.579   1.926   9.576  0.2195  0.1083 -0.0317
   55CHL1  H15A 6495   0.634   1.838   9.613  0.4570 -0.5249 -1.8466
   55CHL1  H15B 6496   0.479   1.915   9.624 -0.0496 -0.7169 -0.7736
   55CHL1   C16 6497   0.566   1.915   9.424  0.8503  0.0400  0.7033
   55CHL1  H16A 6498   0.607   1.818   9.392 -0.5147 -0.7388  1.2637
   55CHL1  H16B 6499   0.457   1.924   9.403  1.2282  0.9161 -1.0144
   55CHL1   C17 6500   0.639   2.035   9.367  0.4050 -0.1531 -0.0742
   55CHL1   H17 6501   0.557   2.109   9.370 -0.4722 -1.0743 -0.9353
   55CHL1   C13 6502   0.733   2.083   9.476 -0.2725  0.0586  0.1295
   55CHL1   C18 6503   0.851   1.981   9.474  0.7816 -0.1282  0.0592
   55CHL1  H18A 6504   0.910   2.000   9.382  0.9119  1.6431  0.4922
   55CHL1  H18B 6505   0.918   1.989   9.562  0.7636 -2.5325  0.3287
   55CHL1  H18C 6506   0.815   1.875   9.473 -0.8519  0.3723  2.2972
   55CHL1   C12 6507   0.780   2.232   9.481 -0.2126 -0.4756 -0.0198
   55CHL1  H12A 6508   0.858   2.242   9.402  0.0775 -0.8542  0.2200
   55CHL1  H12B 6509   0.686   2.287   9.457 -0.1667 -0.2715  0.2609
   55CHL1   C11 6510   0.835   2.271   9.620 -0.1671 -0.3342 -0.2297
   55CHL1  H11A 6511   0.929   2.214   9.606 -0.5847 -1.8038  2.5469
   55CHL1  H11B 6512   0.854   2.380   9.619 -1.3913 -0.1251 -1.2429
   55CHL1    C9 6513   0.742   2.237   9.740 -0.2066 -0.0251 -0.4592
   55CHL1    H9 6514   0.646   2.291   9.727 -0.5754 -0.3034  1.0738
   55CHL1   C10 6515   0.805   2.267   9.878  0.8245  0.0112  0.3662
   55CHL1   C19 6516   0.950   2.214   9.874 -0.6311 -0.0229 -0.0855
   55CHL1  H19A 6517   1.007   2.232   9.967 -3.0041 -1.1418  1.6309
   55CHL1  H19B 6518   0.956   2.106   9.845 -0.2198 -0.5907  2.0147
   55CHL1  H19C 6519   1.008   2.270   9.798  2.1075  1.3639  2.9088
   55CHL1    C1 6520   0.805   2.421   9.887  0.2611 -0.1206 -0.8983
   55CHL1   H1A 6521   0.879   2.468   9.817 -0.5025  2.3539 -0.0737
   55CHL1   H1B 6522   0.705   2.461   9.863 -1.3305 -1.7074  2.7086
   55CHL1    C2 6523   0.827   2.485  10.031 -0.4355 -0.3076 -0.2011
   55CHL1   H2A 6524   0.808   2.595  10.028 -1.5659 -0.4627  0.7492
   55CHL1   H2B 6525   0.934   2.464  10.048  0.0401  3.3877  1.8246
   55CHL1   C20 6526   0.685   2.024   9.215  0.7810 -0.1778 -0.3429
   55CHL1   H20 6527   0.778   1.962   9.209  0.7280 -0.2172 -0.7598
   55CHL1   C21 6528   0.698   2.158   9.154  1.0383  0.8287 -0.6731
   55CHL1  H21A 6529   0.753   2.152   9.058 -0.6934  0.0244 -1.6388
   55CHL1  H21B 6530   0.766   2.217   9.219  0.0356 -0.2567  1.4002
   55CHL1  H21C 6531   0.596   2.201   9.146  0.0366 -1.4365 -0.1829
   55CHL1   C22 6532   0.574   1.950   9.125 -0.3491  0.0112  0.0355
   55CHL1  H22A 6533   0.550   1.853   9.173  2.0979 -2.3020 -3.2506
   55CHL1  H22B 6534   0.481   2.010   9.139 -0.6817 -0.4241 -0.3220
   55CHL1   C23 6535   0.619   1.920   8.981  0.3140 -0.7828 -0.2268
   55CHL1  H23A 6536   0.644   2.010   8.920  0.7428 -1.3962 -0.9569
   55CHL1  H23B 6537   0.715   1.867   8.994  0.0187 -1.5905 -1.2720
   55CHL1   C24 6538   0.516   1.840   8.890 -0.2802  0.3280 -0.1179
   55CHL1  H24A 6539   0.490   1.741   8.932 -0.3267 -0.2483 -1.4894
   55CHL1  H24B 6540   0.427   1.906   8.882 -0.2938  0.8764  3.6709
   55CHL1   C25 6541   0.573   1.821   8.750 -0.3491 -0.3947 -0.2824
   55CHL1   H25 6542   0.675   1.780   8.762  1.5306  3.4510 -2.0720
   55CHL1   C26 6543   0.478   1.724   8.685  0.0845 -0.2943 -0.2506
   55CHL1  H26A 6544   0.478   1.633   8.749 -1.0000  0.3234  0.6403
   55CHL1  H26B 6545   0.377   1.771   8.679  1.6429  3.1974 -0.4370
   55CHL1  H26C 6546   0.516   1.707   8.582 -1.1931 -0.6052 -0.6863
   55CHL1   C27 6547   0.598   1.951   8.668 -0.7982 -0.1063  0.0020
   55CHL1  H27A 6548   0.635   1.923   8.567 -0.8226  1.1601 -0.3644
   55CHL1  H27B 6549   0.504   2.008   8.656 -0.7257  0.0265  0.0652
   55CHL1  H27C 6550   0.672   2.012   8.724  0.7960  1.4132 -3.6207
   56CHL1    C3 6551   5.519   1.404  10.065  0.0354 -0.2879  0.4873
   56CHL1    H3 6552   5.580   1.494  10.044  2.6381 -1.8175  1.1958
   56CHL1    O3 6553   5.483   1.392  10.205 -0.2652  0.1202 -0.0359
   56CHL1   H3' 6554   5.457   1.300  10.215 -1.9772  0.2463 -2.8745
   56CHL1    C4 6555   5.388   1.403   9.991 -0.6311  0.2029  0.4876
   56CHL1   H4A 6556   5.331   1.315  10.026  1.0509 -1.7499 -1.5123
   56CHL1   H4B 6557   5.334   1.496  10.017  0.6231  0.8935  0.6711
   56CHL1    C5 6558   5.399   1.404   9.840 -0.8586 -0.4721 -0.0987
   56CHL1    C6 6559   5.335   1.494   9.762  0.7413  0.0687  0.3817
   56CHL1    H6 6560   5.266   1.564   9.813  0.8728 -0.2228  0.9682
   56CHL1    C7 6561   5.334   1.502   9.610 -0.0031  0.2473  0.3336
   56CHL1   H7A 6562   5.229   1.514   9.576  0.7258  0.5684 -1.8948
   56CHL1   H7B 6563   5.380   1.598   9.579  2.3272 -1.3982 -1.4317
   56CHL1    C8 6564   5.402   1.374   9.552  0.0575  0.2144  0.5425
   56CHL1    H8 6565   5.325   1.293   9.556  0.1370  0.0263 -1.2926
   56CHL1   C14 6566   5.440   1.388   9.404 -0.0230 -0.1446  0.1853
   56CHL1   H14 6567   5.507   1.476   9.417  0.1164 -0.1900 -0.2111
   56CHL1   C15 6568   5.331   1.428   9.301  0.5445 -0.3706  0.1721
   56CHL1  H15A 6569   5.248   1.355   9.297 -0.0322  0.2941 -0.0413
   56CHL1  H15B 6570   5.294   1.531   9.315  0.6879 -0.2430 -0.3613
   56CHL1   C16 6571   5.409   1.416   9.169  0.2094  0.2601 -0.1806
   56CHL1  H16A 6572   5.336   1.369   9.100  0.2722 -0.9128  0.5543
   56CHL1  H16B 6573   5.435   1.513   9.121 -1.3351  0.9212  0.2606
   56CHL1   C17 6574   5.539   1.333   9.196 -0.1758  0.4408  0.4113
   56CHL1   H17 6575   5.618   1.410   9.178 -0.2406  0.4816  0.3028
   56CHL1   C13 6576   5.526   1.279   9.337 -0.9041 -0.0105 -0.0765
   56CHL1   C18 6577   5.440   1.147   9.338 -0.7349 -0.4842 -0.2824
   56CHL1  H18A 6578   5.408   1.106   9.436 -1.7488  0.2742 -0.2878
   56CHL1  H18B 6579   5.344   1.163   9.285 -0.0364 -2.6057 -2.2723
   56CHL1  H18C 6580   5.501   1.063   9.299 -1.1174 -2.1218  2.4988
   56CHL1   C12 6581   5.646   1.264   9.417 -0.5317 -0.6552 -0.7297
   56CHL1  H12A 6582   5.721   1.191   9.378 -0.6241 -1.5315  0.6849
   56CHL1  H12B 6583   5.698   1.362   9.410 -0.4262 -0.7399 -1.1317
   56CHL1   C11 6584   5.615   1.220   9.561 -0.0073 -0.0984 -0.1985
   56CHL1  H11A 6585   5.569   1.119   9.563 -1.1021  0.3971  0.5981
   56CHL1  H11B 6586   5.707   1.220   9.622 -1.6178 -0.0319  2.3261
   56CHL1    C9 6587   5.523   1.327   9.633 -0.5368  0.0587 -0.2594
   56CHL1    H9 6588   5.593   1.413   9.629 -0.3605 -0.0712 -0.0456
   56CHL1   C10 6589   5.495   1.298   9.787 -0.2171  0.5869  0.6151
   56CHL1   C19 6590   5.429   1.162   9.798  0.6773  0.1818  0.0336
   56CHL1  H19A 6591   5.490   1.085   9.747  0.3946 -0.7142  1.0306
   56CHL1  H19B 6592   5.410   1.137   9.904 -0.8098 -2.0856 -0.7358
   56CHL1  H19C 6593   5.330   1.160   9.746  0.9492 -0.0867 -0.4767
   56CHL1    C1 6594   5.625   1.289   9.865  0.1203  0.0956  0.0424
   56CHL1   H1A 6595   5.688   1.203   9.834 -0.1578  0.3458 -1.2396
   56CHL1   H1B 6596   5.679   1.385   9.870 -0.0524  0.0958  2.5558
   56CHL1    C2 6597   5.597   1.284  10.019  0.6132  0.4920  0.0725
   56CHL1   H2A 6598   5.696   1.271  10.068 -1.4567 -0.5881  4.2147
   56CHL1   H2B 6599   5.538   1.192  10.039 -3.4028  3.1289  1.0950
   56CHL1   C20 6600   5.587   1.227   9.090 -0.7735 -0.0849 -0.1313
   56CHL1   H20 6601   5.652   1.154   9.144  2.9192  1.3441 -2.4412
   56CHL1   C21 6602   5.668   1.296   8.974 -0.3029  0.2752  0.6637
   56CHL1  H21A 6603   5.758   1.342   9.020 -0.5670  0.4569  0.9980
   56CHL1  H21B 6604   5.608   1.380   8.935 -1.8126 -0.3032  1.6853
   56CHL1  H21C 6605   5.699   1.220   8.899 -2.0297  0.9841 -0.7757
   56CHL1   C22 6606   5.467   1.148   9.020 -0.2884  0.6211 -0.5486
   56CHL1  H22A 6607   5.371   1.157   9.075 -0.9729  0.5472 -1.7202
   56CHL1  H22B 6608   5.446   1.208   8.929 -4.1480 -0.5664 -0.5332
   56CHL1   C23 6609   5.493   1.007   8.973  0.6463  0.1437  0.0751
   56CHL1  H23A 6610   5.594   1.005   8.927  0.8772 -0.3679  0.6014
   56CHL1  H23B 6611   5.477   0.936   9.057 -1.2736  2.1735  1.4894
   56CHL1   C24 6612   5.392   0.962   8.867  0.0418 -0.3599  0.5129
   56CHL1  H24A 6613   5.296   0.964   8.922 -0.7803 -0.3570 -0.8780
   56CHL1  H24B 6614   5.387   1.031   8.780 -1.8038  1.0260  1.6990
   56CHL1   C25 6615   5.413   0.817   8.819 -0.9818  0.5334 -0.4274
   56CHL1   H25 6616   5.512   0.828   8.769  0.7417 -0.7172  2.5984
   56CHL1   C26 6617   5.430   0.711   8.927 -0.3564  0.4353  0.7642
   56CHL1  H26A 6618   5.334   0.711   8.984  0.8516 -0.9771  2.8724
   56CHL1  H26B 6619   5.449   0.616   8.872  0.2840  0.3833  1.0750
   56CHL1  H26C 6620   5.514   0.736   8.996 -0.7011  1.9674  0.6356
   56CHL1   C27 6621   5.309   0.775   8.712  0.0036  0.0778  0.4932
   56CHL1  H27A 6622   5.325   0.673   8.672  0.0901  0.2080  0.1922
   56CHL1  H27B 6623   5.207   0.789   8.754 -0.1463 -1.4707  0.6722
   56CHL1  H27C 6624   5.324   0.847   8.629  1.0853 -1.8624 -1.0299
   57CHL1    C3 6625   1.392   3.686  10.319  0.5455  0.1129  0.3176
   57CHL1    H3 6626   1.496   3.722  10.308 -0.1815  2.4991  0.9863
   57CHL1    O3 6627   1.340   3.709  10.445  0.4879 -0.4417  0.0327
   57CHL1   H3' 6628   1.399   3.662  10.504  0.2362  2.4458  2.6457
   57CHL1    C4 6629   1.302   3.738  10.212  0.0843 -0.3292 -0.1629
   57CHL1   H4A 6630   1.206   3.684  10.224 -0.3867  0.1118 -1.8060
   57CHL1   H4B 6631   1.295   3.849  10.222 -1.1567 -0.2505 -1.6237
   57CHL1    C5 6632   1.347   3.706  10.073  0.8587  0.2442 -0.0127
   57CHL1    C6 6633   1.378   3.799   9.985 -0.8149  0.3525 -0.0508
   57CHL1    H6 6634   1.379   3.904  10.020 -3.8338  0.3531  0.1761
   57CHL1    C7 6635   1.433   3.761   9.844 -0.0534 -0.6480 -0.2625
   57CHL1   H7A 6636   1.410   3.840   9.769  2.3515  0.8069  0.4603
   57CHL1   H7B 6637   1.544   3.774   9.844 -0.0949 -0.2262  0.6880
   57CHL1    C8 6638   1.400   3.616   9.801  0.0619 -0.4248 -0.3283
   57CHL1    H8 6639   1.291   3.612   9.778  0.4368 -1.6346 -2.0449
   57CHL1   C14 6640   1.479   3.579   9.671  0.0033 -0.6259 -0.4522
   57CHL1   H14 6641   1.584   3.605   9.697 -0.2582  1.2271 -1.1265
   57CHL1   C15 6642   1.452   3.669   9.548  0.6630  0.5036 -0.4738
   57CHL1  H15A 6643   1.346   3.693   9.526 -0.2044  0.1736  3.0641
   57CHL1  H15B 6644   1.508   3.762   9.571 -1.0985  1.7859 -1.3029
   57CHL1   C16 6645   1.512   3.576   9.430 -0.2365 -0.0480 -0.3005
   57CHL1  H16A 6646   1.432   3.552   9.357 -2.4971  4.3252  0.5470
   57CHL1  H16B 6647   1.590   3.633   9.376 -1.2997 -0.3119 -2.1751
   57CHL1   C17 6648   1.563   3.441   9.499 -0.3598  0.4211  0.6024
   57CHL1   H17 6649   1.669   3.459   9.527 -0.0720 -0.2332 -0.0636
   57CHL1   C13 6650   1.475   3.436   9.624  0.0713  0.7262  0.5384
   57CHL1   C18 6651   1.335   3.394   9.578 -0.5513  0.1488 -0.9911
   57CHL1  H18A 6652   1.263   3.407   9.661 -0.4325 -2.3373 -0.4771
   57CHL1  H18B 6653   1.308   3.450   9.486  0.1814 -0.7736 -1.7798
   57CHL1  H18C 6654   1.328   3.288   9.547 -2.3409  0.1679 -0.7132
   57CHL1   C12 6655   1.516   3.344   9.744 -0.1091 -0.6364 -0.8995
   57CHL1  H12A 6656   1.488   3.238   9.728  2.9670 -1.5175 -0.7957
   57CHL1  H12B 6657   1.624   3.366   9.764 -0.5136 -0.7169  1.6092
   57CHL1   C11 6658   1.439   3.374   9.871 -0.3883 -0.4374  0.1322
   57CHL1  H11A 6659   1.338   3.330   9.855 -0.8676  0.7895 -0.2654
   57CHL1  H11B 6660   1.481   3.321   9.959 -3.4588 -2.1716  0.6184
   57CHL1    C9 6661   1.443   3.526   9.915 -0.3540  0.2917 -0.4430
   57CHL1    H9 6662   1.551   3.538   9.939 -0.1356 -0.0885 -1.2006
   57CHL1   C10 6663   1.362   3.555  10.044  0.0708 -0.0545  0.0164
   57CHL1   C19 6664   1.217   3.501  10.028 -0.2906 -1.1802  0.7197
   57CHL1  H19A 6665   1.163   3.566   9.955  0.6888 -1.3969 -0.2131
   57CHL1  H19B 6666   1.207   3.398   9.988  0.4748 -1.7456  1.9592
   57CHL1  H19C 6667   1.171   3.503  10.129 -0.7090  0.4728  0.5131
   57CHL1    C1 6668   1.434   3.500  10.160  0.5810  0.4254 -0.6281
   57CHL1   H1A 6669   1.435   3.391  10.139 -1.6952  0.6243 -1.9549
   57CHL1   H1B 6670   1.541   3.531  10.156  1.5167 -2.6551 -0.4956
   57CHL1    C2 6671   1.394   3.532  10.302 -0.2545 -0.0630 -0.3467
   57CHL1   H2A 6672   1.478   3.490  10.362  0.4712  2.0705  0.1571
   57CHL1   H2B 6673   1.297   3.482  10.322 -0.5194  0.6918  0.2861
   57CHL1   C20 6674   1.566   3.326   9.399 -0.4371  0.8108 -0.1091
   57CHL1   H20 6675   1.463   3.313   9.360 -0.7493 -1.9846  1.4772
   57CHL1   C21 6676   1.583   3.185   9.463 -0.4908 -0.8038  0.3459
   57CHL1  H21A 6677   1.495   3.164   9.527 -0.4119 -1.7452  0.1471
   57CHL1  H21B 6678   1.675   3.184   9.526 -1.8069 -0.9738  2.3060
   57CHL1  H21C 6679   1.598   3.110   9.382 -1.3844 -1.2751  0.6153
   57CHL1   C22 6680   1.643   3.366   9.267 -0.3709  0.1638  0.2372
   57CHL1  H22A 6681   1.598   3.301   9.190  0.1974 -0.7412  0.6533
   57CHL1  H22B 6682   1.626   3.470   9.231 -0.6377 -0.3336 -1.0617
   57CHL1   C23 6683   1.798   3.351   9.290  0.0859  0.0159 -0.0129
   57CHL1  H23A 6684   1.839   3.420   9.367  2.1750 -1.7882  0.5455
   57CHL1  H23B 6685   1.814   3.244   9.312  0.2235 -0.1981 -1.1377
   57CHL1   C24 6686   1.887   3.371   9.167 -0.1409 -0.6463 -0.4399
   57CHL1  H24A 6687   1.857   3.294   9.093  0.9405  0.0163 -1.5825
   57CHL1  H24B 6688   1.877   3.469   9.115  0.7633 -0.8979 -1.0967
   57CHL1   C25 6689   2.042   3.330   9.195  0.4646 -0.1175 -0.1115
   57CHL1   H25 6690   2.058   3.225   9.229  0.7726 -0.6675 -1.8784
   57CHL1   C26 6691   2.121   3.338   9.065  0.0727 -0.2527 -0.2295
   57CHL1  H26A 6692   2.123   3.445   9.035  0.2835  0.3375  1.8204
   57CHL1  H26B 6693   2.230   3.318   9.074 -0.0064  0.1943  1.9961
   57CHL1  H26C 6694   2.080   3.275   8.983 -0.8817 -1.9306  1.4914
   57CHL1   C27 6695   2.103   3.417   9.302  0.2712 -0.1473  0.1048
   57CHL1  H27A 6696   2.080   3.389   9.407 -0.8144 -0.6416 -0.2585
   57CHL1  H27B 6697   2.214   3.416   9.296  0.2026  0.0399 -1.4091
   57CHL1  H27C 6698   2.072   3.523   9.291  1.0628  0.1650  0.8396
   58CHL1    C3 6699   2.899   2.236  10.196 -0.2957  0.5120 -0.3437
   58CHL1    H3 6700   2.932   2.131  10.183 -0.6305 -0.0307  2.8064
   58CHL1    O3 6701   2.909   2.262  10.339  0.0831  0.2237  0.1581
   58CHL1   H3' 6702   2.898   2.357  10.347  0.0308  0.2570 -0.2639
   58CHL1    C4 6703   3.012   2.319  10.118  0.3405  0.3475 -0.7363
   58CHL1   H4A 6704   2.997   2.426  10.142  0.5103  0.5533 -1.5083
   58CHL1   H4B 6705   3.115   2.298  10.152  0.8542  0.2664 -2.2923
   58CHL1    C5 6706   2.998   2.292   9.969  0.8449 -0.6084  0.5806
   58CHL1    C6 6707   3.099   2.257   9.894  0.5522  0.8854  0.2828
   58CHL1    H6 6708   3.201   2.235   9.928  0.4068 -0.9081 -0.4065
   58CHL1    C7 6709   3.090   2.242   9.744  0.4047  0.1735 -0.4563
   58CHL1   H7A 6710   3.178   2.293   9.698  0.1783  1.3562  0.4104
   58CHL1   H7B 6711   3.101   2.134   9.719  2.3966  0.1670  0.3211
   58CHL1    C8 6712   2.956   2.293   9.680  0.3541 -0.5076  0.7114
   58CHL1    H8 6713   2.967   2.404   9.681 -1.9726 -0.2458  0.1168
   58CHL1   C14 6714   2.943   2.236   9.539  0.4732  0.2600  0.7429
   58CHL1   H14 6715   2.931   2.126   9.547  0.8816  0.1021 -0.6595
   58CHL1   C15 6716   3.060   2.249   9.444  0.2141 -0.0840 -0.4585
   58CHL1  H15A 6717   3.088   2.356   9.443  2.7747 -0.7282 -0.7482
   58CHL1  H15B 6718   3.155   2.194   9.465 -0.4462 -1.2357 -0.4580
   58CHL1   C16 6719   3.008   2.219   9.309  0.2111 -0.2969 -0.2866
   58CHL1  H16A 6720   3.039   2.300   9.240  2.5513 -1.9998 -1.2901
   58CHL1  H16B 6721   3.056   2.124   9.276 -0.2680 -0.7428  0.2860
   58CHL1   C17 6722   2.846   2.198   9.323  0.3319  0.3729  0.2611
   58CHL1   H17 6723   2.844   2.089   9.346  2.3175 -0.0963 -1.5520
   58CHL1   C13 6724   2.819   2.272   9.455 -0.4728  0.6221  0.3178
   58CHL1   C18 6725   2.824   2.426   9.418 -0.5686  0.1181  0.2339
   58CHL1  H18A 6726   2.729   2.457   9.369 -0.2486 -0.0394 -0.4855
   58CHL1  H18B 6727   2.842   2.484   9.511  0.8041  0.9433 -0.5317
   58CHL1  H18C 6728   2.906   2.453   9.348 -1.1430  0.2382 -0.3960
   58CHL1   C12 6729   2.701   2.225   9.544  0.4545 -0.2509 -0.1451
   58CHL1  H12A 6730   2.598   2.231   9.504  0.0488 -1.1371  0.7303
   58CHL1  H12B 6731   2.715   2.115   9.557  0.4987 -0.2680 -0.3346
   58CHL1   C11 6732   2.706   2.284   9.684  0.2068 -0.2963 -1.1987
   58CHL1  H11A 6733   2.706   2.394   9.671 -0.4676 -0.1268  0.1353
   58CHL1  H11B 6734   2.615   2.243   9.733  0.7111 -0.7250 -0.6050
   58CHL1    C9 6735   2.837   2.253   9.765 -0.5677 -0.0185  0.3512
   58CHL1    H9 6736   2.845   2.142   9.772 -1.7982 -0.3066 -2.1281
   58CHL1   C10 6737   2.853   2.307   9.910  0.1466  0.5735  0.0147
   58CHL1   C19 6738   2.811   2.459   9.909 -0.3751 -0.0382 -0.6818
   58CHL1  H19A 6739   2.701   2.468   9.896 -0.4820 -0.1374  0.1113
   58CHL1  H19B 6740   2.836   2.503  10.008 -1.0218  0.6077 -0.7948
   58CHL1  H19C 6741   2.878   2.506   9.834  0.5494 -0.1444  0.0682
   58CHL1    C1 6742   2.746   2.239   9.994  0.0175  0.1390  0.6375
   58CHL1   H1A 6743   2.644   2.263   9.959  0.2964  0.5920  0.1300
   58CHL1   H1B 6744   2.753   2.128   9.989 -1.8994  0.0138  0.4413
   58CHL1    C2 6745   2.758   2.261  10.146 -0.2973  0.1044  0.4713
   58CHL1   H2A 6746   2.674   2.204  10.190 -2.3955  2.6497 -0.1159
   58CHL1   H2B 6747   2.725   2.361  10.179 -1.8073  0.2001 -1.2479
   58CHL1   C20 6748   2.765   2.217   9.197  0.4704 -0.4048 -0.6150
   58CHL1   H20 6749   2.786   2.315   9.149 -1.4807  0.3685  0.0992
   58CHL1   C21 6750   2.605   2.197   9.224  0.3583 -0.1507 -0.4594
   58CHL1  H21A 6751   2.551   2.187   9.127  0.7723  2.1672 -0.9815
   58CHL1  H21B 6752   2.553   2.267   9.293  1.7496  0.2960  0.1530
   58CHL1  H21C 6753   2.589   2.099   9.272 -2.5584 -0.4933 -2.0038
   58CHL1   C22 6754   2.814   2.112   9.096 -0.2771 -0.5020 -0.0316
   58CHL1  H22A 6755   2.920   2.081   9.103 -0.1707 -0.3363 -0.8443
   58CHL1  H22B 6756   2.752   2.023   9.118 -0.4949 -0.3697 -0.1013
   58CHL1   C23 6757   2.774   2.161   8.950  0.0081  0.3037 -0.3734
   58CHL1  H23A 6758   2.664   2.175   8.934 -0.2415 -2.8893 -1.9220
   58CHL1  H23B 6759   2.820   2.261   8.937  0.4214 -0.1464 -2.5010
   58CHL1   C24 6760   2.828   2.066   8.844  0.3373 -0.6267  0.2470
   58CHL1  H24A 6761   2.938   2.056   8.853  0.2050 -2.0614  0.3463
   58CHL1  H24B 6762   2.784   1.964   8.855  1.9892 -1.1500  2.2205
   58CHL1   C25 6763   2.779   2.099   8.698 -0.5632  0.3197  0.3764
   58CHL1   H25 6764   2.810   2.205   8.693  2.0327 -0.3110  1.9995
   58CHL1   C26 6765   2.853   2.021   8.588  0.3482  0.2956  0.0610
   58CHL1  H26A 6766   2.825   1.913   8.579  1.6767  0.0311 -1.0879
   58CHL1  H26B 6767   2.837   2.072   8.491  1.1385  1.2873  0.4454
   58CHL1  H26C 6768   2.959   2.031   8.619 -0.1493  0.3251  1.7693
   58CHL1   C27 6769   2.630   2.086   8.679  0.5036 -0.3429 -0.4118
   58CHL1  H27A 6770   2.613   2.093   8.570  1.1159  0.8389 -0.4382
   58CHL1  H27B 6771   2.584   1.989   8.706 -1.0012  0.5744  0.3763
   58CHL1  H27C 6772   2.563   2.161   8.726  1.0066  0.6312 -1.2265
   59CHL1    C3 6773   2.693   0.932  10.357 -0.3297 -0.2135  0.0382
   59CHL1    H3 6774   2.789   0.974  10.393  0.3421 -2.4051  0.8918
   59CHL1    O3 6775   2.640   0.859  10.459  0.1059  0.1359 -0.0811
   59CHL1   H3' 6776   2.673   0.771  10.441  0.1231 -0.2139  1.6198
   59CHL1    C4 6777   2.601   1.047  10.311  0.4085  0.1063 -0.0884
   59CHL1   H4A 6778   2.505   0.998  10.284  1.2667 -0.4040 -2.3594
   59CHL1   H4B 6779   2.577   1.121  10.390 -0.1844  0.7893 -0.8987
   59CHL1    C5 6780   2.651   1.114  10.185 -0.1286  0.7420 -0.4414
   59CHL1    C6 6781   2.674   1.246  10.175  0.2834  0.4705  0.4639
   59CHL1    H6 6782   2.640   1.297  10.266  0.4223 -0.7810  1.2195
   59CHL1    C7 6783   2.723   1.318  10.051  0.3552 -0.6899 -0.5237
   59CHL1   H7A 6784   2.657   1.406  10.035 -0.6388 -1.3891 -0.2841
   59CHL1   H7B 6785   2.827   1.356  10.062  0.1215  0.0848 -0.9673
   59CHL1    C8 6786   2.707   1.231   9.923 -0.2940  0.0371 -0.1471
   59CHL1    H8 6787   2.598   1.230   9.903 -0.0625 -0.7658 -1.3997
   59CHL1   C14 6788   2.785   1.292   9.804  0.1232 -1.6461  0.0325
   59CHL1   H14 6789   2.890   1.294   9.840 -0.0434 -0.0163  0.4706
   59CHL1   C15 6790   2.743   1.431   9.750 -0.0758  0.1383  0.1244
   59CHL1  H15A 6791   2.632   1.435   9.743 -0.1492 -0.6451  0.8032
   59CHL1  H15B 6792   2.781   1.513   9.815 -0.0510 -0.3381  0.7128
   59CHL1   C16 6793   2.817   1.445   9.614 -0.3297 -0.4625 -0.1951
   59CHL1  H16A 6794   2.746   1.491   9.541  2.9604  1.0180 -2.5791
   59CHL1  H16B 6795   2.893   1.525   9.624 -0.9949 -0.1041  2.2377
   59CHL1   C17 6796   2.868   1.302   9.580 -0.3498 -0.3811 -0.3500
   59CHL1   H17 6797   2.970   1.294   9.624 -1.0925 -0.2642  1.4479
   59CHL1   C13 6798   2.792   1.208   9.670  0.1528  0.3751  0.6606
   59CHL1   C18 6799   2.648   1.182   9.609  0.0264  0.5598  0.3533
   59CHL1  H18A 6800   2.611   1.270   9.553  2.6641  1.3690 -0.1433
   59CHL1  H18B 6801   2.649   1.094   9.541  2.1595  0.6894  0.2081
   59CHL1  H18C 6802   2.577   1.165   9.694  0.5532 -1.3947  0.4313
   59CHL1   C12 6803   2.863   1.079   9.718 -0.5764 -0.3847 -0.1179
   59CHL1  H12A 6804   2.878   1.003   9.638  0.0895 -0.2455 -0.1291
   59CHL1  H12B 6805   2.961   1.098   9.769 -0.5256 -0.4726 -0.1841
   59CHL1   C11 6806   2.774   1.016   9.821 -0.8409  0.3240 -0.0187
   59CHL1  H11A 6807   2.676   0.997   9.772 -0.7168  0.9597 -0.5092
   59CHL1  H11B 6808   2.815   0.916   9.850 -0.8583 -0.3540 -2.2797
   59CHL1    C9 6809   2.755   1.091   9.952 -0.3707 -0.2490 -0.1160
   59CHL1    H9 6810   2.862   1.097   9.982  0.4597  2.0207 -3.3137
   59CHL1   C10 6811   2.686   1.015  10.069 -0.2246  0.2942  0.3663
   59CHL1   C19 6812   2.561   0.948  10.012  0.1319  0.3828 -0.0098
   59CHL1  H19A 6813   2.492   1.021   9.966  1.2697  0.7632 -1.1354
   59CHL1  H19B 6814   2.587   0.873   9.934  3.2116 -0.2415  1.5388
   59CHL1  H19C 6815   2.496   0.885  10.076  1.6026  0.4736  1.6106
   59CHL1    C1 6816   2.781   0.908  10.131  0.0579  0.5112 -0.2386
   59CHL1   H1A 6817   2.809   0.831  10.056 -0.1397 -0.2392  0.4518
   59CHL1   H1B 6818   2.879   0.951  10.161 -0.6003  1.8563 -0.0156
   59CHL1    C2 6819   2.717   0.827  10.249 -0.0736 -0.5336 -0.2074
   59CHL1   H2A 6820   2.779   0.738  10.273  1.0449  0.0562 -0.8947
   59CHL1   H2B 6821   2.618   0.783  10.225  0.5431 -2.5260  0.7544
   59CHL1   C20 6822   2.867   1.270   9.432  0.3663  0.1744 -0.2400
   59CHL1   H20 6823   2.763   1.262   9.394  0.5331  1.8997 -1.1359
   59CHL1   C21 6824   2.941   1.133   9.394 -0.0342  0.3591 -0.5651
   59CHL1  H21A 6825   2.876   1.050   9.428 -0.1389  0.7552  0.2017
   59CHL1  H21B 6826   3.040   1.125   9.443 -0.6391  0.2383  0.6442
   59CHL1  H21C 6827   2.949   1.116   9.284  1.1972 -0.9285 -0.2923
   59CHL1   C22 6828   2.915   1.389   9.342  0.5954 -0.0601 -0.6502
   59CHL1  H22A 6829   2.865   1.482   9.375  2.2418  0.8615 -0.7154
   59CHL1  H22B 6830   3.024   1.401   9.356  0.7393 -1.1371 -0.7523
   59CHL1   C23 6831   2.878   1.367   9.197 -0.0494 -0.1363 -0.6403
   59CHL1  H23A 6832   2.937   1.280   9.160 -2.8615 -2.2495 -0.3374
   59CHL1  H23B 6833   2.767   1.353   9.192 -0.0687  0.3862 -1.9174
   59CHL1   C24 6834   2.909   1.479   9.092  0.4035  0.6946  0.0086
   59CHL1  H24A 6835   2.867   1.576   9.124  1.6023  1.3599 -0.3711
   59CHL1  H24B 6836   3.019   1.488   9.080  0.6381  0.3203  1.8660
   59CHL1   C25 6837   2.836   1.452   8.967  0.1592 -0.2398 -0.7443
   59CHL1   H25 6838   2.728   1.438   8.988  0.6186 -1.6896  0.7370
   59CHL1   C26 6839   2.857   1.568   8.873  1.2801  0.2027 -0.0309
   59CHL1  H26A 6840   2.820   1.664   8.916  0.5962 -0.2212  0.3450
   59CHL1  H26B 6841   2.963   1.575   8.841  1.5237 -0.1418  0.6910
   59CHL1  H26C 6842   2.807   1.555   8.775 -1.0929  0.3047  1.1336
   59CHL1   C27 6843   2.885   1.331   8.899  0.7001  0.1977  0.3537
   59CHL1  H27A 6844   2.822   1.308   8.810  0.9689  0.4378  0.1040
   59CHL1  H27B 6845   2.985   1.344   8.852 -0.0013  0.4187 -1.1098
   59CHL1  H27C 6846   2.883   1.242   8.966  1.6561 -1.1140 -1.3222
   60CHL1    C3 6847   2.679   6.549  10.251 -0.0045 -0.0714  0.4714
   60CHL1    H3 6848   2.569   6.554  10.236  0.3392  2.7258 -1.2854
   60CHL1    O3 6849   2.699   6.496  10.382  0.3528 -0.1753 -0.1479
   60CHL1   H3' 6850   2.685   6.573  10.438  0.8818  1.2708 -1.9611
   60CHL1    C4 6851   2.741   6.446  10.144  0.8965 -0.2993  0.0559
   60CHL1   H4A 6852   2.847   6.429  10.173  0.4031 -1.4648  1.2120
   60CHL1   H4B 6853   2.693   6.347  10.157 -1.0299  0.8895  2.3280
   60CHL1    C5 6854   2.744   6.504  10.005 -0.5851 -0.2533  0.7110
   60CHL1    C6 6855   2.702   6.428   9.900  0.3155 -0.1863 -0.0138
   60CHL1    H6 6856   2.680   6.323   9.925  1.9733 -0.7583 -0.8485
   60CHL1    C7 6857   2.692   6.481   9.762  0.0612  0.1278  0.4677
   60CHL1   H7A 6858   2.717   6.398   9.692 -1.3781 -0.3645  0.5176
   60CHL1   H7B 6859   2.586   6.505   9.739 -0.4929 -2.0262  0.6732
   60CHL1    C8 6860   2.785   6.608   9.741 -0.3953  0.0505 -0.1005
   60CHL1    H8 6861   2.892   6.579   9.733 -0.3250  0.1657  0.3821
   60CHL1   C14 6862   2.750   6.664   9.602  0.5425  0.0785 -0.2348
   60CHL1   H14 6863   2.644   6.696   9.605  0.6461  0.4757 -0.6937
   60CHL1   C15 6864   2.754   6.582   9.475 -0.0388 -0.6699  0.0857
   60CHL1  H15A 6865   2.850   6.527   9.481 -1.4509 -3.1930  0.1198
   60CHL1  H15B 6866   2.678   6.501   9.472 -1.3357  0.4928  1.0053
   60CHL1   C16 6867   2.762   6.678   9.358 -0.2019 -0.3346  0.4587
   60CHL1  H16A 6868   2.842   6.652   9.287  0.7847 -1.3836  1.9291
   60CHL1  H16B 6869   2.666   6.680   9.302  0.7099  0.5061 -1.0896
   60CHL1   C17 6870   2.772   6.818   9.425  0.4146  0.0181  0.0090
   60CHL1   H17 6871   2.665   6.844   9.440  0.8956  2.7923 -1.1008
   60CHL1   C13 6872   2.825   6.791   9.569  0.4316  0.3283  1.0377
   60CHL1   C18 6873   2.974   6.769   9.561  0.3721 -0.9740  0.0044
   60CHL1  H18A 6874   3.008   6.874   9.545 -0.6305 -0.7340 -0.5930
   60CHL1  H18B 6875   3.021   6.730   9.654 -1.1320 -4.7338 -0.7049
   60CHL1  H18C 6876   3.010   6.718   9.468  0.2020  0.4184 -0.8428
   60CHL1   C12 6877   2.789   6.895   9.676  0.3140  0.1090 -0.2911
   60CHL1  H12A 6878   2.839   6.993   9.667 -0.3003  0.6392  1.7541
   60CHL1  H12B 6879   2.680   6.912   9.663  0.1625 -0.1418  0.6183
   60CHL1   C11 6880   2.821   6.843   9.819  0.3108  0.1181  0.7138
   60CHL1  H11A 6881   2.931   6.828   9.824  0.0933 -1.5226  0.9028
   60CHL1  H11B 6882   2.785   6.920   9.891 -2.1703 -1.2777  1.0412
   60CHL1    C9 6883   2.759   6.707   9.851  0.3826 -0.1598  0.1394
   60CHL1    H9 6884   2.649   6.725   9.849  0.2844 -0.6086  1.3697
   60CHL1   C10 6885   2.794   6.645   9.990 -0.3703 -1.4161  0.9541
   60CHL1   C19 6886   2.952   6.649  10.007 -0.5607 -0.3878 -0.4330
   60CHL1  H19A 6887   3.008   6.621   9.914 -2.0562 -0.4661 -1.3272
   60CHL1  H19B 6888   2.975   6.757  10.017  0.7833 -0.6656 -0.4118
   60CHL1  H19C 6889   2.986   6.601  10.101  0.2821  2.0823  0.5528
   60CHL1    C1 6890   2.733   6.735  10.103 -0.4816  0.4270 -0.3367
   60CHL1   H1A 6891   2.764   6.841  10.098 -1.0308  0.7988  2.9770
   60CHL1   H1B 6892   2.625   6.744  10.079 -0.6135 -0.6169 -0.1367
   60CHL1    C2 6893   2.746   6.683  10.244  0.3651 -0.2896  0.6072
   60CHL1   H2A 6894   2.699   6.762  10.306 -1.1859  0.8099 -1.9333
   60CHL1   H2B 6895   2.851   6.686  10.281 -0.0930 -1.4390  2.0808
   60CHL1   C20 6896   2.832   6.935   9.345  0.5493  0.2150 -0.1566
   60CHL1   H20 6897   2.941   6.948   9.363  0.3887 -0.9873  1.8049
   60CHL1   C21 6898   2.762   7.062   9.387 -0.1934  0.4837 -0.6782
   60CHL1  H21A 6899   2.732   7.069   9.494 -0.6171 -1.1436 -0.6712
   60CHL1  H21B 6900   2.668   7.064   9.328 -0.5557 -1.6692 -0.2221
   60CHL1  H21C 6901   2.832   7.146   9.370  0.2996  0.0971 -0.5576
   60CHL1   C22 6902   2.824   6.920   9.194 -0.0681  0.3898 -0.5710
   60CHL1  H22A 6903   2.868   6.830   9.147  0.9737 -1.2482  3.3202
   60CHL1  H22B 6904   2.718   6.907   9.163  0.2064 -1.2013 -0.8866
   60CHL1   C23 6905   2.885   7.036   9.114 -0.1005 -0.1687  0.2693
   60CHL1  H23A 6906   2.839   7.134   9.140  1.0054  0.0251  1.5752
   60CHL1  H23B 6907   2.995   7.033   9.132 -0.2386 -0.0098  1.1761
   60CHL1   C24 6908   2.870   7.010   8.965  0.1980  0.7139  0.0590
   60CHL1  H24A 6909   2.921   6.912   8.946 -1.0229  0.4546 -1.9587
   60CHL1  H24B 6910   2.768   6.982   8.932  1.2375  0.8245 -3.4021
   60CHL1   C25 6911   2.925   7.110   8.863 -0.1338 -0.1853  0.3809
   60CHL1   H25 6912   3.027   7.132   8.902  0.4157  1.1334 -1.6962
   60CHL1   C26 6913   2.947   7.051   8.722 -0.0815 -0.7453 -0.8855
   60CHL1  H26A 6914   2.954   7.129   8.643  0.9855  1.2680  1.1310
   60CHL1  H26B 6915   3.040   6.991   8.716  1.2464  1.1204  0.4399
   60CHL1  H26C 6916   2.854   6.993   8.704 -1.4450  0.6778  1.3101
   60CHL1   C27 6917   2.849   7.241   8.860  0.1267 -0.1931  0.3559
   60CHL1  H27A 6918   2.844   7.298   8.955 -0.6519 -1.6874  1.2305
   60CHL1  H27B 6919   2.891   7.306   8.781 -1.5682 -1.3032 -1.5189
   60CHL1  H27C 6920   2.746   7.226   8.820 -0.5369  0.9408  1.5775
   61CHL1    C3 6921   6.676   6.582  10.372 -0.2010  0.0739 -0.3436
   61CHL1    H3 6922   6.566   6.573  10.360 -0.0835 -0.1620 -1.2915
   61CHL1    O3 6923   6.699   6.582  10.505 -0.2451 -0.5109 -0.0935
   61CHL1   H3' 6924   6.792   6.606  10.513 -0.2111 -1.0659  1.3604
   61CHL1    C4 6925   6.747   6.457  10.308 -0.0813 -0.6548 -0.7256
   61CHL1   H4A 6926   6.857   6.454  10.326 -0.2721 -0.0510  0.6286
   61CHL1   H4B 6927   6.717   6.359  10.350  0.3809 -0.4410  0.1182
   61CHL1    C5 6928   6.738   6.459  10.159 -0.1333  1.1576  0.1086
   61CHL1    C6 6929   6.680   6.350  10.101 -0.1492  0.3671  1.4079
   61CHL1    H6 6930   6.657   6.255  10.152 -0.8000  0.1365  0.6923
   61CHL1    C7 6931   6.669   6.337   9.950 -0.1413 -0.7194 -0.7342
   61CHL1   H7A 6932   6.723   6.244   9.923  1.8296  0.6412 -1.6918
   61CHL1   H7B 6933   6.560   6.334   9.928 -0.0731 -0.6934 -1.0928
   61CHL1    C8 6934   6.750   6.453   9.874  0.8271  0.4420 -0.1963
   61CHL1    H8 6935   6.854   6.416   9.888 -0.3095 -3.8933 -2.2860
   61CHL1   C14 6936   6.710   6.459   9.726 -0.8441 -0.4350 -0.3508
   61CHL1   H14 6937   6.603   6.491   9.733  0.0988  2.4803  1.8613
   61CHL1   C15 6938   6.692   6.327   9.654  0.2030  0.9899  0.6833
   61CHL1  H15A 6939   6.774   6.259   9.685 -1.7797 -1.2767  1.1436
   61CHL1  H15B 6940   6.595   6.280   9.681 -0.2300 -0.1707 -2.6453
   61CHL1   C16 6941   6.704   6.369   9.506  0.0803 -0.0281  0.4245
   61CHL1  H16A 6942   6.786   6.312   9.459 -1.8267 -3.1386  0.7328
   61CHL1  H16B 6943   6.609   6.349   9.451 -0.7371  0.4876  1.6205
   61CHL1   C17 6944   6.734   6.525   9.506 -0.3159 -0.3004  0.0543
   61CHL1   H17 6945   6.636   6.576   9.513 -1.0854 -2.1682  4.1272
   61CHL1   C13 6946   6.792   6.563   9.645 -0.7383 -0.0484  0.9086
   61CHL1   C18 6947   6.940   6.530   9.635 -0.5926 -0.3578 -0.3661
   61CHL1  H18A 6948   6.972   6.499   9.736 -3.4660 -1.0309  0.3768
   61CHL1  H18B 6949   6.967   6.441   9.574  1.0686 -0.6185  0.7464
   61CHL1  H18C 6950   7.009   6.610   9.599 -0.7509 -0.4505 -0.8895
   61CHL1   C12 6951   6.765   6.705   9.701  0.1412  0.2422  0.1993
   61CHL1  H12A 6952   6.828   6.778   9.647  1.4310  0.3353  1.7722
   61CHL1  H12B 6953   6.660   6.737   9.688  0.3746  2.6552  3.6114
   61CHL1   C11 6954   6.798   6.703   9.852 -0.4351 -0.3533 -0.3511
   61CHL1  H11A 6955   6.909   6.694   9.854 -0.5670 -1.9967  0.8104
   61CHL1  H11B 6956   6.765   6.804   9.883 -2.2790 -0.5605 -1.5865
   61CHL1    C9 6957   6.734   6.591   9.939  0.2127 -0.2504  0.4041
   61CHL1    H9 6958   6.625   6.606   9.925  0.2417 -0.4402 -0.0389
   61CHL1   C10 6959   6.774   6.593  10.092  0.5111 -0.4412 -0.1392
   61CHL1   C19 6960   6.923   6.608  10.111 -1.0074 -0.2378 -0.1443
   61CHL1  H19A 6961   6.952   6.711  10.082 -2.7868  1.6192  4.0906
   61CHL1  H19B 6962   6.956   6.602  10.217  1.2957  0.8317 -0.7856
   61CHL1  H19C 6963   6.981   6.530  10.058 -0.3785  0.4379 -0.4459
   61CHL1    C1 6964   6.705   6.713  10.159  0.0655 -0.2627 -0.3473
   61CHL1   H1A 6965   6.751   6.808  10.122  2.1055 -1.9956 -2.4318
   61CHL1   H1B 6966   6.595   6.718  10.148  0.0446  1.7491  0.4828
   61CHL1    C2 6967   6.720   6.712  10.311 -0.1465 -0.6208  0.4865
   61CHL1   H2A 6968   6.665   6.800  10.350  1.6863  1.1534 -0.8042
   61CHL1   H2B 6969   6.827   6.725  10.340  1.0888 -2.7580 -2.7386
   61CHL1   C20 6970   6.799   6.576   9.374 -0.7000 -0.5490 -0.0581
   61CHL1   H20 6971   6.905   6.543   9.377 -0.5368  0.0672  2.0894
   61CHL1   C21 6972   6.809   6.732   9.376 -0.4025 -0.3663 -0.7597
   61CHL1  H21A 6973   6.804   6.783   9.277 -0.2074 -0.5840 -0.8837
   61CHL1  H21B 6974   6.903   6.754   9.431 -1.8971  0.3218  1.5432
   61CHL1  H21C 6975   6.735   6.770   9.449 -0.3454 -0.9305 -0.4036
   61CHL1   C22 6976   6.735   6.518   9.250  0.6325 -0.0741 -0.2979
   61CHL1  H22A 6977   6.734   6.407   9.257 -3.7975 -0.1058  0.3178
   61CHL1  H22B 6978   6.627   6.541   9.263  0.3657 -1.0440 -0.7197
   61CHL1   C23 6979   6.768   6.576   9.116 -0.2185 -0.7070 -0.0244
   61CHL1  H23A 6980   6.723   6.677   9.102 -0.2134 -0.3469  2.3939
   61CHL1  H23B 6981   6.878   6.585   9.111 -0.4696  3.2311 -0.4422
   61CHL1   C24 6982   6.713   6.488   9.004  0.0151  0.8600 -0.2708
   61CHL1  H24A 6983   6.754   6.387   9.026 -1.2704  0.7667  1.8171
   61CHL1  H24B 6984   6.603   6.489   9.016  0.0038 -1.6655  0.0787
   61CHL1   C25 6985   6.751   6.535   8.867 -0.0939 -0.5651  0.3126
   61CHL1   H25 6986   6.861   6.544   8.862  0.0515 -2.5863 -0.6390
   61CHL1   C26 6987   6.718   6.429   8.756  0.5573 -0.1507 -0.2478
   61CHL1  H26A 6988   6.752   6.464   8.656  2.6708 -2.2221 -0.3008
   61CHL1  H26B 6989   6.765   6.332   8.782 -0.1075 -0.7368 -1.2399
   61CHL1  H26C 6990   6.607   6.429   8.759  0.5713 -1.0705  0.5924
   61CHL1   C27 6991   6.677   6.662   8.818 -0.2518 -0.3402  0.0819
   61CHL1  H27A 6992   6.720   6.706   8.726 -0.4069  1.2083  0.7202
   61CHL1  H27B 6993   6.579   6.624   8.781 -0.7419 -0.7492  1.7368
   61CHL1  H27C 6994   6.686   6.737   8.900 -1.5359 -1.0415  0.8988
   62CHL1    C3 6995   0.711   3.441   9.984  0.2100  0.0927  0.6300
   62CHL1    H3 6996   0.760   3.343  10.004  2.3543  1.1049  0.5561
   62CHL1    O3 6997   0.676   3.528  10.095  0.3342 -0.0395 -0.0815
   62CHL1   H3' 6998   0.637   3.470  10.162  4.5156  0.6752  3.1888
   62CHL1    C4 6999   0.803   3.519   9.886  0.1985  0.0595 -0.1650
   62CHL1   H4A 7000   0.750   3.616   9.870 -3.3639 -1.8029 -0.2450
   62CHL1   H4B 7001   0.906   3.532   9.924  1.1086 -4.0473 -1.0447
   62CHL1    C5 7002   0.812   3.457   9.750 -0.3188  0.5756 -0.8141
   62CHL1    C6 7003   0.937   3.432   9.700  0.3484 -0.0235  0.6456
   62CHL1    H6 7004   1.026   3.453   9.760  0.5021 -0.0717  0.4370
   62CHL1    C7 7005   0.964   3.372   9.563  0.4508 -0.2230 -0.4605
   62CHL1   H7A 7006   1.049   3.417   9.508 -0.8429  1.9189 -0.7521
   62CHL1   H7B 7007   0.995   3.265   9.571 -1.1715 -0.8252 -1.9256
   62CHL1    C8 7008   0.838   3.382   9.474 -0.2438 -1.2336 -0.0992
   62CHL1    H8 7009   0.820   3.490   9.459  2.7637 -0.8002 -1.0289
   62CHL1   C14 7010   0.863   3.307   9.346 -0.4372 -0.3397 -0.0378
   62CHL1   H14 7011   0.874   3.199   9.367 -1.8945 -0.5568 -0.3331
   62CHL1   C15 7012   0.992   3.338   9.261 -0.3117 -0.4905 -0.5158
   62CHL1  H15A 7013   1.003   3.448   9.262 -1.5465 -0.3382 -1.7715
   62CHL1  H15B 7014   1.088   3.305   9.306  0.6763  3.3137  0.3212
   62CHL1   C16 7015   0.958   3.281   9.126 -0.1886  0.2342 -0.1460
   62CHL1  H16A 7016   0.961   3.354   9.043 -0.6008  0.0009 -0.3715
   62CHL1  H16B 7017   1.024   3.194   9.106  0.9304  0.5528  2.0575
   62CHL1   C17 7018   0.808   3.237   9.123  0.4110  1.0268 -0.5364
   62CHL1   H17 7019   0.797   3.130   9.151 -2.7226  1.1889 -0.9223
   62CHL1   C13 7020   0.750   3.311   9.248 -0.1018 -0.4783  0.3026
   62CHL1   C18 7021   0.710   3.459   9.212 -0.0394 -0.3845 -0.3509
   62CHL1  H18A 7022   0.631   3.457   9.133 -1.1553  1.2014  0.6938
   62CHL1  H18B 7023   0.689   3.525   9.298  1.8006 -0.6271  0.2998
   62CHL1  H18C 7024   0.787   3.514   9.154 -1.5718  1.6250 -0.5485
   62CHL1   C12 7025   0.624   3.237   9.317 -0.1534 -0.3234 -0.4216
   62CHL1  H12A 7026   0.533   3.246   9.254 -2.0291  2.9712  2.5989
   62CHL1  H12B 7027   0.653   3.130   9.329  2.1571  0.3282  0.0119
   62CHL1   C11 7028   0.589   3.312   9.447  0.0844  0.1285 -0.1767
   62CHL1  H11A 7029   0.536   3.403   9.413  0.0654 -0.3611 -1.4830
   62CHL1  H11B 7030   0.516   3.246   9.500  1.2055 -0.5054  0.6041
   62CHL1    C9 7031   0.711   3.335   9.543  0.8174  0.0920  0.0927
   62CHL1    H9 7032   0.721   3.229   9.576 -2.8578  0.3223  2.3186
   62CHL1   C10 7033   0.681   3.416   9.674 -0.8932  0.0744 -0.1667
   62CHL1   C19 7034   0.599   3.535   9.635 -0.1028  0.7195  0.0951
   62CHL1  H19A 7035   0.643   3.598   9.555 -0.4813  0.6202 -0.1875
   62CHL1  H19B 7036   0.504   3.499   9.590 -0.0419 -0.4273  0.8728
   62CHL1  H19C 7037   0.569   3.600   9.721  2.2733  0.8228  0.9015
   62CHL1    C1 7038   0.596   3.329   9.782  0.8994 -0.9761  0.0521
   62CHL1   H1A 7039   0.498   3.300   9.738  0.4665  0.5538 -0.0125
   62CHL1   H1B 7040   0.663   3.245   9.810  0.3574 -0.9423  1.4863
   62CHL1    C2 7041   0.576   3.405   9.918 -0.6885  0.0013 -0.7623
   62CHL1   H2A 7042   0.525   3.341   9.994 -1.3254  1.8058  0.3540
   62CHL1   H2B 7043   0.505   3.489   9.900  0.9373  1.8111  1.0601
   62CHL1   C20 7044   0.725   3.244   8.988 -0.1778  0.0383 -0.2994
   62CHL1   H20 7045   0.619   3.248   9.019 -0.4677  2.3660 -1.4717
   62CHL1   C21 7046   0.748   3.107   8.928 -0.2070 -0.7713  0.0013
   62CHL1  H21A 7047   0.694   3.089   8.833 -1.4320 -1.7746  0.8531
   62CHL1  H21B 7048   0.707   3.032   8.999 -1.7984 -1.0864 -1.2263
   62CHL1  H21C 7049   0.855   3.091   8.902  0.2576 -0.0862  1.4108
   62CHL1   C22 7050   0.765   3.356   8.889 -0.4648 -0.2710 -0.2320
   62CHL1  H22A 7051   0.791   3.449   8.944  0.2750 -0.1817 -0.7299
   62CHL1  H22B 7052   0.860   3.330   8.839  0.8144 -1.7864  2.8647
   62CHL1   C23 7053   0.658   3.396   8.789  0.7109  0.7236  0.1276
   62CHL1  H23A 7054   0.638   3.317   8.713 -4.1493  1.7042  0.2330
   62CHL1  H23B 7055   0.559   3.406   8.839  1.2809  2.3473  0.9715
   62CHL1   C24 7056   0.688   3.523   8.717 -0.0590 -0.8413 -0.1815
   62CHL1  H24A 7057   0.687   3.601   8.795  0.9697 -0.4029 -0.6026
   62CHL1  H24B 7058   0.785   3.530   8.663 -0.6815  0.2548 -1.1752
   62CHL1   C25 7059   0.575   3.575   8.634  0.4727 -0.3864 -0.3627
   62CHL1   H25 7060   0.482   3.568   8.695 -0.1439 -0.1066 -1.2527
   62CHL1   C26 7061   0.604   3.723   8.601  0.4429  0.1419  0.5510
   62CHL1  H26A 7062   0.523   3.776   8.546  2.5564  1.9782 -0.8675
   62CHL1  H26B 7063   0.637   3.783   8.688 -0.3179 -0.7265  1.4484
   62CHL1  H26C 7064   0.684   3.718   8.523 -0.6278  1.1230 -0.6421
   62CHL1   C27 7065   0.555   3.492   8.501  0.6496 -0.6349 -0.1297
   62CHL1  H27A 7066   0.648   3.483   8.442  0.3840 -0.2316 -0.6117
   62CHL1  H27B 7067   0.525   3.386   8.519  0.5036 -0.8069 -1.3452
   62CHL1  H27C 7068   0.468   3.529   8.443  1.8317  1.1913 -0.7583
   63CHL1    C3 7069   2.394   4.778  10.335  0.2403 -0.0694 -0.0190
   63CHL1    H3 7070   2.327   4.690  10.341 -0.5159  0.5925  1.6908
   63CHL1    O3 7071   2.457   4.803  10.462 -0.6207 -0.1069 -0.5944
   63CHL1   H3' 7072   2.542   4.847  10.450  0.8124 -2.6778 -0.0517
   63CHL1    C4 7073   2.507   4.741  10.239 -0.0746  0.2742  0.5086
   63CHL1   H4A 7074   2.600   4.802  10.240  0.2828 -0.0687 -3.3871
   63CHL1   H4B 7075   2.532   4.641  10.281  0.6083  0.2433  0.0343
   63CHL1    C5 7076   2.477   4.728  10.091  0.2803  0.9786  0.3172
   63CHL1    C6 7077   2.504   4.606  10.023  0.7257 -0.9752  0.1360
   63CHL1    H6 7078   2.539   4.517  10.077  2.1443 -1.1821 -1.0817
   63CHL1    C7 7079   2.472   4.597   9.872  0.3036 -0.0667  0.1870
   63CHL1   H7A 7080   2.562   4.547   9.830 -0.3040 -0.3235 -0.8626
   63CHL1   H7B 7081   2.396   4.518   9.848 -0.5188  0.9788 -0.7123
   63CHL1    C8 7082   2.435   4.741   9.814 -0.2670  0.6629 -0.5548
   63CHL1    H8 7083   2.533   4.793   9.808  1.0145 -1.6725 -0.3978
   63CHL1   C14 7084   2.393   4.719   9.673  0.6642  0.1433  0.1055
   63CHL1   H14 7085   2.303   4.655   9.682  1.5849 -1.1844 -0.0564
   63CHL1   C15 7086   2.488   4.653   9.574 -0.4798  0.6773  0.1890
   63CHL1  H15A 7087   2.584   4.707   9.579 -0.0560  0.0599 -1.0403
   63CHL1  H15B 7088   2.502   4.544   9.591 -1.3694  0.6115  0.5322
   63CHL1   C16 7089   2.423   4.689   9.438 -0.5654 -0.0678  0.8550
   63CHL1  H16A 7090   2.501   4.746   9.382 -0.9438 -0.2281  0.1536
   63CHL1  H16B 7091   2.406   4.600   9.373  0.9805  0.2007  0.0396
   63CHL1   C17 7092   2.301   4.783   9.460  0.2847 -0.4583 -0.4183
   63CHL1   H17 7093   2.217   4.716   9.487  0.2466  0.4776  1.8308
   63CHL1   C13 7094   2.336   4.839   9.597  0.4819 -0.1172  0.3031
   63CHL1   C18 7095   2.436   4.951   9.573 -0.6316 -0.0169  0.3213
   63CHL1  H18A 7096   2.503   4.964   9.660  0.5249 -1.6912 -0.2919
   63CHL1  H18B 7097   2.523   4.932   9.506  0.9608 -1.3366  2.7047
   63CHL1  H18C 7098   2.384   5.045   9.544 -1.1353  0.5233  2.8596
   63CHL1   C12 7099   2.222   4.881   9.688  0.0649  0.0009 -0.3311
   63CHL1  H12A 7100   2.161   4.963   9.645  0.0099  0.1658  0.0579
   63CHL1  H12B 7101   2.158   4.792   9.700  1.8570 -0.9319  2.9337
   63CHL1   C11 7102   2.267   4.935   9.830  0.1978  0.1060  0.2704
   63CHL1  H11A 7103   2.344   5.015   9.822 -0.6168  0.8890  0.1119
   63CHL1  H11B 7104   2.177   4.976   9.881 -0.3440  0.3582 -0.8857
   63CHL1    C9 7105   2.340   4.819   9.907  0.1889  0.0791  0.5986
   63CHL1    H9 7106   2.257   4.749   9.927  1.2057 -2.1136 -2.4602
   63CHL1   C10 7107   2.403   4.851  10.045 -0.6874  0.8677 -0.4445
   63CHL1   C19 7108   2.513   4.962  10.027  0.3933 -0.0219 -0.3329
   63CHL1  H19A 7109   2.578   4.959  10.118 -0.1501 -2.2387  0.0080
   63CHL1  H19B 7110   2.583   4.948   9.942  1.7458 -0.5223  0.8275
   63CHL1  H19C 7111   2.472   5.065  10.029  0.8367  0.1493  2.2050
   63CHL1    C1 7112   2.283   4.888  10.137 -0.8136 -0.0059 -0.0054
   63CHL1   H1A 7113   2.232   4.977  10.095  2.0846  0.9537 -1.6079
   63CHL1   H1B 7114   2.204   4.809  10.139 -1.1939  0.4042  1.5442
   63CHL1    C2 7115   2.319   4.903  10.292 -0.4900  0.1983 -0.3763
   63CHL1   H2A 7116   2.223   4.899  10.348  0.2935 -0.7821  0.9338
   63CHL1   H2B 7117   2.379   4.996  10.309 -2.6324  1.4208  0.6939
   63CHL1   C20 7118   2.258   4.883   9.351  0.0428  0.3924 -0.5875
   63CHL1   H20 7119   2.289   4.988   9.371 -1.3399  1.1394 -2.2659
   63CHL1   C21 7120   2.105   4.904   9.361 -0.1597 -0.3206 -0.2277
   63CHL1  H21A 7121   2.072   4.926   9.466  0.0018  2.0053 -0.6263
   63CHL1  H21B 7122   2.060   4.807   9.332 -2.2510  0.3753  0.5587
   63CHL1  H21C 7123   2.080   4.987   9.291 -0.1637 -1.6402 -1.8218
   63CHL1   C22 7124   2.308   4.848   9.209  0.1370 -0.1693  0.4467
   63CHL1  H22A 7125   2.418   4.839   9.218  0.2156 -2.4135 -2.1967
   63CHL1  H22B 7126   2.259   4.752   9.182  0.0271 -0.2677  0.9993
   63CHL1   C23 7127   2.276   4.946   9.091 -0.0421  0.3025  0.3312
   63CHL1  H23A 7128   2.167   4.935   9.071 -0.3815  1.1663  1.6673
   63CHL1  H23B 7129   2.307   5.045   9.131  1.2165 -0.2060  0.6264
   63CHL1   C24 7130   2.362   4.911   8.968 -0.5399  0.3522  0.5159
   63CHL1  H24A 7131   2.463   4.904   9.013 -0.8363 -0.5316  1.0440
   63CHL1  H24B 7132   2.345   4.805   8.939  0.7390  0.0750  0.7273
   63CHL1   C25 7133   2.367   5.005   8.849 -0.0387 -0.0549  0.5987
   63CHL1   H25 7134   2.405   5.105   8.877  0.2014 -0.1593  0.6471
   63CHL1   C26 7135   2.469   4.961   8.742  0.4269  0.1771  0.6933
   63CHL1  H26A 7136   2.563   4.961   8.800  2.6299 -2.0271 -2.7150
   63CHL1  H26B 7137   2.446   4.855   8.722  1.0946  0.6637 -3.1738
   63CHL1  H26C 7138   2.467   5.025   8.651  0.1085  0.3585  0.8283
   63CHL1   C27 7139   2.229   5.016   8.788 -0.1002  0.1361 -0.0163
   63CHL1  H27A 7140   2.183   4.915   8.781 -1.7233  0.5775  3.1487
   63CHL1  H27B 7141   2.166   5.085   8.849  1.5401  1.3764  0.3118
   63CHL1  H27C 7142   2.230   5.058   8.685  1.0136 -0.0470 -0.0872
   64CHL1    C3 7143   1.715   4.282  10.138  0.5024 -0.8436  0.0284
   64CHL1    H3 7144   1.652   4.373  10.145  0.0196 -1.0848 -1.1967
   64CHL1    O3 7145   1.775   4.257  10.265  0.4055  0.2194 -0.2992
   64CHL1   H3' 7146   1.717   4.190  10.303  0.5913  0.1788 -0.0826
   64CHL1    C4 7147   1.630   4.158  10.097  0.2526  0.2459 -0.5852
   64CHL1   H4A 7148   1.695   4.070  10.112  1.2206  1.1708  0.6673
   64CHL1   H4B 7149   1.548   4.157  10.172 -0.8088  1.5101 -1.6827
   64CHL1    C5 7150   1.580   4.165   9.952 -0.6008  0.0605  0.5182
   64CHL1    C6 7151   1.453   4.172   9.925 -0.4368  1.3191  0.0790
   64CHL1    H6 7152   1.385   4.160  10.010  0.1704  1.0978  0.5377
   64CHL1    C7 7153   1.396   4.172   9.790  0.7856  0.4526  0.3561
   64CHL1   H7A 7154   1.312   4.100   9.777  2.1099 -0.8373 -1.3478
   64CHL1   H7B 7155   1.368   4.276   9.762  0.7670 -0.2157 -2.2665
   64CHL1    C8 7156   1.504   4.142   9.684  0.5957 -0.3649 -0.7444
   64CHL1    H8 7157   1.535   4.036   9.684  0.7522 -0.3360  1.5942
   64CHL1   C14 7158   1.452   4.196   9.548 -0.3457  0.2063 -0.0409
   64CHL1   H14 7159   1.416   4.300   9.563 -1.4149 -0.4314  2.0854
   64CHL1   C15 7160   1.320   4.130   9.497  0.3268 -0.1981 -0.3616
   64CHL1  H15A 7161   1.325   4.021   9.518 -0.8322  0.1775  2.0197
   64CHL1  H15B 7162   1.234   4.182   9.545  1.3508  0.2514  1.0387
   64CHL1   C16 7163   1.325   4.153   9.345  0.1590 -0.4696  0.9953
   64CHL1  H16A 7164   1.312   4.051   9.302  2.3915 -1.6352  2.9835
   64CHL1  H16B 7165   1.243   4.226   9.326  1.2512  0.3799 -0.5702
   64CHL1   C17 7166   1.462   4.218   9.316  0.0957 -0.2093  0.0901
   64CHL1   H17 7167   1.450   4.328   9.324 -0.9734 -0.3075 -0.0872
   64CHL1   C13 7168   1.555   4.174   9.432  0.3697 -0.0462 -0.9276
   64CHL1   C18 7169   1.587   4.026   9.413  0.4926 -0.0981  0.3457
   64CHL1  H18A 7170   1.660   4.003   9.332  0.7779 -0.1253  0.6138
   64CHL1  H18B 7171   1.630   3.989   9.508 -0.1998  1.9699  1.5068
   64CHL1  H18C 7172   1.493   3.970   9.395 -0.3254  1.2722  0.2703
   64CHL1   C12 7173   1.677   4.264   9.459 -0.2743 -0.2095 -0.3917
   64CHL1  H12A 7174   1.758   4.256   9.384  0.9510  2.2212  0.6250
   64CHL1  H12B 7175   1.643   4.369   9.458  0.8455  0.2571  3.2227
   64CHL1   C11 7176   1.741   4.235   9.597  0.8703  0.6634  0.1108
   64CHL1  H11A 7177   1.800   4.142   9.585  1.3154  1.3169 -3.1420
   64CHL1  H11B 7178   1.814   4.315   9.622  1.3371  0.9638 -2.1267
   64CHL1    C9 7179   1.635   4.220   9.720  0.3584 -0.2138 -0.6697
   64CHL1    H9 7180   1.589   4.320   9.733  0.4848 -0.2319 -0.0772
   64CHL1   C10 7181   1.694   4.180   9.850 -0.1241 -0.0187 -0.1091
   64CHL1   C19 7182   1.765   4.043   9.842  0.7727 -0.2574  0.0357
   64CHL1  H19A 7183   1.797   4.010   9.942  0.7045 -0.2477  0.0599
   64CHL1  H19B 7184   1.702   3.960   9.803 -0.8442  0.8546  0.2302
   64CHL1  H19C 7185   1.845   4.036   9.765  0.1896  0.1190 -0.6188
   64CHL1    C1 7186   1.784   4.302   9.899  0.1265  0.1625 -0.0325
   64CHL1   H1A 7187   1.868   4.300   9.826 -0.5845 -0.9036 -0.8463
   64CHL1   H1B 7188   1.717   4.390   9.885 -0.9191 -0.7359 -0.8185
   64CHL1    C2 7189   1.830   4.300  10.038 -0.2037  0.2911 -0.4037
   64CHL1   H2A 7190   1.883   4.395  10.058  2.5460 -1.6432  1.9037
   64CHL1   H2B 7191   1.909   4.222  10.045  0.2462  0.9302  1.9589
   64CHL1   C20 7192   1.504   4.194   9.174  0.6308 -0.1772 -0.1798
   64CHL1   H20 7193   1.497   4.085   9.152 -0.9906  0.0185 -0.6818
   64CHL1   C21 7194   1.648   4.229   9.146  0.4181  0.5655 -0.4029
   64CHL1  H21A 7195   1.672   4.334   9.171 -0.1804  0.2996  1.3518
   64CHL1  H21B 7196   1.668   4.217   9.037 -1.3699 -0.3408 -0.6437
   64CHL1  H21C 7197   1.727   4.170   9.198  0.8530  1.0818 -0.4742
   64CHL1   C22 7198   1.406   4.280   9.086 -0.5030 -0.5387  0.0016
   64CHL1  H22A 7199   1.298   4.267   9.109 -0.1424 -1.3980  1.2411
   64CHL1  H22B 7200   1.432   4.387   9.101 -1.6228  0.2136 -2.9333
   64CHL1   C23 7201   1.422   4.273   8.937  0.4438  0.1624  0.5332
   64CHL1  H23A 7202   1.522   4.277   8.890  0.0792  0.6885 -0.2044
   64CHL1  H23B 7203   1.382   4.175   8.903  0.5607  0.7126 -1.2563
   64CHL1   C24 7204   1.350   4.384   8.855  0.5224  0.2615 -0.0811
   64CHL1  H24A 7205   1.242   4.360   8.846  1.1657 -1.9195 -2.3159
   64CHL1  H24B 7206   1.373   4.485   8.897  1.4137  0.1728 -0.3554
   64CHL1   C25 7207   1.411   4.397   8.711 -0.0024  0.2530  0.1376
   64CHL1   H25 7208   1.521   4.415   8.702 -0.0964 -0.0820 -1.7945
   64CHL1   C26 7209   1.375   4.260   8.650 -0.3430  0.3727  0.6200
   64CHL1  H26A 7210   1.272   4.229   8.677 -0.2790 -0.2771  0.1152
   64CHL1  H26B 7211   1.384   4.262   8.540 -2.3642 -1.8466  0.3960
   64CHL1  H26C 7212   1.432   4.174   8.692 -2.0577 -1.0238  0.0856
   64CHL1   C27 7213   1.332   4.502   8.624  0.3102  0.2156 -0.0567
   64CHL1  H27A 7214   1.222   4.494   8.638  0.2269  0.0193 -0.7876
   64CHL1  H27B 7215   1.357   4.605   8.659  4.7102 -1.1181  1.0828
   64CHL1  H27C 7216   1.352   4.491   8.515 -0.2934 -0.9498 -0.0522
   65CHL1    C3 7217   3.326   1.168  10.357 -0.1886  0.7768 -0.2579
   65CHL1    H3 7218   3.436   1.172  10.363 -0.3500  2.5584  2.1509
   65CHL1    O3 7219   3.280   1.116  10.478 -0.0724 -0.1740  0.5851
   65CHL1   H3' 7220   3.202   1.168  10.495  1.4553  2.1821  0.6080
   65CHL1    C4 7221   3.276   1.306  10.323 -0.0475  0.0557 -0.1508
   65CHL1   H4A 7222   3.169   1.281  10.333 -0.3406  1.6425  0.8851
   65CHL1   H4B 7223   3.298   1.385  10.398  1.0160  0.4003 -0.7990
   65CHL1    C5 7224   3.308   1.355  10.190 -0.6778  0.1912  0.2760
   65CHL1    C6 7225   3.379   1.468  10.188 -0.3584 -0.2758  0.3458
   65CHL1    H6 7226   3.421   1.514  10.278 -0.2252 -0.2444  0.2674
   65CHL1    C7 7227   3.421   1.527  10.057  0.5728  0.2289  0.1673
   65CHL1   H7A 7228   3.394   1.635  10.064 -1.6074 -0.2806 -0.2568
   65CHL1   H7B 7229   3.528   1.506  10.033  0.3581 -1.7255  0.9247
   65CHL1    C8 7230   3.347   1.466   9.929 -0.3960  0.3725  0.4606
   65CHL1    H8 7231   3.241   1.500   9.936 -0.2585  0.8184  0.3830
   65CHL1   C14 7232   3.408   1.514   9.796  0.6843 -0.3790  0.0683
   65CHL1   H14 7233   3.501   1.453   9.784  0.1867 -1.0879 -0.2302
   65CHL1   C15 7234   3.462   1.659   9.779  1.0375 -0.0706  0.4055
   65CHL1  H15A 7235   3.392   1.736   9.816 -0.5303 -1.1942 -0.1432
   65CHL1  H15B 7236   3.565   1.674   9.818  0.4191  1.1824  1.5684
   65CHL1   C16 7237   3.475   1.676   9.627 -0.1824 -0.1299 -0.0343
   65CHL1  H16A 7238   3.426   1.767   9.585  0.6095  0.7106  0.8481
   65CHL1  H16B 7239   3.582   1.681   9.599 -0.7946  0.6858 -2.3892
   65CHL1   C17 7240   3.426   1.538   9.563 -0.2534  0.4491  0.0892
   65CHL1   H17 7241   3.515   1.472   9.559 -0.2072  0.4938  0.3623
   65CHL1   C13 7242   3.332   1.477   9.670 -0.4401 -0.0986  0.0490
   65CHL1   C18 7243   3.201   1.564   9.668 -0.1570  0.4187  0.6251
   65CHL1  H18A 7244   3.138   1.552   9.760  1.1647 -0.8529  1.3799
   65CHL1  H18B 7245   3.221   1.673   9.659  2.4691  0.0825  1.8681
   65CHL1  H18C 7246   3.126   1.534   9.592  0.9459 -0.0107 -0.2943
   65CHL1   C12 7247   3.304   1.329   9.666  0.2840 -0.1787 -0.3637
   65CHL1  H12A 7248   3.215   1.318   9.600 -1.5553  2.4010  1.5485
   65CHL1  H12B 7249   3.396   1.275   9.638  0.2614  0.1395 -1.0638
   65CHL1   C11 7250   3.256   1.259   9.801  0.0615  0.1609  0.4154
   65CHL1  H11A 7251   3.149   1.286   9.804  0.4038  1.3880  2.2136
   65CHL1  H11B 7252   3.272   1.149   9.788  0.2059  0.2754 -0.3525
   65CHL1    C9 7253   3.327   1.313   9.928 -0.3171 -0.5715  0.1443
   65CHL1    H9 7254   3.424   1.261   9.914  0.1236  0.8566 -2.4970
   65CHL1   C10 7255   3.264   1.261  10.068  0.2509 -0.1090  1.1002
   65CHL1   C19 7256   3.112   1.256  10.050  0.4450  0.8413  0.2121
   65CHL1  H19A 7257   3.074   1.185   9.974  0.1569  1.5392 -0.2934
   65CHL1  H19B 7258   3.067   1.223  10.147 -1.2456 -0.5294 -1.0122
   65CHL1  H19C 7259   3.070   1.357  10.030  1.3870  1.6782  2.2732
   65CHL1    C1 7260   3.317   1.123  10.105  0.3684 -0.5213  0.4656
   65CHL1   H1A 7261   3.280   1.048  10.032 -2.1297 -1.1296  2.3291
   65CHL1   H1B 7262   3.428   1.120  10.091  0.5334 -0.2038  1.7065
   65CHL1    C2 7263   3.280   1.075  10.245 -0.3099  0.2563  0.1473
   65CHL1   H2A 7264   3.302   0.967  10.259 -3.0290 -0.3132  0.2045
   65CHL1   H2B 7265   3.170   1.090  10.243 -0.2033  1.0205 -0.9678
   65CHL1   C20 7266   3.378   1.553   9.418 -0.7963 -0.5933  0.4909
   65CHL1   H20 7267   3.280   1.604   9.426 -0.8362 -0.0701 -2.8749
   65CHL1   C21 7268   3.348   1.413   9.349 -0.5829 -0.2508  0.8417
   65CHL1  H21A 7269   3.253   1.374   9.391  0.9901 -2.5159  2.4389
   65CHL1  H21B 7270   3.440   1.355   9.373  1.1841  1.2723 -2.0569
   65CHL1  H21C 7271   3.330   1.426   9.240  1.9656  2.4488  0.6634
   65CHL1   C22 7272   3.473   1.638   9.324  0.0208 -0.0982  0.0497
   65CHL1  H22A 7273   3.433   1.638   9.220 -0.7221 -1.6421  0.3121
   65CHL1  H22B 7274   3.472   1.742   9.362  0.3909  1.2956 -3.5107
   65CHL1   C23 7275   3.618   1.589   9.306  0.3461 -0.1000  0.1411
   65CHL1  H23A 7276   3.680   1.605   9.397 -0.3956  1.1121  0.4447
   65CHL1  H23B 7277   3.624   1.479   9.291 -3.4601 -0.1301 -1.6887
   65CHL1   C24 7278   3.684   1.665   9.189 -0.3484  0.8665 -0.1070
   65CHL1  H24A 7279   3.627   1.633   9.099 -1.1556  1.4347  0.1994
   65CHL1  H24B 7280   3.667   1.772   9.211  0.8204  1.0915 -0.2993
   65CHL1   C25 7281   3.835   1.644   9.171  0.3013 -0.0293 -0.3008
   65CHL1   H25 7282   3.849   1.538   9.140 -0.0915 -0.2336  0.2150
   65CHL1   C26 7283   3.889   1.724   9.051  0.3159  0.1205  0.5014
   65CHL1  H26A 7284   3.837   1.713   8.953 -0.4602 -1.2570  1.0538
   65CHL1  H26B 7285   3.870   1.829   9.085  1.2752 -0.2845  2.3454
   65CHL1  H26C 7286   3.992   1.693   9.026 -0.0151 -0.7659  0.2227
   65CHL1   C27 7287   3.921   1.672   9.296 -0.0471 -0.2344  0.1151
   65CHL1  H27A 7288   3.892   1.603   9.378  0.3584 -0.6996 -0.1352
   65CHL1  H27B 7289   4.029   1.666   9.273 -0.4347 -1.8567 -1.3205
   65CHL1  H27C 7290   3.910   1.776   9.335  1.6342 -0.7910  2.1462
   66CHL1    C3 7291   1.935   6.126  10.623 -0.5583 -0.9504 -0.4247
   66CHL1    H3 7292   2.046   6.135  10.612 -0.6442 -0.2851 -0.7065
   66CHL1    O3 7293   1.909   6.098  10.760 -0.6766 -0.0357  0.0925
   66CHL1   H3' 7294   1.972   6.154  10.806 -0.5553 -0.9701  1.1032
   66CHL1    C4 7295   1.880   6.264  10.587 -0.3526 -0.0823  0.3531
   66CHL1   H4A 7296   1.774   6.271  10.619  0.0933  3.0526  1.3469
   66CHL1   H4B 7297   1.930   6.342  10.649  0.6506 -0.8657  0.5268
   66CHL1    C5 7298   1.893   6.296  10.437 -0.0567  0.4871  0.1936
   66CHL1    C6 7299   1.949   6.406  10.392 -0.2382 -0.1110  0.0278
   66CHL1    H6 7300   1.979   6.482  10.466 -1.1486 -1.0295  1.3621
   66CHL1    C7 7301   1.959   6.446  10.245  0.1981  0.2116  0.3628
   66CHL1   H7A 7302   1.927   6.552  10.236 -0.6176 -0.0342  0.3255
   66CHL1   H7B 7303   2.065   6.434  10.213 -0.0720 -0.9415 -0.1222
   66CHL1    C8 7304   1.869   6.351  10.155  0.7193  0.4181  0.3862
   66CHL1    H8 7305   1.763   6.376  10.179  0.8922  0.4071  1.1650
   66CHL1   C14 7306   1.903   6.358  10.005  0.0068 -0.4163 -0.0326
   66CHL1   H14 7307   2.008   6.328   9.984  0.4997  1.3263 -0.1650
   66CHL1   C15 7308   1.914   6.501   9.943 -0.1431 -0.0355 -0.4920
   66CHL1  H15A 7309   1.826   6.563   9.972  1.2393  1.6871  0.1384
   66CHL1  H15B 7310   2.008   6.550   9.977  0.0972 -0.2652 -0.8332
   66CHL1   C16 7311   1.913   6.473   9.790  0.5475  0.0631 -0.7315
   66CHL1  H16A 7312   1.844   6.552   9.754 -0.8640 -0.4279  0.8363
   66CHL1  H16B 7313   2.016   6.490   9.750  1.3775 -2.0151  0.4257
   66CHL1   C17 7314   1.876   6.329   9.778 -0.1935  0.3207 -0.4731
   66CHL1   H17 7315   1.963   6.261   9.765 -0.3006  0.2267 -0.7104
   66CHL1   C13 7316   1.820   6.275   9.912  0.1287  0.3207 -0.4756
   66CHL1   C18 7317   1.670   6.314   9.908  0.5927  0.8081  0.5019
   66CHL1  H18A 7318   1.650   6.412   9.859 -0.5957  0.0194 -0.6247
   66CHL1  H18B 7319   1.623   6.232   9.851 -0.2333  1.8050 -0.2767
   66CHL1  H18C 7320   1.625   6.319  10.009  1.5697 -0.0132  0.9939
   66CHL1   C12 7321   1.845   6.133   9.953  0.2519 -0.2745 -0.0770
   66CHL1  H12A 7322   1.799   6.056   9.888  1.4552 -0.8511 -0.2436
   66CHL1  H12B 7323   1.955   6.120   9.949  0.3286 -0.3041  1.6628
   66CHL1   C11 7324   1.809   6.104  10.098 -0.0935 -0.2940  0.7746
   66CHL1  H11A 7325   1.698   6.107  10.110 -0.6416  0.3855 -3.6078
   66CHL1  H11B 7326   1.832   6.004  10.140  2.8403  1.1544  2.8197
   66CHL1    C9 7327   1.877   6.207  10.199 -0.4212  0.5059 -0.2623
   66CHL1    H9 7328   1.987   6.197  10.188 -0.4486 -1.6418  0.8908
   66CHL1   C10 7329   1.839   6.192  10.347  0.1388  0.0890  0.8105
   66CHL1   C19 7330   1.688   6.203  10.369  0.2906  0.3637 -0.3953
   66CHL1  H19A 7331   1.653   6.197  10.475  0.7170  0.7960 -0.2271
   66CHL1  H19B 7332   1.645   6.303  10.344  1.4793  1.2429  0.9678
   66CHL1  H19C 7333   1.633   6.129  10.308 -1.2364  0.2635  1.0395
   66CHL1    C1 7334   1.884   6.051  10.390 -0.0213  0.0610  0.0019
   66CHL1   H1A 7335   1.809   5.984  10.343  0.2444 -0.4320  0.2819
   66CHL1   H1B 7336   1.986   6.035  10.351  0.4301  0.4279  1.0091
   66CHL1    C2 7337   1.881   6.014  10.538 -0.2806  0.0156  0.5209
   66CHL1   H2A 7338   1.944   5.923  10.555 -0.4186  0.1325  1.7174
   66CHL1   H2B 7339   1.776   5.996  10.569 -1.0223  1.8622 -0.8629
   66CHL1   C20 7340   1.801   6.299   9.646 -0.1737 -0.4997  0.0635
   66CHL1   H20 7341   1.701   6.347   9.658  1.3293  2.6327  0.6168
   66CHL1   C21 7342   1.770   6.148   9.636 -0.0266 -0.1909 -1.0858
   66CHL1  H21A 7343   1.687   6.109   9.698  0.9732  1.1758  1.1748
   66CHL1  H21B 7344   1.866   6.104   9.671 -1.1585 -2.5275 -0.8894
   66CHL1  H21C 7345   1.764   6.113   9.531  0.0014  1.5754 -1.6930
   66CHL1   C22 7346   1.879   6.348   9.529 -0.4403  0.4522 -0.0312
   66CHL1  H22A 7347   1.903   6.456   9.540  1.0104  0.3119 -1.7397
   66CHL1  H22B 7348   1.974   6.294   9.513 -0.7662 -0.1124 -0.0661
   66CHL1   C23 7349   1.795   6.339   9.404 -0.3962 -0.9017 -0.4761
   66CHL1  H23A 7350   1.767   6.234   9.380 -0.4273 -1.0789  0.3408
   66CHL1  H23B 7351   1.702   6.394   9.429  1.0186  0.8103  1.1940
   66CHL1   C24 7352   1.856   6.401   9.276 -0.1730 -0.1648 -1.2412
   66CHL1  H24A 7353   1.876   6.507   9.303 -2.5244 -0.5292  2.2080
   66CHL1  H24B 7354   1.950   6.345   9.261 -0.1192 -0.6011  0.6197
   66CHL1   C25 7355   1.773   6.403   9.149  0.6320 -0.1152  0.4545
   66CHL1   H25 7356   1.827   6.461   9.071 -1.7365  0.7316 -0.6081
   66CHL1   C26 7357   1.755   6.267   9.083  0.3559  0.3157  0.8386
   66CHL1  H26A 7358   1.845   6.210   9.052 -0.9688 -1.8015  0.7852
   66CHL1  H26B 7359   1.701   6.205   9.158 -0.8874 -1.2438 -1.2753
   66CHL1  H26C 7360   1.700   6.287   8.988  0.7880 -3.8008 -0.3786
   66CHL1   C27 7361   1.634   6.476   9.176  1.2463 -0.0541  1.4761
   66CHL1  H27A 7362   1.575   6.476   9.082 -0.0375  1.2061  2.2675
   66CHL1  H27B 7363   1.578   6.430   9.260 -3.9105  2.8092 -0.2143
   66CHL1  H27C 7364   1.651   6.581   9.210  1.4144 -0.2687  2.0579
   67CHL1    C3 7365   5.461   0.264  10.171  0.7639 -0.1476 -0.0072
   67CHL1    H3 7366   5.456   0.375  10.170 -2.6107 -0.2466 -3.6141
   67CHL1    O3 7367   5.479   0.215  10.306  0.0751  0.1280 -0.0574
   67CHL1   H3' 7368   5.478   0.121  10.291 -0.6505  0.1670 -0.2394
   67CHL1    C4 7369   5.325   0.213  10.122 -0.2094  0.3415  0.6186
   67CHL1   H4A 7370   5.318   0.108  10.159  0.6399 -0.0370 -0.2746
   67CHL1   H4B 7371   5.248   0.261  10.186 -0.7884  1.5784 -0.9581
   67CHL1    C5 7372   5.308   0.233   9.966  0.0704 -0.0702 -0.2990
   67CHL1    C6 7373   5.202   0.298   9.916  0.1145  0.2582  0.5663
   67CHL1    H6 7374   5.119   0.330   9.981 -1.5149 -2.5791 -0.0496
   67CHL1    C7 7375   5.171   0.311   9.771  0.2294  0.2357 -0.2305
   67CHL1   H7A 7376   5.063   0.295   9.755 -0.1688  2.0518  0.4834
   67CHL1   H7B 7377   5.191   0.416   9.740 -1.1629  0.8044  0.7690
   67CHL1    C8 7378   5.254   0.210   9.681  0.3872 -0.2113 -0.0769
   67CHL1    H8 7379   5.215   0.106   9.684 -0.8895  0.2308 -1.4416
   67CHL1   C14 7380   5.252   0.249   9.534  0.4122  0.6870 -1.0614
   67CHL1   H14 7381   5.310   0.344   9.533  0.9082  0.4043  0.4103
   67CHL1   C15 7382   5.114   0.268   9.471 -0.6127  0.8383 -0.3046
   67CHL1  H15A 7383   5.050   0.179   9.490 -0.8502  1.4721  2.1030
   67CHL1  H15B 7384   5.074   0.368   9.498  0.0606  0.4044  2.4978
   67CHL1   C16 7385   5.147   0.266   9.321  0.4822 -0.4118  0.0839
   67CHL1  H16A 7386   5.080   0.196   9.265 -0.2653  1.1160 -0.9711
   67CHL1  H16B 7387   5.144   0.371   9.286  0.3673 -0.1830  0.7789
   67CHL1   C17 7388   5.291   0.212   9.307 -0.0641 -0.3724  0.0342
   67CHL1   H17 7389   5.341   0.310   9.305  2.2719 -1.5445 -0.1286
   67CHL1   C13 7390   5.333   0.155   9.445 -0.5239  0.0242  0.3528
   67CHL1   C18 7391   5.287   0.005   9.458  0.1665  0.0022 -0.5094
   67CHL1  H18A 7392   5.186  -0.013   9.416  0.6566  0.0253 -1.7108
   67CHL1  H18B 7393   5.354  -0.063   9.401 -1.5452 -0.8071 -1.5752
   67CHL1  H18C 7394   5.289  -0.033   9.562  0.3042 -0.6108 -0.7371
   67CHL1   C12 7395   5.483   0.173   9.484  0.5174 -0.1314  0.3277
   67CHL1  H12A 7396   5.545   0.110   9.416 -1.0357  0.4254 -1.6499
   67CHL1  H12B 7397   5.505   0.281   9.465 -0.8519  0.2982  1.1234
   67CHL1   C11 7398   5.497   0.134   9.629 -0.7333  0.2456 -0.2121
   67CHL1  H11A 7399   5.475   0.026   9.634  0.1360  0.0055 -1.5062
   67CHL1  H11B 7400   5.602   0.149   9.662 -1.2312  1.7418  0.7997
   67CHL1    C9 7401   5.403   0.209   9.727  0.3809  0.0460  0.1256
   67CHL1    H9 7402   5.437   0.314   9.717 -2.6108  0.9616 -1.0780
   67CHL1   C10 7403   5.420   0.172   9.877 -0.2240 -0.0043  0.0577
   67CHL1   C19 7404   5.417   0.017   9.888 -0.1473  0.5116 -0.5751
   67CHL1  H19A 7405   5.500  -0.030   9.830 -0.8196  0.2022 -1.2976
   67CHL1  H19B 7406   5.421  -0.013   9.995  1.0321 -2.9061 -1.5129
   67CHL1  H19C 7407   5.323  -0.018   9.840 -1.9806  0.3036  2.9906
   67CHL1    C1 7408   5.546   0.239   9.930 -0.1680 -0.6349  0.3865
   67CHL1   H1A 7409   5.623   0.183   9.872  0.5281  0.1913  0.5063
   67CHL1   H1B 7410   5.560   0.347   9.908  3.4738 -1.3703 -1.2931
   67CHL1    C2 7411   5.578   0.225  10.077 -0.4957 -0.0680 -0.0816
   67CHL1   H2A 7412   5.678   0.267  10.101 -0.2755  0.4149 -1.7764
   67CHL1   H2B 7413   5.590   0.115  10.087  2.3199  0.2167  0.1336
   67CHL1   C20 7414   5.325   0.120   9.186 -0.6552  0.2242 -0.7915
   67CHL1   H20 7415   5.293   0.016   9.206 -2.1487  1.1049  1.6134
   67CHL1   C21 7416   5.478   0.133   9.159 -0.0475 -0.6381  0.0985
   67CHL1  H21A 7417   5.503   0.233   9.201  0.3805 -0.1946 -1.1901
   67CHL1  H21B 7418   5.504   0.129   9.052  0.9427  0.3274  0.2924
   67CHL1  H21C 7419   5.542   0.066   9.221 -2.2826 -0.8280  2.3027
   67CHL1   C22 7420   5.236   0.174   9.061 -0.0680 -0.0890 -0.3352
   67CHL1  H22A 7421   5.269   0.112   8.975  2.4301  0.3557  0.2474
   67CHL1  H22B 7422   5.128   0.154   9.074 -0.1817  0.8036  0.1516
   67CHL1   C23 7423   5.256   0.321   9.022  0.6169  0.0833  0.5602
   67CHL1  H23A 7424   5.247   0.401   9.098  0.5544  0.4653  0.1555
   67CHL1  H23B 7425   5.366   0.326   9.003  0.2618  0.5708 -1.4569
   67CHL1   C24 7426   5.183   0.393   8.905 -0.1079  0.2662  0.0069
   67CHL1  H24A 7427   5.093   0.445   8.945 -0.9613 -2.1428  1.2701
   67CHL1  H24B 7428   5.247   0.477   8.868 -0.6132  1.4677  1.7852
   67CHL1   C25 7429   5.158   0.295   8.795 -0.1213 -0.8519  0.6135
   67CHL1   H25 7430   5.128   0.197   8.836 -0.5764 -1.6986 -1.6726
   67CHL1   C26 7431   5.035   0.347   8.710 -0.0482  0.0029 -0.5173
   67CHL1  H26A 7432   4.952   0.374   8.779  1.6098  0.3495  1.4087
   67CHL1  H26B 7433   5.057   0.446   8.665  1.4000  0.1452  0.4501
   67CHL1  H26C 7434   5.003   0.277   8.630  0.6391  0.5092 -1.2430
   67CHL1   C27 7435   5.282   0.287   8.713 -0.1388 -0.6132  0.6135
   67CHL1  H27A 7436   5.375   0.289   8.773  0.5911  2.4045 -0.5565
   67CHL1  H27B 7437   5.268   0.199   8.647  2.6856 -0.7792  0.1998
   67CHL1  H27C 7438   5.279   0.373   8.643 -0.8680 -1.2816 -0.1798
   68CHL1    C3 7439   3.690   0.632  10.318  0.2832  0.4614 -0.0491
   68CHL1    H3 7440   3.751   0.540  10.333 -1.0563 -0.6026 -0.9519
   68CHL1    O3 7441   3.673   0.684  10.450  0.5872  0.1964  0.3974
   68CHL1   H3' 7442   3.756   0.712  10.489  0.4901 -0.2652  0.9520
   68CHL1    C4 7443   3.764   0.741  10.241  0.2726 -0.1994 -0.0401
   68CHL1   H4A 7444   3.698   0.831  10.246 -2.4807 -2.0071 -1.9839
   68CHL1   H4B 7445   3.858   0.750  10.299  0.7723 -1.1284 -0.7033
   68CHL1    C5 7446   3.776   0.700  10.098 -0.5990 -0.1354  0.2064
   68CHL1    C6 7447   3.893   0.699  10.039  0.0570  0.2432  0.1650
   68CHL1    H6 7448   3.985   0.738  10.084  0.0118  2.7242 -1.8055
   68CHL1    C7 7449   3.910   0.671   9.890 -0.0853  0.1981  0.1640
   68CHL1   H7A 7450   3.975   0.748   9.842  0.2207  1.0235  1.8522
   68CHL1   H7B 7451   3.968   0.576   9.885  0.5458  0.6437 -1.1867
   68CHL1    C8 7452   3.780   0.669   9.814 -0.0344  0.3053 -0.4386
   68CHL1    H8 7453   3.755   0.776   9.796  1.8549  0.6984 -0.8055
   68CHL1   C14 7454   3.798   0.591   9.684 -0.3932  0.1887  0.5797
   68CHL1   H14 7455   3.819   0.487   9.717  1.4658 -0.1834 -1.6124
   68CHL1   C15 7456   3.913   0.626   9.593  0.2008 -0.4078  0.0446
   68CHL1  H15A 7457   3.914   0.736   9.605 -0.4933 -0.3933  0.0206
   68CHL1  H15B 7458   4.009   0.583   9.629  1.6398  2.3978 -0.3911
   68CHL1   C16 7459   3.876   0.577   9.448 -0.0204  0.3111 -0.4671
   68CHL1  H16A 7460   3.871   0.659   9.373 -1.9197 -0.8895 -1.7140
   68CHL1  H16B 7461   3.943   0.497   9.412  0.5350  1.0839 -1.1704
   68CHL1   C17 7462   3.735   0.514   9.470 -0.6853 -0.2744  0.3941
   68CHL1   H17 7463   3.754   0.414   9.514 -0.1794  0.3017  1.4881
   68CHL1   C13 7464   3.671   0.585   9.592 -0.2207  0.4833 -0.2107
   68CHL1   C18 7465   3.632   0.735   9.568  0.2301  0.3196 -0.0058
   68CHL1  H18A 7466   3.549   0.735   9.494  1.1630 -1.5952 -1.0970
   68CHL1  H18B 7467   3.591   0.792   9.654 -1.3324  1.1437 -1.2675
   68CHL1  H18C 7468   3.708   0.792   9.510 -0.5248 -0.8616 -2.2323
   68CHL1   C12 7469   3.553   0.524   9.669 -0.5148 -0.4593  0.1021
   68CHL1  H12A 7470   3.463   0.536   9.606  0.6008  0.8707 -1.2907
   68CHL1  H12B 7471   3.580   0.416   9.677 -0.0083 -0.3194  0.3172
   68CHL1   C11 7472   3.532   0.575   9.808 -0.9381  0.5715 -0.3690
   68CHL1  H11A 7473   3.486   0.676   9.794  0.2177  1.4379  1.7266
   68CHL1  H11B 7474   3.454   0.514   9.858 -0.0398  0.0065  0.3654
   68CHL1    C9 7475   3.664   0.601   9.897  0.1974  0.3588  0.0778
   68CHL1    H9 7476   3.702   0.499   9.920 -2.0261 -0.3925  0.4903
   68CHL1   C10 7477   3.638   0.672  10.031 -0.3557  0.4322  0.3372
   68CHL1   C19 7478   3.559   0.797   9.998 -0.2292  0.2988 -0.0278
   68CHL1  H19A 7479   3.557   0.865  10.086  2.8896  2.8855 -1.8276
   68CHL1  H19B 7480   3.607   0.857   9.917 -1.5429  0.9314 -0.3520
   68CHL1  H19C 7481   3.457   0.779   9.959  0.0006  1.3428 -1.1351
   68CHL1    C1 7482   3.553   0.569  10.110  0.0682 -0.4243 -0.1578
   68CHL1   H1A 7483   3.451   0.554  10.068 -0.4222  0.2727  0.7711
   68CHL1   H1B 7484   3.596   0.468  10.095 -0.9436 -0.8542 -0.1786
   68CHL1    C2 7485   3.548   0.601  10.259 -0.1790 -0.0262 -0.0991
   68CHL1   H2A 7486   3.500   0.527  10.326  1.9612  1.6330  3.4193
   68CHL1   H2B 7487   3.490   0.693  10.283 -0.3839  0.0316 -0.8103
   68CHL1   C20 7488   3.646   0.497   9.340 -0.7042 -0.6988 -0.5660
   68CHL1   H20 7489   3.544   0.479   9.381 -0.1596 -0.6715  0.7960
   68CHL1   C21 7490   3.680   0.369   9.266  1.1245  0.3470 -0.6068
   68CHL1  H21A 7491   3.614   0.361   9.176  2.7485 -2.6335 -1.6174
   68CHL1  H21B 7492   3.650   0.274   9.315  1.9194 -0.7749 -2.2221
   68CHL1  H21C 7493   3.786   0.363   9.233  0.8316 -0.1672 -1.4892
   68CHL1   C22 7494   3.652   0.617   9.238  0.6310 -0.0354  0.5851
   68CHL1  H22A 7495   3.639   0.717   9.285 -0.4862  0.8697 -1.6211
   68CHL1  H22B 7496   3.754   0.622   9.194  1.5711  0.8727  2.7871
   68CHL1   C23 7497   3.549   0.603   9.117 -0.8875  0.4069  0.2666
   68CHL1  H23A 7498   3.599   0.522   9.060 -0.1339 -0.1637  1.7281
   68CHL1  H23B 7499   3.455   0.558   9.156 -0.2280 -0.3072  1.0494
   68CHL1   C24 7500   3.514   0.737   9.037 -0.1749  0.2798 -0.2223
   68CHL1  H24A 7501   3.460   0.796   9.115  1.6122 -0.8058  1.9233
   68CHL1  H24B 7502   3.615   0.778   9.017  1.2214 -2.4322  0.9766
   68CHL1   C25 7503   3.423   0.715   8.919 -0.7566  0.5770 -0.2571
   68CHL1   H25 7504   3.330   0.683   8.972 -1.0036  2.4105  0.4642
   68CHL1   C26 7505   3.388   0.845   8.837 -0.2981  0.1759 -0.0297
   68CHL1  H26A 7506   3.493   0.875   8.814 -0.3751 -0.0454 -0.6725
   68CHL1  H26B 7507   3.332   0.821   8.744 -0.0514  2.1579 -0.7097
   68CHL1  H26C 7508   3.336   0.920   8.900  2.9152  3.5591 -1.1892
   68CHL1   C27 7509   3.463   0.607   8.817 -0.4852  0.5964  0.3585
   68CHL1  H27A 7510   3.390   0.587   8.736  2.2587 -0.4441 -1.9528
   68CHL1  H27B 7511   3.559   0.628   8.764 -0.5425 -2.3960 -1.0103
   68CHL1  H27C 7512   3.486   0.510   8.866  1.8026  0.6469 -0.5336
   69CHL1    C3 7513   2.376   5.753   6.773 -0.2072 -0.1922 -0.3503
   69CHL1    H3 7514   2.408   5.859   6.785 -3.0907  0.4955  1.9408
   69CHL1    O3 7515   2.350   5.741   6.637 -0.1059  0.6418  0.3694
   69CHL1   H3' 7516   2.255   5.726   6.632 -0.3231  2.1788 -0.4862
   69CHL1    C4 7517   2.491   5.662   6.819 -0.5982 -0.3391  0.0032
   69CHL1   H4A 7518   2.467   5.567   6.766 -2.3413  0.0482  0.0594
   69CHL1   H4B 7519   2.578   5.710   6.768 -0.9806 -0.6429 -0.9443
   69CHL1    C5 7520   2.505   5.653   6.977  0.1743 -0.1540  0.0779
   69CHL1    C6 7521   2.613   5.689   7.045 -0.3708  0.1146  0.6080
   69CHL1    H6 7522   2.700   5.724   6.987 -0.7940  0.0123 -0.0882
   69CHL1    C7 7523   2.632   5.684   7.190  0.3375 -0.3568 -0.2764
   69CHL1   H7A 7524   2.732   5.645   7.220  0.4323 -0.9431 -1.3114
   69CHL1   H7B 7525   2.637   5.785   7.236  1.6324 -0.1965 -0.7401
   69CHL1    C8 7526   2.524   5.602   7.267 -0.2027  0.1304  1.2009
   69CHL1    H8 7527   2.541   5.497   7.235  2.1867  1.0840 -0.8060
   69CHL1   C14 7528   2.524   5.611   7.415  0.5753  0.2381 -0.8846
   69CHL1   H14 7529   2.516   5.718   7.441 -1.9662 -0.1501  0.0460
   69CHL1   C15 7530   2.653   5.574   7.495 -0.8465  0.1918 -0.4040
   69CHL1  H15A 7531   2.684   5.471   7.467 -2.5897 -0.4134 -0.1219
   69CHL1  H15B 7532   2.743   5.638   7.479 -0.6959  0.4815  1.4606
   69CHL1   C16 7533   2.603   5.554   7.639  0.0382 -0.2905 -0.5460
   69CHL1  H16A 7534   2.656   5.463   7.673 -0.9400  0.1571  2.3512
   69CHL1  H16B 7535   2.647   5.643   7.690  0.0644 -0.4926 -0.2133
   69CHL1   C17 7536   2.452   5.553   7.647  0.0349  0.0210 -0.0736
   69CHL1   H17 7537   2.415   5.655   7.671  1.5183  0.5543  0.0125
   69CHL1   C13 7538   2.416   5.537   7.494  0.3674  0.0412  0.0083
   69CHL1   C18 7539   2.438   5.387   7.456 -0.5605  0.2670  0.4005
   69CHL1  H18A 7540   2.445   5.369   7.347 -0.9217 -0.6830  0.5252
   69CHL1  H18B 7541   2.532   5.351   7.505  1.6209  2.1621 -2.2252
   69CHL1  H18C 7542   2.349   5.330   7.491 -0.3306 -0.6166 -0.4061
   69CHL1   C12 7543   2.285   5.586   7.439  0.4562 -0.1656 -0.1492
   69CHL1  H12A 7544   2.199   5.531   7.483  0.4729 -0.3966 -0.4002
   69CHL1  H12B 7545   2.269   5.692   7.465 -0.4647 -0.5038  0.6766
   69CHL1   C11 7546   2.273   5.573   7.283 -0.2043  0.1910  0.3854
   69CHL1  H11A 7547   2.256   5.466   7.259 -0.5371  0.6087 -1.3305
   69CHL1  H11B 7548   2.180   5.628   7.255 -0.4169 -0.7124 -0.7557
   69CHL1    C9 7549   2.386   5.639   7.207 -0.6300  0.0864  0.2630
   69CHL1    H9 7550   2.375   5.747   7.235  0.1266  0.4696 -0.9104
   69CHL1   C10 7551   2.379   5.619   7.051 -0.2728 -0.2162 -0.7864
   69CHL1   C19 7552   2.335   5.467   7.035  0.1584 -0.3438  0.1882
   69CHL1  H19A 7553   2.391   5.390   7.092  1.4481 -1.5151 -2.5513
   69CHL1  H19B 7554   2.225   5.464   7.051 -0.1316  2.0316 -1.1093
   69CHL1  H19C 7555   2.349   5.448   6.926 -0.8844  0.8668 -0.1709
   69CHL1    C1 7556   2.263   5.701   6.999 -0.5962 -0.9210  0.2066
   69CHL1   H1A 7557   2.169   5.658   7.040 -0.9744 -0.7352 -0.4572
   69CHL1   H1B 7558   2.267   5.799   7.050  4.0201 -1.6272  1.4664
   69CHL1    C2 7559   2.253   5.709   6.839  0.2166 -0.1325  0.5771
   69CHL1   H2A 7560   2.164   5.773   6.819 -1.1759 -1.7033  1.6368
   69CHL1   H2B 7561   2.231   5.609   6.795 -1.5712  0.9398 -1.0252
   69CHL1   C20 7562   2.396   5.459   7.754 -0.7467  0.3452 -0.2984
   69CHL1   H20 7563   2.426   5.355   7.729 -2.2247  0.6338 -3.4769
   69CHL1   C21 7564   2.245   5.477   7.737 -1.0148  0.1067 -0.8697
   69CHL1  H21A 7565   2.226   5.585   7.717 -0.4678  0.1602 -1.1127
   69CHL1  H21B 7566   2.181   5.447   7.822  0.1196 -0.5879 -0.2564
   69CHL1  H21C 7567   2.215   5.417   7.648 -1.3938 -0.6926 -0.2015
   69CHL1   C22 7568   2.439   5.487   7.903 -0.0048  0.4690  0.8761
   69CHL1  H22A 7569   2.549   5.490   7.915  0.0586 -0.8101  0.5902
   69CHL1  H22B 7570   2.395   5.585   7.933 -1.2395  0.0490  0.4581
   69CHL1   C23 7571   2.380   5.378   7.997  0.4019  0.1877 -0.2822
   69CHL1  H23A 7572   2.270   5.389   8.002  0.0518 -2.3803 -1.2220
   69CHL1  H23B 7573   2.399   5.280   7.948  0.4105  0.8347 -1.5941
   69CHL1   C24 7574   2.438   5.390   8.130 -0.7760  1.0171  0.0657
   69CHL1  H24A 7575   2.549   5.380   8.134 -0.6782  1.6241 -1.1341
   69CHL1  H24B 7576   2.411   5.491   8.168 -0.0617  0.6421  1.6298
   69CHL1   C25 7577   2.377   5.288   8.228 -0.7888 -0.2578 -0.1163
   69CHL1   H25 7578   2.266   5.298   8.235 -0.9220 -1.8200  0.2047
   69CHL1   C26 7579   2.409   5.145   8.192 -0.7216  1.2199  0.0667
   69CHL1  H26A 7580   2.371   5.084   8.276 -1.4145 -0.6027 -1.5137
   69CHL1  H26B 7581   2.363   5.100   8.101 -1.5904  0.7812  0.7158
   69CHL1  H26C 7582   2.516   5.123   8.173 -1.2657 -0.3912 -1.3652
   69CHL1   C27 7583   2.437   5.305   8.368  0.0668  0.1688  0.1982
   69CHL1  H27A 7584   2.547   5.292   8.363  0.2091  1.1311  0.8321
   69CHL1  H27B 7585   2.413   5.404   8.410 -1.1368 -0.5509  1.2427
   69CHL1  H27C 7586   2.391   5.232   8.438  0.6491  0.2335  0.6499
   70CHL1    C3 7587   1.794   2.345   6.994  0.2726 -0.2390  0.3253
   70CHL1    H3 7588   1.705   2.408   7.015  0.8628  0.5509  0.4950
   70CHL1    O3 7589   1.810   2.320   6.851  0.7646 -0.2715 -0.2210
   70CHL1   H3' 7590   1.744   2.253   6.831  1.5654 -0.7222 -1.4668
   70CHL1    C4 7591   1.916   2.418   7.042 -0.2106  0.5689  0.2055
   70CHL1   H4A 7592   2.007   2.367   7.003 -0.3382 -0.0803  0.7435
   70CHL1   H4B 7593   1.918   2.519   6.996  0.7385  0.1963 -0.5939
   70CHL1    C5 7594   1.926   2.431   7.200 -0.4744 -0.2071  0.2105
   70CHL1    C6 7595   1.928   2.556   7.254  0.1819 -0.1106 -0.2734
   70CHL1    H6 7596   1.923   2.646   7.192 -2.0309  0.7456  1.0961
   70CHL1    C7 7597   1.949   2.573   7.396  0.4060  0.7527 -0.1820
   70CHL1   H7A 7598   2.013   2.663   7.412 -0.3323  1.6627 -2.1324
   70CHL1   H7B 7599   1.854   2.596   7.448  1.1350 -0.9637  1.9700
   70CHL1    C8 7600   2.003   2.442   7.475 -0.2308  0.3172  0.1770
   70CHL1    H8 7601   2.110   2.442   7.447 -0.1200 -2.0079  0.5537
   70CHL1   C14 7602   1.983   2.471   7.624 -0.1551 -0.3896 -0.1036
   70CHL1   H14 7603   1.877   2.501   7.639  0.3572  1.0277  0.7724
   70CHL1   C15 7604   2.062   2.580   7.686 -0.2808 -0.2016  0.1131
   70CHL1  H15A 7605   2.165   2.577   7.645 -0.4912  0.1719 -0.4587
   70CHL1  H15B 7606   2.030   2.684   7.660 -0.1231 -0.2167 -0.1505
   70CHL1   C16 7607   2.056   2.551   7.842 -0.6437 -0.1200  0.4625
   70CHL1  H16A 7608   2.160   2.570   7.877  0.2025 -1.1054 -1.4771
   70CHL1  H16B 7609   1.991   2.621   7.899 -1.5273 -0.2610 -0.3499
   70CHL1   C17 7610   1.988   2.409   7.847 -0.4248 -0.0980 -0.6573
   70CHL1   H17 7611   1.879   2.430   7.850 -0.1512  1.2181  1.0192
   70CHL1   C13 7612   2.006   2.344   7.703  0.3426  0.6927  0.6817
   70CHL1   C18 7613   2.152   2.300   7.698  0.4516 -0.6911 -0.3952
   70CHL1  H18A 7614   2.195   2.315   7.596 -1.4773  0.2211 -1.0945
   70CHL1  H18B 7615   2.223   2.356   7.761 -0.4580  0.5254 -0.4348
   70CHL1  H18C 7616   2.157   2.190   7.716 -0.6317 -0.4518  1.4296
   70CHL1   C12 7617   1.912   2.237   7.664  0.2250  0.7225  0.3359
   70CHL1  H12A 7618   1.920   2.138   7.715  0.3696  1.2855  1.4252
   70CHL1  H12B 7619   1.809   2.280   7.667 -0.4045 -0.8281  2.2427
   70CHL1   C11 7620   1.937   2.194   7.519 -0.1398 -0.2044  0.0173
   70CHL1  H11A 7621   2.039   2.151   7.512 -0.6121 -1.4808  0.8840
   70CHL1  H11B 7622   1.866   2.116   7.485 -0.5633  0.5313 -0.8144
   70CHL1    C9 7623   1.921   2.322   7.425  0.1237  0.0489 -0.6342
   70CHL1    H9 7624   1.817   2.361   7.437  0.7991  2.7461 -3.1193
   70CHL1   C10 7625   1.929   2.298   7.272  0.2404 -0.1735  0.3421
   70CHL1   C19 7626   2.050   2.205   7.237  0.3905  0.0326  0.6622
   70CHL1  H19A 7627   2.143   2.243   7.284 -1.0754  2.6225  1.5923
   70CHL1  H19B 7628   2.027   2.101   7.269  0.2710 -0.8984 -2.3138
   70CHL1  H19C 7629   2.068   2.195   7.128 -3.7928 -0.0851 -0.0977
   70CHL1    C1 7630   1.806   2.221   7.223 -0.7709  0.0596  0.1146
   70CHL1   H1A 7631   1.804   2.117   7.265  1.1597  0.2966  0.8315
   70CHL1   H1B 7632   1.712   2.265   7.263 -1.4817 -1.9488  0.7233
   70CHL1    C2 7633   1.790   2.213   7.064  0.6418  0.0342  0.0430
   70CHL1   H2A 7634   1.686   2.176   7.059  0.1372  1.1702  1.6780
   70CHL1   H2B 7635   1.864   2.145   7.016 -0.1496 -1.9818  1.5929
   70CHL1   C20 7636   2.020   2.326   7.977  0.0300 -0.0367 -0.3033
   70CHL1   H20 7637   1.989   2.220   7.968 -1.0005  0.1880  0.5890
   70CHL1   C21 7638   1.928   2.391   8.081 -0.3471  0.2601  0.1570
   70CHL1  H21A 7639   1.822   2.366   8.056 -1.0038  1.7497  1.3575
   70CHL1  H21B 7640   1.941   2.500   8.095  0.6643  0.1000  0.5007
   70CHL1  H21C 7641   1.942   2.335   8.176 -2.2266 -2.1730 -0.9241
   70CHL1   C22 7642   2.171   2.327   8.022 -0.1364 -0.0819  0.1099
   70CHL1  H22A 7643   2.231   2.252   7.966  0.3468 -0.7165  1.4687
   70CHL1  H22B 7644   2.212   2.430   8.019 -0.0065 -0.0561  2.3299
   70CHL1   C23 7645   2.202   2.283   8.164 -0.8660  0.2282 -0.1625
   70CHL1  H23A 7646   2.146   2.344   8.239  0.7341 -0.0157  1.2526
   70CHL1  H23B 7647   2.166   2.180   8.181 -0.9355  0.5229  1.5977
   70CHL1   C24 7648   2.355   2.296   8.196 -0.5888 -0.7431  0.3390
   70CHL1  H24A 7649   2.415   2.210   8.158  1.1800  1.0258 -0.9816
   70CHL1  H24B 7650   2.387   2.392   8.149 -1.1588  0.0802  1.6061
   70CHL1   C25 7651   2.385   2.314   8.345  0.1762 -0.7468  0.3098
   70CHL1   H25 7652   2.342   2.412   8.375  0.3740 -0.6140  0.1501
   70CHL1   C26 7653   2.310   2.208   8.432 -0.1754 -0.3536 -0.3223
   70CHL1  H26A 7654   2.362   2.203   8.530  0.3599 -0.1578 -0.5958
   70CHL1  H26B 7655   2.205   2.241   8.447  0.7644  2.4626  0.3199
   70CHL1  H26C 7656   2.311   2.118   8.367 -1.6033  0.0540 -0.9285
   70CHL1   C27 7657   2.533   2.322   8.374  0.0205 -0.0170 -0.4443
   70CHL1  H27A 7658   2.576   2.225   8.342 -0.9173 -1.1372  1.5607
   70CHL1  H27B 7659   2.571   2.406   8.312 -1.4664  0.6908 -0.4179
   70CHL1  H27C 7660   2.563   2.355   8.476 -1.0396 -0.0953 -0.1016
   71CHL1    C3 7661   1.410   4.374   6.805 -1.1594 -0.2059 -0.5632
   71CHL1    H3 7662   1.416   4.481   6.777 -0.9085 -0.3318 -1.0086
   71CHL1    O3 7663   1.321   4.310   6.714  0.1794  0.4196 -0.4756
   71CHL1   H3' 7664   1.355   4.221   6.720  2.4979  1.2551 -0.5703
   71CHL1    C4 7665   1.553   4.316   6.795  0.4131  0.2065  0.2236
   71CHL1   H4A 7666   1.539   4.207   6.781 -3.6016  0.9149 -2.2072
   71CHL1   H4B 7667   1.601   4.329   6.695  0.2841  0.7002  0.2218
   71CHL1    C5 7668   1.648   4.372   6.894 -0.3389  0.2315  0.0472
   71CHL1    C6 7669   1.766   4.434   6.864  0.4378 -0.2676  0.5722
   71CHL1    H6 7670   1.803   4.442   6.761 -1.1251 -0.9780 -0.0643
   71CHL1    C7 7671   1.875   4.479   6.957  0.8207 -1.6134  0.0191
   71CHL1   H7A 7672   1.977   4.449   6.925  1.4158 -0.6687  0.9673
   71CHL1   H7B 7673   1.876   4.590   6.950  1.1885 -1.7038 -1.5002
   71CHL1    C8 7674   1.840   4.437   7.100 -0.4356  0.2554  0.5509
   71CHL1    H8 7675   1.844   4.326   7.104 -2.4057  0.2031  1.7273
   71CHL1   C14 7676   1.934   4.497   7.207  0.4770  0.0908  0.0354
   71CHL1   H14 7677   1.910   4.603   7.186  2.5311  0.2850 -1.5495
   71CHL1   C15 7678   2.091   4.480   7.190 -0.0569  0.0483 -0.0198
   71CHL1  H15A 7679   2.109   4.371   7.175 -3.2129 -0.5904  0.4803
   71CHL1  H15B 7680   2.141   4.531   7.105  0.5024 -3.1555 -1.6825
   71CHL1   C16 7681   2.144   4.520   7.325 -0.1329 -0.0017  0.6779
   71CHL1  H16A 7682   2.214   4.443   7.364 -0.0375  0.8301  2.2249
   71CHL1  H16B 7683   2.196   4.617   7.310 -1.5003  0.9924  2.1552
   71CHL1   C17 7684   2.022   4.548   7.423 -1.1939 -0.5454 -0.4636
   71CHL1   H17 7685   1.999   4.656   7.415 -1.9120 -0.7766 -1.5869
   71CHL1   C13 7686   1.903   4.468   7.358 -0.8437 -0.1301 -0.8799
   71CHL1   C18 7687   1.931   4.315   7.373 -0.1523  0.0066  0.2457
   71CHL1  H18A 7688   2.026   4.272   7.335  0.2662  1.4459 -0.3843
   71CHL1  H18B 7689   1.915   4.295   7.481 -0.8679 -2.0378 -0.2187
   71CHL1  H18C 7690   1.850   4.264   7.317 -0.7520  0.5902  0.5724
   71CHL1   C12 7691   1.760   4.520   7.381 -0.0148  0.6748 -0.3227
   71CHL1  H12A 7692   1.728   4.522   7.487  2.3611  0.5299  0.4312
   71CHL1  H12B 7693   1.746   4.624   7.347 -2.0220  0.2889 -0.7605
   71CHL1   C11 7694   1.658   4.445   7.286 -0.8654  0.0688  0.4797
   71CHL1  H11A 7695   1.642   4.342   7.324 -3.9906  0.6090  0.7831
   71CHL1  H11B 7696   1.562   4.495   7.312 -1.8031 -1.8604  0.8218
   71CHL1    C9 7697   1.693   4.460   7.136 -0.0791 -0.2487  0.2289
   71CHL1    H9 7698   1.664   4.563   7.109 -2.4392 -0.7993  0.5721
   71CHL1   C10 7699   1.605   4.368   7.043  0.2229  0.6782  0.1445
   71CHL1   C19 7700   1.588   4.227   7.102 -0.8159  0.2525 -0.0006
   71CHL1  H19A 7701   1.524   4.233   7.192  1.9255  2.3996  1.8957
   71CHL1  H19B 7702   1.547   4.159   7.024  0.7327  1.4633 -1.9170
   71CHL1  H19C 7703   1.683   4.176   7.128 -1.9108 -0.9845  1.6731
   71CHL1    C1 7704   1.465   4.431   7.042 -0.1210  0.5474  0.3132
   71CHL1   H1A 7705   1.426   4.419   7.146 -1.8610 -0.2552 -0.4064
   71CHL1   H1B 7706   1.472   4.538   7.012  1.1553 -0.0561 -1.6045
   71CHL1    C2 7707   1.360   4.361   6.948 -0.2861 -0.5163 -0.3692
   71CHL1   H2A 7708   1.264   4.417   6.953 -0.4097 -0.8224  0.7226
   71CHL1   H2B 7709   1.331   4.256   6.969 -3.0977  0.4962  1.0503
   71CHL1   C20 7710   2.054   4.515   7.573  0.1782  0.1693  0.0242
   71CHL1   H20 7711   2.077   4.406   7.576  1.2753  0.4383  2.0415
   71CHL1   C21 7712   1.936   4.550   7.669 -0.0247 -0.0805 -0.2770
   71CHL1  H21A 7713   1.850   4.480   7.668  1.0591 -1.4349 -0.1253
   71CHL1  H21B 7714   1.890   4.645   7.635  0.0828 -0.1271 -0.5562
   71CHL1  H21C 7715   1.964   4.559   7.776 -0.4297  1.2030 -0.2660
   71CHL1   C22 7716   2.187   4.584   7.620 -0.2973  0.3845  0.3016
   71CHL1  H22A 7717   2.219   4.540   7.717  3.0621  0.5090 -0.7045
   71CHL1  H22B 7718   2.274   4.570   7.553  0.0627  0.2840  0.7923
   71CHL1   C23 7719   2.186   4.736   7.634 -0.5729 -0.2635  0.4688
   71CHL1  H23A 7720   2.186   4.791   7.537  1.9413 -0.3955  0.3501
   71CHL1  H23B 7721   2.098   4.766   7.695 -1.6467 -0.3400 -1.0278
   71CHL1   C24 7722   2.316   4.789   7.705  0.5410  0.4015  0.6187
   71CHL1  H24A 7723   2.347   4.710   7.778  2.7166  1.0029  0.3831
   71CHL1  H24B 7724   2.389   4.787   7.622 -0.0457 -0.5108  0.1102
   71CHL1   C25 7725   2.320   4.936   7.765  0.4535  0.1901  0.2452
   71CHL1   H25 7726   2.427   4.956   7.783  0.2379  0.8048  0.8704
   71CHL1   C26 7727   2.269   5.035   7.657 -0.6858  0.8242 -0.4892
   71CHL1  H26A 7728   2.302   5.010   7.554 -2.2988 -0.9851 -0.5949
   71CHL1  H26B 7729   2.158   5.025   7.651 -0.5209 -1.6667  0.2774
   71CHL1  H26C 7730   2.305   5.138   7.678  3.6651 -0.7929  0.4948
   71CHL1   C27 7731   2.235   4.970   7.894  0.5921 -0.3210 -0.4171
   71CHL1  H27A 7732   2.249   5.076   7.926 -1.6394  0.5244 -2.0871
   71CHL1  H27B 7733   2.126   4.953   7.889  0.5231 -0.6301  1.7978
   71CHL1  H27C 7734   2.265   4.907   7.980  0.2261  0.7433  0.5057
   72CHL1    C3 7735   2.247   2.874   7.043  0.1710 -0.2524  0.1630
   72CHL1    H3 7736   2.139   2.874   7.069 -0.4765 -0.4809 -2.4266
   72CHL1    O3 7737   2.258   2.846   6.902  0.0456 -0.5626  0.3450
   72CHL1   H3' 7738   2.350   2.824   6.888 -0.2051 -0.7542 -1.0817
   72CHL1    C4 7739   2.307   3.013   7.072 -0.1365  0.0022 -0.6605
   72CHL1   H4A 7740   2.412   3.020   7.036  1.3007 -0.5172  3.1861
   72CHL1   H4B 7741   2.250   3.084   7.008  2.3102  1.6877 -1.0404
   72CHL1    C5 7742   2.299   3.057   7.215 -0.2490 -0.0398 -0.2375
   72CHL1    C6 7743   2.241   3.169   7.251  0.0328  0.0369  0.0109
   72CHL1    H6 7744   2.207   3.234   7.170 -2.4976 -0.4025  0.6939
   72CHL1    C7 7745   2.241   3.216   7.397 -0.2682  0.0632 -0.4001
   72CHL1   H7A 7746   2.280   3.319   7.411  0.1870 -0.0801 -0.5907
   72CHL1   H7B 7747   2.139   3.213   7.441 -0.7023 -1.4693 -1.4723
   72CHL1    C8 7748   2.330   3.128   7.498 -0.0086 -0.3370  0.3501
   72CHL1    H8 7749   2.436   3.151   7.475 -0.4527  0.7610 -0.6160
   72CHL1   C14 7750   2.292   3.145   7.637  0.1881  0.3311  0.5827
   72CHL1   H14 7751   2.183   3.122   7.639  0.4501 -0.8956  1.2128
   72CHL1   C15 7752   2.310   3.287   7.686  0.7526  0.2102  0.9918
   72CHL1  H15A 7753   2.406   3.317   7.641  0.7520 -0.8923  0.2300
   72CHL1  H15B 7754   2.236   3.362   7.653 -0.3524 -1.9513 -1.6091
   72CHL1   C16 7755   2.316   3.269   7.836 -0.4320 -0.6650 -0.7633
   72CHL1  H16A 7756   2.408   3.313   7.880 -1.2619 -0.9880  1.3321
   72CHL1  H16B 7757   2.229   3.323   7.878 -0.4102  0.0783 -1.6658
   72CHL1   C17 7758   2.332   3.116   7.868 -0.1396 -0.1104  0.3169
   72CHL1   H17 7759   2.233   3.070   7.889  0.4686 -2.2505 -1.2699
   72CHL1   C13 7760   2.372   3.060   7.737  0.4424 -0.2317  0.1382
   72CHL1   C18 7761   2.522   3.077   7.714  0.0153  0.0916 -0.4123
   72CHL1  H18A 7762   2.561   3.052   7.613  1.3237  0.9388 -0.1274
   72CHL1  H18B 7763   2.537   3.183   7.745 -0.8325  0.4586 -1.2097
   72CHL1  H18C 7764   2.593   3.021   7.778  0.2523  0.7415 -0.1038
   72CHL1   C12 7765   2.334   2.913   7.717 -0.2861  0.4415 -0.0977
   72CHL1  H12A 7766   2.390   2.844   7.783 -2.8338 -0.4939  1.1487
   72CHL1  H12B 7767   2.227   2.892   7.735  0.1714 -0.0778  2.2969
   72CHL1   C11 7768   2.374   2.883   7.568 -0.0394 -0.0083  0.2815
   72CHL1  H11A 7769   2.484   2.888   7.560 -0.1382  2.4563  0.0523
   72CHL1  H11B 7770   2.332   2.782   7.548  2.4539 -0.7716 -1.3904
   72CHL1    C9 7771   2.315   2.984   7.458 -0.9594 -0.1399  0.2097
   72CHL1    H9 7772   2.205   2.967   7.459 -1.2213  1.5039  0.4113
   72CHL1   C10 7773   2.356   2.948   7.313  0.2266  0.3712  0.3379
   72CHL1   C19 7774   2.508   2.939   7.299 -0.4957 -0.1049 -0.3741
   72CHL1  H19A 7775   2.531   2.930   7.191  1.6329  2.0793 -0.1386
   72CHL1  H19B 7776   2.559   3.021   7.354  0.9735 -1.1541 -0.1297
   72CHL1  H19C 7777   2.539   2.842   7.343  1.9921  0.1968 -1.3616
   72CHL1    C1 7778   2.302   2.806   7.271 -0.1479  0.1734  0.1255
   72CHL1   H1A 7779   2.365   2.731   7.323  2.1103  2.4736  0.8124
   72CHL1   H1B 7780   2.196   2.795   7.303  0.2003  0.7095  1.5031
   72CHL1    C2 7781   2.312   2.759   7.126  0.3190  0.1306 -0.3078
   72CHL1   H2A 7782   2.281   2.656   7.099 -0.4924  0.0936  0.6920
   72CHL1   H2B 7783   2.420   2.760   7.103  0.8273 -0.4358  1.8689
   72CHL1   C20 7784   2.415   3.087   7.997  0.4027  0.0262 -0.4782
   72CHL1   H20 7785   2.522   3.116   7.994  0.3584  0.0274 -2.2993
   72CHL1   C21 7786   2.421   2.935   8.019 -0.3476  0.1093  0.5360
   72CHL1  H21A 7787   2.328   2.874   8.018  0.5897 -1.3599 -0.9940
   72CHL1  H21B 7788   2.478   2.918   8.113 -3.0133 -0.5828  2.0852
   72CHL1  H21C 7789   2.489   2.895   7.941  0.5455 -1.4928  2.0971
   72CHL1   C22 7790   2.338   3.163   8.113 -0.6320 -0.6423 -0.0737
   72CHL1  H22A 7791   2.317   3.270   8.094 -2.5594 -0.6690  1.7367
   72CHL1  H22B 7792   2.239   3.113   8.123 -0.9733 -0.3518 -1.8518
   72CHL1   C23 7793   2.393   3.148   8.252 -0.7969 -0.0221 -0.3832
   72CHL1  H23A 7794   2.412   3.042   8.279  0.9854  0.3364 -0.1134
   72CHL1  H23B 7795   2.491   3.201   8.258 -0.9787  0.1395  1.5901
   72CHL1   C24 7796   2.296   3.207   8.356  0.0708 -0.0055 -0.1389
   72CHL1  H24A 7797   2.274   3.311   8.324  1.8181  0.7137  0.9033
   72CHL1  H24B 7798   2.198   3.154   8.353 -0.0525  0.1015  1.6116
   72CHL1   C25 7799   2.340   3.194   8.508  0.4611  0.0365  0.7012
   72CHL1   H25 7800   2.366   3.086   8.520 -2.0864 -0.8110 -0.9906
   72CHL1   C26 7801   2.471   3.284   8.526  0.1712 -0.3532 -0.3269
   72CHL1  H26A 7802   2.522   3.271   8.624 -0.8943 -3.1963 -0.1055
   72CHL1  H26B 7803   2.548   3.256   8.450 -0.6708  0.1269 -1.3688
   72CHL1  H26C 7804   2.441   3.391   8.517 -0.9959 -0.6561  0.0075
   72CHL1   C27 7805   2.215   3.240   8.591 -0.2106 -0.2124 -0.4768
   72CHL1  H27A 7806   2.247   3.290   8.685  2.3694 -1.8014 -0.4550
   72CHL1  H27B 7807   2.164   3.318   8.530 -1.3571 -1.6668 -1.4280
   72CHL1  H27C 7808   2.144   3.156   8.603  0.1110 -0.4964 -0.5611
   73CHL1    C3 7809   1.925   5.972   6.898  0.2502  0.1075  0.1211
   73CHL1    H3 7810   1.988   5.880   6.901 -0.0919 -0.2045 -1.9092
   73CHL1    O3 7811   1.895   5.998   6.766  0.1043 -0.1893  0.4431
   73CHL1   H3' 7812   1.874   6.091   6.760 -0.1701 -0.0880  2.8092
   73CHL1    C4 7813   1.792   5.952   6.974 -0.1327 -0.3425  0.3490
   73CHL1   H4A 7814   1.725   6.039   6.956 -1.0906 -0.3825  3.3466
   73CHL1   H4B 7815   1.739   5.866   6.928  1.1089 -0.8467 -0.1505
   73CHL1    C5 7816   1.816   5.930   7.127 -0.0730 -0.0767  0.1227
   73CHL1    C6 7817   1.767   5.819   7.184 -0.4400  0.5850 -0.2621
   73CHL1    H6 7818   1.707   5.755   7.117  0.6157  0.5247 -1.1635
   73CHL1    C7 7819   1.774   5.788   7.328  0.0015  0.7373 -0.6949
   73CHL1   H7A 7820   1.670   5.773   7.362  1.0132 -0.4699  2.0017
   73CHL1   H7B 7821   1.837   5.698   7.344 -0.3952  0.4771 -0.5968
   73CHL1    C8 7822   1.844   5.900   7.410  0.3003 -0.1579  0.3074
   73CHL1    H8 7823   1.762   5.969   7.436 -2.0213 -2.5185 -0.4901
   73CHL1   C14 7824   1.902   5.839   7.540 -0.2635 -0.2829 -0.4544
   73CHL1   H14 7825   1.989   5.780   7.503  0.0481  0.6336 -1.2133
   73CHL1   C15 7826   1.813   5.753   7.627 -0.2658  0.1770  0.0003
   73CHL1  H15A 7827   1.706   5.781   7.639 -1.2060 -3.4262  0.5230
   73CHL1  H15B 7828   1.808   5.652   7.581  0.9068  0.3036 -0.4157
   73CHL1   C16 7829   1.882   5.755   7.767  0.2346 -0.1477 -0.2368
   73CHL1  H16A 7830   1.801   5.785   7.836  0.9537  2.2920 -0.4324
   73CHL1  H16B 7831   1.914   5.655   7.804 -1.0706 -0.2984  0.5148
   73CHL1   C17 7832   2.002   5.852   7.756 -0.9489 -0.3315 -0.3680
   73CHL1   H17 7833   2.083   5.784   7.721  0.7658  1.5050 -0.0259
   73CHL1   C13 7834   1.959   5.944   7.638  0.3122  0.4061  0.4922
   73CHL1   C18 7835   1.850   6.043   7.687 -0.1195 -0.5286 -0.2050
   73CHL1  H18A 7836   1.768   5.996   7.746  0.5924  0.3364  1.5339
   73CHL1  H18B 7837   1.899   6.124   7.745 -0.3432 -1.7052  1.6880
   73CHL1  H18C 7838   1.805   6.095   7.600 -1.2560 -1.4366 -0.1663
   73CHL1   C12 7839   2.080   6.009   7.563 -0.0622  1.1228 -0.1482
   73CHL1  H12A 7840   2.126   6.094   7.618 -1.8755  1.4191  0.9357
   73CHL1  H12B 7841   2.162   5.935   7.555 -1.4056 -0.2629 -1.3177
   73CHL1   C11 7842   2.031   6.071   7.433  0.6066 -0.3046  0.4632
   73CHL1  H11A 7843   1.972   6.163   7.452  1.7239  0.4767  0.2170
   73CHL1  H11B 7844   2.120   6.113   7.381 -1.4470  3.9408  0.1607
   73CHL1    C9 7845   1.963   5.968   7.342  0.1714  0.3544  0.1521
   73CHL1    H9 7846   2.035   5.887   7.320 -0.5255 -0.1167 -0.4232
   73CHL1   C10 7847   1.919   6.024   7.202 -0.7002 -0.0917  0.3493
   73CHL1   C19 7848   1.840   6.157   7.220 -0.1510 -0.6629 -0.4872
   73CHL1  H19A 7849   1.746   6.146   7.277 -0.2524  0.3972 -0.4530
   73CHL1  H19B 7850   1.907   6.227   7.273  1.4543 -2.2339 -0.3751
   73CHL1  H19C 7851   1.823   6.203   7.120 -0.8851 -1.4330 -0.7235
   73CHL1    C1 7852   2.036   6.042   7.108 -0.4276  0.4884 -0.2728
   73CHL1   H1A 7853   2.091   6.125   7.156  1.7363  0.4430 -2.5538
   73CHL1   H1B 7854   2.103   5.958   7.135 -0.9233  0.0984 -0.2565
   73CHL1    C2 7855   2.008   6.077   6.961 -0.5047  0.0166  0.6012
   73CHL1   H2A 7856   2.105   6.092   6.909 -1.4224  0.5422 -1.0073
   73CHL1   H2B 7857   1.951   6.172   6.951 -3.6249 -1.7804  0.7508
   73CHL1   C20 7858   2.044   5.925   7.892 -0.9846 -0.0470  0.4060
   73CHL1   H20 7859   1.982   6.017   7.891  0.4876  1.0119  2.5249
   73CHL1   C21 7860   2.195   5.973   7.877 -0.4318  0.5383 -0.7419
   73CHL1  H21A 7861   2.180   6.053   7.801  0.1536  1.6445  0.2937
   73CHL1  H21B 7862   2.249   5.884   7.836  2.8940  1.1670  2.0855
   73CHL1  H21C 7863   2.240   6.017   7.968  1.2607  1.0398 -1.7753
   73CHL1   C22 7864   2.020   5.857   8.027 -0.9060  0.0949 -0.5495
   73CHL1  H22A 7865   2.056   5.930   8.103  1.4685  1.0641 -2.4947
   73CHL1  H22B 7866   1.911   5.839   8.029 -0.9799  0.5277 -0.5880
   73CHL1   C23 7867   2.095   5.727   8.052 -0.9189  0.2655 -0.2006
   73CHL1  H23A 7868   2.101   5.664   7.961 -0.4422  0.2693 -0.1718
   73CHL1  H23B 7869   2.199   5.757   8.077 -0.3382 -0.4872 -1.6690
   73CHL1   C24 7870   2.035   5.654   8.171  0.0657 -0.3302 -0.3720
   73CHL1  H24A 7871   1.977   5.730   8.228  1.4697  1.0304 -0.7084
   73CHL1  H24B 7872   1.954   5.591   8.128  0.9402 -0.4726 -1.8357
   73CHL1   C25 7873   2.141   5.582   8.260  0.7404 -0.3955  0.4286
   73CHL1   H25 7874   2.200   5.513   8.196  0.8393  0.9731 -0.9801
   73CHL1   C26 7875   2.235   5.681   8.325 -0.4230 -0.9243  0.3521
   73CHL1  H26A 7876   2.189   5.744   8.404  2.2482  1.0173  0.4564
   73CHL1  H26B 7877   2.313   5.641   8.393  1.6354  1.1545 -0.6912
   73CHL1  H26C 7878   2.288   5.751   8.256 -0.9161 -0.3601  0.5385
   73CHL1   C27 7879   2.065   5.505   8.369 -0.0501 -0.6436 -0.3203
   73CHL1  H27A 7880   2.129   5.448   8.439 -1.1189 -1.4969 -0.0251
   73CHL1  H27B 7881   2.014   5.573   8.441 -0.2292  0.3394 -1.3563
   73CHL1  H27C 7882   1.986   5.441   8.323 -1.1449  1.5490 -1.5987
   74CHL1    C3 7883   0.647   4.764   6.918 -0.2732  0.1736  0.7248
   74CHL1    H3 7884   0.572   4.826   6.972 -1.0739  0.5234 -0.7667
   74CHL1    O3 7885   0.655   4.831   6.792 -0.2717  0.2016  0.0230
   74CHL1   H3' 7886   0.731   4.802   6.740  0.7057  0.6740  1.1520
   74CHL1    C4 7887   0.781   4.771   6.986  0.0568 -0.0763  0.1834
   74CHL1   H4A 7888   0.852   4.734   6.909  2.5243  0.8268  1.9802
   74CHL1   H4B 7889   0.814   4.874   7.010 -0.0802 -0.0088  0.0779
   74CHL1    C5 7890   0.775   4.688   7.112  0.2450  0.2854 -0.6680
   74CHL1    C6 7891   0.793   4.742   7.234 -0.5867  0.5090 -0.2488
   74CHL1    H6 7892   0.814   4.848   7.211  2.7578  0.1744  1.1194
   74CHL1    C7 7893   0.795   4.664   7.363  0.0313  0.0842  0.1990
   74CHL1   H7A 7894   0.872   4.698   7.436 -2.0227 -0.4774  2.6925
   74CHL1   H7B 7895   0.703   4.686   7.421 -2.2519 -2.1636 -2.4368
   74CHL1    C8 7896   0.814   4.512   7.345  0.1687 -0.0622  0.3477
   74CHL1    H8 7897   0.922   4.504   7.324 -0.3153 -1.9012 -1.5224
   74CHL1   C14 7898   0.784   4.438   7.472 -0.4889 -0.5812 -0.1046
   74CHL1   H14 7899   0.678   4.462   7.495 -0.2728 -0.7438  1.1166
   74CHL1   C15 7900   0.874   4.467   7.595  0.6126  0.4813  0.2179
   74CHL1  H15A 7901   0.980   4.445   7.572  0.5103 -2.4225  2.2507
   74CHL1  H15B 7902   0.860   4.568   7.640  2.2100  0.2521  1.2795
   74CHL1   C16 7903   0.825   4.362   7.687  0.6329 -0.0073 -0.1177
   74CHL1  H16A 7904   0.912   4.304   7.723 -1.1874 -1.2148  2.4789
   74CHL1  H16B 7905   0.774   4.406   7.775 -0.8804  2.6260 -2.2232
   74CHL1   C17 7906   0.739   4.256   7.606  0.1233 -0.0112 -0.1708
   74CHL1   H17 7907   0.631   4.279   7.615 -0.2043 -0.7168 -2.0258
   74CHL1   C13 7908   0.783   4.288   7.460 -0.2884  0.5765 -0.0599
   74CHL1   C18 7909   0.924   4.226   7.429 -0.5927 -0.2101  0.3786
   74CHL1  H18A 7910   0.920   4.115   7.429 -2.9220 -0.1646 -0.9335
   74CHL1  H18B 7911   0.963   4.264   7.332  1.5899  1.4854  1.8640
   74CHL1  H18C 7912   0.999   4.260   7.503 -0.4758  2.3002 -0.8578
   74CHL1   C12 7913   0.684   4.240   7.350  0.3217  0.4427 -0.2566
   74CHL1  H12A 7914   0.688   4.130   7.342  0.7894  0.5322 -1.2474
   74CHL1  H12B 7915   0.580   4.260   7.384 -0.0564 -0.0316 -1.1419
   74CHL1   C11 7916   0.713   4.308   7.222 -0.2616 -0.7717 -0.3039
   74CHL1  H11A 7917   0.806   4.265   7.180 -0.4423 -0.7921 -0.6899
   74CHL1  H11B 7918   0.627   4.289   7.153 -0.2021 -1.1862 -0.2643
   74CHL1    C9 7919   0.729   4.465   7.229  0.9018 -0.3796  0.0745
   74CHL1    H9 7920   0.627   4.496   7.261  0.4719  0.4394 -2.0260
   74CHL1   C10 7921   0.753   4.540   7.090 -0.2968  0.3403  0.2133
   74CHL1   C19 7922   0.879   4.485   7.011 -0.1123 -0.6949  0.0235
   74CHL1  H19A 7923   0.973   4.498   7.069  1.8680  1.6904 -3.5729
   74CHL1  H19B 7924   0.863   4.376   6.999  0.3393 -0.9486  1.5195
   74CHL1  H19C 7925   0.905   4.531   6.914  1.7135  0.5602  1.0708
   74CHL1    C1 7926   0.621   4.527   7.010  0.5741  0.2430  0.2088
   74CHL1   H1A 7927   0.610   4.423   6.972 -0.3592  0.3774  0.1047
   74CHL1   H1B 7928   0.533   4.553   7.072  2.5385  1.0595  2.7534
   74CHL1    C2 7929   0.613   4.616   6.883 -0.0453  0.1573 -0.0253
   74CHL1   H2A 7930   0.514   4.593   6.839 -0.3689 -0.1933  0.8781
   74CHL1   H2B 7931   0.695   4.579   6.817  0.7500  0.1977  0.9346
   74CHL1   C20 7932   0.742   4.111   7.673 -0.7085 -0.2921  0.0829
   74CHL1   H20 7933   0.850   4.088   7.689 -0.7392 -2.4308 -2.3701
   74CHL1   C21 7934   0.679   3.995   7.586 -0.4218  0.4375  0.2145
   74CHL1  H21A 7935   0.571   4.004   7.564 -0.4268  0.3869  0.2171
   74CHL1  H21B 7936   0.706   3.896   7.631 -0.2779 -0.5086 -1.8854
   74CHL1  H21C 7937   0.728   4.002   7.487  1.0616  2.0730  1.0332
   74CHL1   C22 7938   0.682   4.111   7.816  0.3724  0.0095 -0.1731
   74CHL1  H22A 7939   0.677   4.210   7.865 -1.2704  1.0499 -2.3416
   74CHL1  H22B 7940   0.578   4.071   7.818  0.0483  0.8321 -0.1367
   74CHL1   C23 7941   0.761   4.029   7.920 -0.2132  0.1834 -0.1358
   74CHL1  H23A 7942   0.754   3.925   7.881  0.2663 -0.5933  1.7983
   74CHL1  H23B 7943   0.866   4.065   7.920  0.3061 -1.1515 -2.9859
   74CHL1   C24 7944   0.708   4.026   8.058 -0.0044 -0.0493  0.2154
   74CHL1  H24A 7945   0.692   4.132   8.087 -1.0736 -0.2892  0.5356
   74CHL1  H24B 7946   0.611   3.972   8.047  0.6904 -1.8800  2.7426
   74CHL1   C25 7947   0.788   3.959   8.166  0.8235  0.4786  0.0235
   74CHL1   H25 7948   0.886   4.011   8.169  0.4000  1.2205  1.1471
   74CHL1   C26 7949   0.721   3.972   8.302 -0.5242 -1.1322  0.2759
   74CHL1  H26A 7950   0.697   4.078   8.321  2.0028  0.0011 -2.4148
   74CHL1  H26B 7951   0.624   3.918   8.297 -1.5023  0.4987  1.3298
   74CHL1  H26C 7952   0.777   3.920   8.382  0.2394  1.2286  1.2966
   74CHL1   C27 7953   0.820   3.810   8.133  0.1609  0.9535  0.2270
   74CHL1  H27A 7954   0.856   3.752   8.221 -2.7530  0.5496  1.2059
   74CHL1  H27B 7955   0.724   3.767   8.097 -0.4544  1.3337  1.3770
   74CHL1  H27C 7956   0.898   3.816   8.054  0.0615 -0.4069  0.0068
   75CHL1    C3 7957   4.252   6.817   6.738 -0.6197 -0.4522 -0.4832
   75CHL1    H3 7958   4.276   6.924   6.717  1.0716 -0.8775 -0.8084
   75CHL1    O3 7959   4.232   6.742   6.617  0.3833  0.1267 -0.1420
   75CHL1   H3' 7960   4.154   6.780   6.576 -0.1456  0.4725  1.1538
   75CHL1    C4 7961   4.362   6.755   6.825 -0.5191 -0.7079  0.3658
   75CHL1   H4A 7962   4.342   6.646   6.835 -2.2916 -0.4145  0.1429
   75CHL1   H4B 7963   4.457   6.771   6.769 -1.5465  0.8707 -0.9636
   75CHL1    C5 7964   4.370   6.819   6.961 -0.5497 -0.6763  0.3200
   75CHL1    C6 7965   4.492   6.869   7.007 -0.0394 -0.1536  0.3945
   75CHL1    H6 7966   4.574   6.878   6.934 -1.6567 -0.9529 -1.5585
   75CHL1    C7 7967   4.512   6.924   7.147  0.7976 -0.3840  0.2986
   75CHL1   H7A 7968   4.616   6.917   7.186  1.1465  1.6094 -0.2162
   75CHL1   H7B 7969   4.497   7.034   7.141  1.1101 -0.2259  2.1528
   75CHL1    C8 7970   4.399   6.866   7.242 -0.0128  0.6894  0.1772
   75CHL1    H8 7971   4.410   6.758   7.262 -1.1357  0.7832  1.3231
   75CHL1   C14 7972   4.404   6.949   7.370  0.0606  0.0427 -0.0182
   75CHL1   H14 7973   4.390   7.052   7.333  1.7594 -0.1268 -1.2066
   75CHL1   C15 7974   4.537   6.952   7.442  0.2964 -0.1912  0.3216
   75CHL1  H15A 7975   4.575   6.847   7.441  0.0005 -0.2958 -0.2208
   75CHL1  H15B 7976   4.618   7.016   7.402 -0.2867  0.8538  0.7871
   75CHL1   C16 7977   4.505   6.992   7.582 -0.4297  0.6361  0.2275
   75CHL1  H16A 7978   4.534   6.908   7.650 -0.0725  0.9104  0.4193
   75CHL1  H16B 7979   4.564   7.080   7.615  0.9345 -0.3654  0.5062
   75CHL1   C17 7980   4.344   7.005   7.590  0.2866 -0.5659  0.2683
   75CHL1   H17 7981   4.324   7.109   7.557 -1.0749 -1.0022 -0.3139
   75CHL1   C13 7982   4.288   6.923   7.474 -0.5024  1.3723 -0.0883
   75CHL1   C18 7983   4.284   6.778   7.522  0.1062  0.2214 -0.4602
   75CHL1  H18A 7984   4.199   6.769   7.592 -1.5270 -0.4155 -2.4845
   75CHL1  H18B 7985   4.256   6.714   7.436  0.8112  0.2570 -0.7211
   75CHL1  H18C 7986   4.375   6.733   7.567 -0.8261 -2.2456 -0.9960
   75CHL1   C12 7987   4.157   6.961   7.412 -0.0766  0.8385 -0.3053
   75CHL1  H12A 7988   4.075   6.928   7.479 -0.9873 -0.2043 -1.9001
   75CHL1  H12B 7989   4.148   7.070   7.396 -2.3000  0.7918  0.6068
   75CHL1   C11 7990   4.140   6.880   7.280  0.3309 -0.6653  0.0864
   75CHL1  H11A 7991   4.124   6.774   7.310 -0.8281 -1.6562 -3.7580
   75CHL1  H11B 7992   4.047   6.914   7.230  1.3029  0.7452 -0.7884
   75CHL1    C9 7993   4.258   6.897   7.179 -0.6887  0.4724  0.2607
   75CHL1    H9 7994   4.262   7.006   7.156  0.0892  0.9095  2.3658
   75CHL1   C10 7995   4.242   6.822   7.041  0.0008 -0.8099 -0.1600
   75CHL1   C19 7996   4.195   6.677   7.068  0.2958  0.3609 -0.3378
   75CHL1  H19A 7997   4.092   6.671   7.109  1.1307  1.8743  2.0912
   75CHL1  H19B 7998   4.208   6.608   6.982  1.9764 -1.1163  1.0541
   75CHL1  H19C 7999   4.259   6.649   7.155  1.7871 -0.7748 -1.7791
   75CHL1    C1 8000   4.133   6.885   6.950 -0.3824  0.0824 -0.3165
   75CHL1   H1A 8001   4.036   6.873   7.002  0.0001  0.0865  0.4095
   75CHL1   H1B 8002   4.170   6.989   6.938  1.0689 -0.4627 -0.7316
   75CHL1    C2 8003   4.120   6.819   6.816  0.3221  0.3111 -0.4312
   75CHL1   H2A 8004   4.044   6.882   6.766  0.8069  1.1259 -0.1615
   75CHL1   H2B 8005   4.096   6.711   6.825  1.1637  0.1449 -0.0880
   75CHL1   C20 8006   4.270   6.990   7.724 -0.7552 -0.0295  0.3507
   75CHL1   H20 8007   4.166   6.955   7.710 -1.0247  0.6111  0.7179
   75CHL1   C21 8008   4.248   7.134   7.784  0.0347 -0.2381 -0.1417
   75CHL1  H21A 8009   4.346   7.183   7.802 -0.1712 -0.0268  0.4384
   75CHL1  H21B 8010   4.195   7.123   7.881  1.3099  2.9992  0.9857
   75CHL1  H21C 8011   4.189   7.204   7.722 -2.9420 -1.4945  1.1312
   75CHL1   C22 8012   4.351   6.904   7.832  0.4340  0.9640  0.0942
   75CHL1  H22A 8013   4.379   6.817   7.770  2.5972  0.3488  1.8790
   75CHL1  H22B 8014   4.438   6.972   7.844  0.7704  0.4453  0.6064
   75CHL1   C23 8015   4.291   6.854   7.968  0.1856 -0.1008  1.2481
   75CHL1  H23A 8016   4.367   6.798   8.026  0.7313  0.8617  1.4583
   75CHL1  H23B 8017   4.257   6.944   8.023  1.3583  2.4208 -1.9762
   75CHL1   C24 8018   4.163   6.773   7.933 -0.5959  0.5131 -0.2973
   75CHL1  H24A 8019   4.086   6.840   7.888 -0.5183  0.4230 -0.5674
   75CHL1  H24B 8020   4.199   6.691   7.868  1.4420  0.3875  0.9273
   75CHL1   C25 8021   4.112   6.700   8.059 -0.5609 -0.0412  0.2610
   75CHL1   H25 8022   4.207   6.664   8.104 -0.5907 -0.2085  0.1922
   75CHL1   C26 8023   4.048   6.793   8.167 -0.2144  0.4385  0.3605
   75CHL1  H26A 8024   4.132   6.833   8.226 -0.1555  0.2499  0.4045
   75CHL1  H26B 8025   3.989   6.875   8.119  0.3275 -0.8783 -2.6612
   75CHL1  H26C 8026   3.998   6.737   8.249  1.3700  0.1613  1.1426
   75CHL1   C27 8027   4.021   6.582   8.024 -0.2788  0.5230 -0.5306
   75CHL1  H27A 8028   3.929   6.622   7.976  0.8795  2.5010 -1.1820
   75CHL1  H27B 8029   4.073   6.517   7.950 -1.1019 -1.4323  0.5578
   75CHL1  H27C 8030   3.992   6.522   8.113  1.0869  1.3124  0.4679
   76CHL1    C3 8031   1.160   0.913   7.235  0.0929  0.6477 -0.4228
   76CHL1    H3 8032   1.236   0.841   7.273  2.4594  0.7772 -4.6662
   76CHL1    O3 8033   1.140   0.892   7.102  0.3149  0.3719  0.5829
   76CHL1   H3' 8034   1.068   0.829   7.090  1.2896 -0.7350  0.4830
   76CHL1    C4 8035   1.018   0.896   7.304 -0.4468 -0.5856 -0.1331
   76CHL1   H4A 8036   0.946   0.966   7.256 -0.2078 -1.1777 -1.3675
   76CHL1   H4B 8037   0.987   0.790   7.291 -1.8261 -0.4019  1.4595
   76CHL1    C5 8038   1.032   0.937   7.454  0.9582 -0.9077  0.7145
   76CHL1    C6 8039   0.993   0.852   7.549 -0.2076  0.0183 -0.2501
   76CHL1    H6 8040   0.941   0.757   7.529 -1.6775  0.7631  0.0372
   76CHL1    C7 8041   1.020   0.874   7.696 -0.0056 -0.4007 -0.2814
   76CHL1   H7A 8042   0.931   0.833   7.749 -0.9458  0.4124 -1.1877
   76CHL1   H7B 8043   1.108   0.810   7.717 -1.9988 -2.9728  0.4352
   76CHL1    C8 8044   1.040   1.020   7.720 -0.1045  0.5964 -0.2988
   76CHL1    H8 8045   0.942   1.071   7.708 -0.6003  0.2403  1.9759
   76CHL1   C14 8046   1.080   1.047   7.863 -0.6043 -0.1289 -0.1934
   76CHL1   H14 8047   1.185   1.011   7.874 -0.7270 -0.6455 -0.6765
   76CHL1   C15 8048   0.994   0.969   7.969 -0.4325  0.1176  0.1365
   76CHL1  H15A 8049   0.888   0.990   7.942 -0.3664 -0.5610 -0.6561
   76CHL1  H15B 8050   1.012   0.859   7.969  3.5337  0.6894  0.0614
   76CHL1   C16 8051   1.028   1.049   8.091  0.1488  0.0467  0.0716
   76CHL1  H16A 8052   0.928   1.068   8.137  0.0210 -1.0546  0.2520
   76CHL1  H16B 8053   1.095   0.990   8.157  0.4212 -0.7997 -0.9515
   76CHL1   C17 8054   1.104   1.188   8.048 -0.4007 -0.1878 -0.7108
   76CHL1   H17 8055   1.209   1.159   8.069  0.0542  0.3808 -2.1289
   76CHL1   C13 8056   1.077   1.192   7.899  0.2738 -0.5915  0.3368
   76CHL1   C18 8057   0.938   1.260   7.881 -0.8467 -0.4554 -0.3115
   76CHL1  H18A 8058   0.906   1.268   7.774  0.4092 -1.4556 -0.7691
   76CHL1  H18B 8059   0.859   1.211   7.942  1.1844  0.1809  2.9158
   76CHL1  H18C 8060   0.937   1.368   7.906 -1.5708 -0.7790  1.1197
   76CHL1   C12 8061   1.186   1.263   7.815  0.0334  0.1490 -0.0420
   76CHL1  H12A 8062   1.186   1.372   7.834  0.0868  0.2668 -0.7131
   76CHL1  H12B 8063   1.280   1.225   7.862  1.4333  3.5950  0.0930
   76CHL1   C11 8064   1.169   1.234   7.659 -0.0742  0.2773 -0.1752
   76CHL1  H11A 8065   1.079   1.294   7.634  0.1784 -0.5151 -3.1036
   76CHL1  H11B 8066   1.259   1.271   7.605  0.7143 -0.9646  0.2562
   76CHL1    C9 8067   1.139   1.086   7.628  0.4625  0.8971  0.0066
   76CHL1    H9 8068   1.234   1.030   7.639  0.4318  0.7213 -0.6311
   76CHL1   C10 8069   1.106   1.067   7.480 -0.9427  0.0228  0.2008
   76CHL1   C19 8070   1.018   1.187   7.430 -0.4764  0.2919 -0.1674
   76CHL1  H19A 8071   0.930   1.210   7.494 -1.9429 -2.2760 -1.1722
   76CHL1  H19B 8072   1.085   1.274   7.412 -0.4471  0.4972  0.8640
   76CHL1  H19C 8073   0.977   1.162   7.330  1.2282 -0.6343 -0.6622
   76CHL1    C1 8074   1.237   1.083   7.404 -0.0294 -0.4325  0.1071
   76CHL1   H1A 8075   1.290   1.180   7.416 -1.2773  0.2441  0.1685
   76CHL1   H1B 8076   1.308   1.006   7.443  0.8324  0.3943  0.1711
   76CHL1    C2 8077   1.217   1.061   7.252  0.2172 -0.0581 -0.0044
   76CHL1   H2A 8078   1.317   1.066   7.203 -0.2564  1.3018 -0.8592
   76CHL1   H2B 8079   1.148   1.123   7.191  0.3682 -0.7176 -0.8547
   76CHL1   C20 8080   1.074   1.313   8.133 -0.4136 -1.1816  0.1176
   76CHL1   H20 8081   0.976   1.352   8.100 -0.2402  0.8662  1.8585
   76CHL1   C21 8082   1.192   1.417   8.130  0.0329 -0.2664  0.6455
   76CHL1  H21A 8083   1.290   1.369   8.152  1.3203  1.7090 -0.6517
   76CHL1  H21B 8084   1.175   1.495   8.208 -1.6508 -0.9442  0.9757
   76CHL1  H21C 8085   1.202   1.470   8.033  0.5450  1.3265  1.5328
   76CHL1   C22 8086   1.051   1.271   8.279 -0.1385  0.0308  0.5456
   76CHL1  H22A 8087   0.959   1.210   8.285  0.3499 -0.5774  1.9709
   76CHL1  H22B 8088   1.143   1.218   8.312  0.6147  0.1387 -1.2960
   76CHL1   C23 8089   1.018   1.394   8.375 -0.0442  0.0472 -0.4278
   76CHL1  H23A 8090   1.111   1.445   8.407 -0.6559  0.6320  0.4459
   76CHL1  H23B 8091   0.952   1.466   8.322  1.5470  0.9526 -1.2012
   76CHL1   C24 8092   0.958   1.341   8.511  0.8418 -0.2401  0.7890
   76CHL1  H24A 8093   0.878   1.268   8.487 -0.5543  1.5113  0.0052
   76CHL1  H24B 8094   1.025   1.268   8.561  0.4072 -0.3245  1.2585
   76CHL1   C25 8095   0.895   1.455   8.610  0.2386 -0.0418  1.0274
   76CHL1   H25 8096   0.799   1.494   8.570  1.1735  0.8351 -0.3952
   76CHL1   C26 8097   0.853   1.383   8.743 -0.0063  0.4976 -0.8244
   76CHL1  H26A 8098   0.795   1.292   8.718  0.7241 -0.9668  2.5004
   76CHL1  H26B 8099   0.934   1.360   8.816  0.2466 -2.2337 -1.8985
   76CHL1  H26C 8100   0.780   1.446   8.798  0.2487  2.4757 -2.6959
   76CHL1   C27 8101   0.998   1.568   8.630  0.2409 -0.3085 -1.0617
   76CHL1  H27A 8102   1.090   1.522   8.671 -0.8375  0.4301  2.3169
   76CHL1  H27B 8103   1.020   1.614   8.531  0.0397  1.3720 -0.3327
   76CHL1  H27C 8104   0.961   1.650   8.695  0.4112  0.0798 -1.4580
   77CHL1    C3 8105   2.277   6.515   6.799 -0.3374 -0.3073  0.8643
   77CHL1    H3 8106   2.369   6.573   6.824  2.0848 -2.6665 -2.1122
   77CHL1    O3 8107   2.302   6.474   6.665 -0.1890  0.1154 -0.4271
   77CHL1   H3' 8108   2.302   6.378   6.665 -2.8166  0.0398 -2.7915
   77CHL1    C4 8109   2.254   6.399   6.899 -0.3897 -0.4989  0.1855
   77CHL1   H4A 8110   2.194   6.318   6.851  0.9902 -1.8664  0.7220
   77CHL1   H4B 8111   2.356   6.356   6.908 -0.0877  0.1253 -0.2542
   77CHL1    C5 8112   2.207   6.432   7.040  0.4891  0.3013  0.3079
   77CHL1    C6 8113   2.276   6.389   7.143 -0.2439  0.1497  0.3519
   77CHL1    H6 8114   2.361   6.322   7.124 -0.2781 -0.1145  1.1066
   77CHL1    C7 8115   2.238   6.419   7.284  0.5332  0.5897  0.1611
   77CHL1   H7A 8116   2.235   6.324   7.342 -0.7890  0.0719 -0.7401
   77CHL1   H7B 8117   2.314   6.488   7.326  0.1580 -0.1745  2.1550
   77CHL1    C8 8118   2.095   6.480   7.296  0.2933 -0.0635 -0.1906
   77CHL1    H8 8119   2.031   6.389   7.300  0.4129 -0.1461 -0.1408
   77CHL1   C14 8120   2.089   6.543   7.431  0.5093  0.8816  0.1158
   77CHL1   H14 8121   2.146   6.638   7.424 -0.5233  1.4483 -0.8410
   77CHL1   C15 8122   2.144   6.471   7.555 -0.1938  0.1753  0.3564
   77CHL1  H15A 8123   2.100   6.370   7.566  1.3905 -0.3590  2.2238
   77CHL1  H15B 8124   2.255   6.469   7.569 -0.0652  3.2603  0.0212
   77CHL1   C16 8125   2.085   6.549   7.675  0.2590  0.0857 -0.2083
   77CHL1  H16A 8126   2.054   6.482   7.758 -1.4254 -1.8309 -2.2788
   77CHL1  H16B 8127   2.166   6.612   7.716  0.5941 -1.2420  1.2248
   77CHL1   C17 8128   1.967   6.633   7.613 -0.5293 -0.0709 -0.2396
   77CHL1   H17 8129   2.007   6.736   7.602 -2.8443  0.7816 -0.7973
   77CHL1   C13 8130   1.943   6.580   7.469  0.0895 -0.2219  0.1319
   77CHL1   C18 8131   1.852   6.452   7.473 -0.7563 -0.1795  0.4106
   77CHL1  H18A 8132   1.752   6.482   7.510  0.1096  0.6888  2.0931
   77CHL1  H18B 8133   1.838   6.418   7.368  2.5438 -0.0170 -0.1545
   77CHL1  H18C 8134   1.888   6.368   7.536 -0.7050 -0.2316  0.3123
   77CHL1   C12 8135   1.907   6.687   7.367 -0.4441  0.0999 -0.1404
   77CHL1  H12A 8136   1.807   6.734   7.379 -0.7310 -0.3874 -0.6148
   77CHL1  H12B 8137   1.977   6.769   7.396 -0.5280 -0.6440  2.2571
   77CHL1   C11 8138   1.915   6.652   7.219  0.2226  0.3807  0.6616
   77CHL1  H11A 8139   1.835   6.579   7.192 -1.9231  3.2011 -0.8970
   77CHL1  H11B 8140   1.915   6.741   7.153  1.5029  0.2132  0.4187
   77CHL1    C9 8141   2.054   6.581   7.188  0.4643  0.6213  0.0406
   77CHL1    H9 8142   2.132   6.660   7.201  2.2927 -1.2735  0.8337
   77CHL1   C10 8143   2.082   6.520   7.045 -0.5862  0.2394  0.0277
   77CHL1   C19 8144   1.957   6.449   6.998  0.2924 -0.0539 -0.2083
   77CHL1  H19A 8145   1.952   6.356   7.058  2.3563  0.2000  0.3950
   77CHL1  H19B 8146   1.863   6.505   7.018  1.9254  2.1311  1.6233
   77CHL1  H19C 8147   1.974   6.409   6.896  0.4400  0.6339 -0.4532
   77CHL1    C1 8148   2.121   6.640   6.950  0.0535  0.2065 -0.7594
   77CHL1   H1A 8149   2.039   6.714   6.953  0.0605  0.1986 -0.1496
   77CHL1   H1B 8150   2.208   6.694   6.993  1.0513 -1.6350 -0.4093
   77CHL1    C2 8151   2.152   6.611   6.803  0.2824 -0.0427  0.1011
   77CHL1   H2A 8152   2.172   6.707   6.751 -2.3542  2.1158  2.8970
   77CHL1   H2B 8153   2.067   6.568   6.745 -1.2613  3.0600 -0.0494
   77CHL1   C20 8154   1.846   6.654   7.706  0.0051  0.6280  0.0185
   77CHL1   H20 8155   1.801   6.552   7.716  1.6130 -0.4882 -3.2678
   77CHL1   C21 8156   1.736   6.738   7.644 -0.3148  0.4046  0.3499
   77CHL1  H21A 8157   1.655   6.723   7.719  1.1962 -1.2386  1.6945
   77CHL1  H21B 8158   1.695   6.723   7.542  1.1613 -1.3875  0.0060
   77CHL1  H21C 8159   1.771   6.843   7.655  3.1680 -0.6961  0.2539
   77CHL1   C22 8160   1.883   6.704   7.849  0.0122  0.4295  0.0569
   77CHL1  H22A 8161   1.973   6.649   7.882 -0.6001  0.1814  1.3320
   77CHL1  H22B 8162   1.896   6.814   7.855  0.5559  0.2669  2.0962
   77CHL1   C23 8163   1.782   6.651   7.952 -0.2172 -0.6279  0.0736
   77CHL1  H23A 8164   1.676   6.678   7.933 -0.0984  0.3430  0.7285
   77CHL1  H23B 8165   1.784   6.540   7.952 -1.8753 -0.6750  0.2576
   77CHL1   C24 8166   1.819   6.690   8.095  0.3916  0.4240 -0.7172
   77CHL1  H24A 8167   1.928   6.670   8.101  0.0476 -1.6547 -1.0165
   77CHL1  H24B 8168   1.800   6.799   8.110 -1.2352  0.2477 -1.3581
   77CHL1   C25 8169   1.748   6.603   8.199 -0.7001 -0.4570 -0.3705
   77CHL1   H25 8170   1.789   6.501   8.181  2.1673  1.2395 -3.9547
   77CHL1   C26 8171   1.777   6.660   8.335  0.1969 -0.4887 -0.2109
   77CHL1  H26A 8172   1.743   6.766   8.338  0.8114 -0.2612 -1.1531
   77CHL1  H26B 8173   1.726   6.598   8.412  1.0493  0.6892  1.3547
   77CHL1  H26C 8174   1.887   6.658   8.348  0.1124 -1.8558  0.4692
   77CHL1   C27 8175   1.593   6.602   8.174 -0.3822 -0.0809  0.5841
   77CHL1  H27A 8176   1.537   6.546   8.252  0.0287 -1.3459 -0.0189
   77CHL1  H27B 8177   1.552   6.705   8.190  0.3342  0.0436  1.7306
   77CHL1  H27C 8178   1.561   6.564   8.075  1.6559 -1.7628  0.5422
   78CHL1    C3 8179   3.736   1.044   6.735 -0.1672  0.6868  0.7924
   78CHL1    H3 8180   3.692   1.145   6.725  0.9462  1.1736  0.7049
   78CHL1    O3 8181   3.745   0.983   6.608 -0.1293  0.1574 -0.0896
   78CHL1   H3' 8182   3.793   1.041   6.548  0.4393  1.8954  1.9941
   78CHL1    C4 8183   3.871   1.042   6.797  0.3806 -0.3682 -0.3086
   78CHL1   H4A 8184   3.905   0.937   6.789  2.0879  0.1176  0.4090
   78CHL1   H4B 8185   3.934   1.110   6.737  0.7108 -0.5445 -0.1635
   78CHL1    C5 8186   3.873   1.065   6.949  0.5496  0.2860 -0.4471
   78CHL1    C6 8187   3.953   1.154   7.008  0.1515 -0.2635 -0.4634
   78CHL1    H6 8188   4.022   1.211   6.944 -1.8504  0.2365 -2.2323
   78CHL1    C7 8189   3.961   1.185   7.154 -0.0035  0.2394 -0.7020
   78CHL1   H7A 8190   4.064   1.169   7.194  0.2759  1.1050 -1.0695
   78CHL1   H7B 8191   3.933   1.291   7.172  0.3655  0.5454 -1.8542
   78CHL1    C8 8192   3.874   1.086   7.240  0.0189  0.5074  0.4859
   78CHL1    H8 8193   3.936   0.998   7.270 -0.6378 -0.5755 -1.2693
   78CHL1   C14 8194   3.833   1.150   7.374 -0.4426 -0.1539  0.5163
   78CHL1   H14 8195   3.757   1.226   7.346  1.0138  1.0302 -0.2752
   78CHL1   C15 8196   3.935   1.235   7.442 -0.1306  0.2872  0.7951
   78CHL1  H15A 8197   4.028   1.175   7.441  1.0060  2.0329  0.0261
   78CHL1  H15B 8198   3.966   1.332   7.398  2.4664 -1.0949 -0.5451
   78CHL1   C16 8199   3.882   1.250   7.588 -0.1698 -0.1604 -0.3235
   78CHL1  H16A 8200   3.948   1.205   7.665 -1.0201 -1.6297 -0.4341
   78CHL1  H16B 8201   3.862   1.358   7.602  2.4742  0.1742  1.2309
   78CHL1   C17 8202   3.749   1.168   7.595  0.3377 -0.5160 -0.0677
   78CHL1   H17 8203   3.675   1.247   7.571  0.9948  0.1646  0.1320
   78CHL1   C13 8204   3.760   1.064   7.471  0.4533 -0.7032 -0.0512
   78CHL1   C18 8205   3.844   0.940   7.518  0.5185  0.2783  0.5326
   78CHL1  H18A 8206   3.937   0.977   7.565  2.5437 -1.3878 -2.0306
   78CHL1  H18B 8207   3.791   0.872   7.588  0.6114  0.5943  0.9072
   78CHL1  H18C 8208   3.875   0.889   7.424  1.2778  3.2125 -0.8798
   78CHL1   C12 8209   3.627   1.031   7.409 -0.0041  0.2590 -0.3574
   78CHL1  H12A 8210   3.561   0.959   7.461  0.7458  0.3625  0.7565
   78CHL1  H12B 8211   3.562   1.118   7.384 -1.9234 -1.1408 -0.3088
   78CHL1   C11 8212   3.655   0.961   7.271  0.3109  0.1774 -0.0014
   78CHL1  H11A 8213   3.715   0.870   7.291  1.1597  0.8751  0.6387
   78CHL1  H11B 8214   3.566   0.920   7.219  0.6564 -0.0688 -0.3956
   78CHL1    C9 8215   3.745   1.042   7.169 -0.4868  0.1591 -0.3817
   78CHL1    H9 8216   3.686   1.136   7.162  1.8299  1.7888  1.0888
   78CHL1   C10 8217   3.772   0.986   7.029  1.1036  0.9047  0.2368
   78CHL1   C19 8218   3.826   0.841   7.046  0.0384  0.0027  0.3918
   78CHL1  H19A 8219   3.916   0.841   7.111 -0.4315  2.1602  1.0898
   78CHL1  H19B 8220   3.741   0.783   7.087 -0.7226 -1.0178 -2.4819
   78CHL1  H19C 8221   3.842   0.798   6.944  1.0889 -0.6360  0.8223
   78CHL1    C1 8222   3.636   0.996   6.956 -0.4942 -0.2146  0.0864
   78CHL1   H1A 8223   3.566   0.926   7.005 -0.2134  0.0662  0.9072
   78CHL1   H1B 8224   3.589   1.096   6.973  0.6858 -0.0552  2.6974
   78CHL1    C2 8225   3.634   0.961   6.810 -0.2089  0.7466  0.0645
   78CHL1   H2A 8226   3.533   0.954   6.764 -0.0873  1.0947 -0.2508
   78CHL1   H2B 8227   3.671   0.856   6.811 -0.0135  0.8161  0.2329
   78CHL1   C20 8228   3.707   1.122   7.730  0.0853 -0.0134 -0.3529
   78CHL1   H20 8229   3.763   1.029   7.755 -1.0988 -0.4958  0.5284
   78CHL1   C21 8230   3.553   1.084   7.728 -0.0723 -0.3004  0.2757
   78CHL1  H21A 8231   3.537   0.990   7.672 -0.3653 -1.0584  1.6180
   78CHL1  H21B 8232   3.498   1.169   7.681  0.1492  0.2485  1.0144
   78CHL1  H21C 8233   3.520   1.056   7.830 -1.2535 -2.4835 -0.6755
   78CHL1   C22 8234   3.745   1.217   7.852 -0.0566 -0.3061  0.5674
   78CHL1  H22A 8235   3.856   1.217   7.850 -0.0690 -0.8610 -2.5747
   78CHL1  H22B 8236   3.698   1.316   7.834  0.9683 -0.5118 -3.7324
   78CHL1   C23 8237   3.695   1.172   7.989  1.0925 -0.5348  0.1360
   78CHL1  H23A 8238   3.585   1.159   7.983  1.1053 -1.7162  1.8553
   78CHL1  H23B 8239   3.724   1.069   8.021  0.2758 -0.9724 -0.5152
   78CHL1   C24 8240   3.709   1.275   8.106  0.4426  0.0529  0.2010
   78CHL1  H24A 8241   3.812   1.313   8.091  0.1982  0.1675 -1.1736
   78CHL1  H24B 8242   3.644   1.363   8.091  0.3143 -0.1026 -0.1474
   78CHL1   C25 8243   3.694   1.231   8.251  0.3731  0.4530 -0.4069
   78CHL1   H25 8244   3.768   1.150   8.271  0.5376  0.3498 -1.3665
   78CHL1   C26 8245   3.729   1.346   8.350 -0.2114 -0.1712  0.1176
   78CHL1  H26A 8246   3.713   1.297   8.448 -1.5669 -0.3967 -0.2074
   78CHL1  H26B 8247   3.833   1.383   8.341 -0.6189  0.5820 -1.8491
   78CHL1  H26C 8248   3.652   1.426   8.349  0.5843  0.6898  3.7198
   78CHL1   C27 8249   3.553   1.197   8.286 -0.9521  0.9223  0.1901
   78CHL1  H27A 8250   3.509   1.114   8.228  3.4155 -1.1256 -0.4198
   78CHL1  H27B 8251   3.545   1.168   8.393 -0.8327 -0.3652 -0.1414
   78CHL1  H27C 8252   3.488   1.286   8.273 -0.2586  1.4322  0.1929
   79CHL1    C3 8253   2.304   0.961   7.274 -0.2933 -1.0900 -0.0080
   79CHL1    H3 8254   2.351   1.059   7.299 -5.2502  0.8257  2.4117
   79CHL1    O3 8255   2.311   0.942   7.134  0.2206 -0.1029 -0.8023
   79CHL1   H3' 8256   2.235   0.890   7.107  0.0172 -0.5099  0.4861
   79CHL1    C4 8257   2.372   0.842   7.334  0.3813  0.6678  0.4339
   79CHL1   H4A 8258   2.337   0.751   7.282  2.1429  0.8374 -1.1008
   79CHL1   H4B 8259   2.479   0.858   7.308 -0.1524  2.7644 -0.5636
   79CHL1    C5 8260   2.346   0.839   7.488 -0.0376  0.2915 -0.8657
   79CHL1    C6 8261   2.452   0.829   7.571  0.4663 -0.6394 -0.5306
   79CHL1    H6 8262   2.550   0.813   7.525  1.8709 -0.4071  2.3062
   79CHL1    C7 8263   2.447   0.830   7.721 -0.7502  0.9377  0.6549
   79CHL1   H7A 8264   2.509   0.744   7.752 -2.1186 -0.3414 -0.0827
   79CHL1   H7B 8265   2.483   0.928   7.760 -1.5213  1.5734 -0.1972
   79CHL1    C8 8266   2.300   0.814   7.774 -0.0263 -0.2740 -0.8703
   79CHL1    H8 8267   2.274   0.709   7.748  1.4515 -0.5757 -1.1443
   79CHL1   C14 8268   2.286   0.844   7.927 -0.0874  0.4901  0.2896
   79CHL1   H14 8269   2.320   0.949   7.929 -1.6608  1.0132  0.1966
   79CHL1   C15 8270   2.374   0.755   8.021  0.3761 -0.8841  0.0749
   79CHL1  H15A 8271   2.366   0.646   7.999  1.1271 -1.1993  1.2908
   79CHL1  H15B 8272   2.481   0.785   8.008  0.4205 -0.7693  0.6855
   79CHL1   C16 8273   2.328   0.796   8.157  0.9870 -0.7105 -0.6153
   79CHL1  H16A 8274   2.332   0.712   8.230  2.7245 -1.5620 -1.6556
   79CHL1  H16B 8275   2.389   0.878   8.199 -2.2750  0.7056  1.4789
   79CHL1   C17 8276   2.175   0.850   8.140 -0.4552 -0.0295 -1.1973
   79CHL1   H17 8277   2.175   0.960   8.159 -2.8741  0.0937 -1.8355
   79CHL1   C13 8278   2.148   0.833   7.990  0.0671  0.7374  1.0701
   79CHL1   C18 8279   2.083   0.690   7.979 -0.4162 -0.2708 -0.2701
   79CHL1  H18A 8280   2.147   0.611   8.023  1.2725  0.5111 -1.2647
   79CHL1  H18B 8281   1.982   0.681   8.023 -0.7302  1.3738 -0.6255
   79CHL1  H18C 8282   2.067   0.660   7.874 -0.2567 -0.8681 -0.1226
   79CHL1   C12 8283   2.063   0.937   7.916  0.7610 -0.3323  0.1478
   79CHL1  H12A 8284   1.956   0.924   7.944  0.5949 -0.4805 -0.5438
   79CHL1  H12B 8285   2.092   1.042   7.935  1.8044 -0.2785 -1.6347
   79CHL1   C11 8286   2.067   0.925   7.761  0.1172  0.1990 -0.5172
   79CHL1  H11A 8287   2.005   0.835   7.739 -1.1161  0.6272  1.1255
   79CHL1  H11B 8288   2.023   1.019   7.723  0.5312  0.0167 -1.4464
   79CHL1    C9 8289   2.210   0.911   7.695 -0.3257  0.4694  0.5212
   79CHL1    H9 8290   2.265   1.007   7.705 -1.7059  1.2799  0.3777
   79CHL1   C10 8291   2.202   0.873   7.540  0.3679  0.1074 -0.4199
   79CHL1   C19 8292   2.129   0.739   7.523 -0.1679  0.4435 -0.0566
   79CHL1  H19A 8293   2.029   0.751   7.570 -0.5846 -1.4783 -0.3869
   79CHL1  H19B 8294   2.118   0.719   7.414 -0.2068 -0.1521  0.0560
   79CHL1  H19C 8295   2.180   0.647   7.559  1.1458  0.7792 -1.0445
   79CHL1    C1 8296   2.133   0.988   7.464 -0.2878 -0.1401  0.1622
   79CHL1   H1A 8297   2.023   0.981   7.478 -0.2194  0.2094  0.8616
   79CHL1   H1B 8298   2.167   1.088   7.497 -0.3620  0.0858 -0.4421
   79CHL1    C2 8299   2.156   0.975   7.310 -0.0394  0.4800  0.2505
   79CHL1   H2A 8300   2.114   1.060   7.252  1.0038  0.8696  0.0600
   79CHL1   H2B 8301   2.111   0.880   7.276 -0.5403  0.6086  0.5430
   79CHL1   C20 8302   2.075   0.809   8.253  0.8329 -0.4678 -0.3786
   79CHL1   H20 8303   2.060   0.700   8.240  1.4982 -0.6187  0.1182
   79CHL1   C21 8304   1.945   0.888   8.226 -0.2062  0.1803 -0.5013
   79CHL1  H21A 8305   1.880   0.838   8.152  1.6713 -2.0627 -0.6766
   79CHL1  H21B 8306   1.964   0.992   8.192  1.9690 -0.1705 -0.4167
   79CHL1  H21C 8307   1.896   0.896   8.326  1.4608 -0.8579  0.4248
   79CHL1   C22 8308   2.137   0.846   8.389 -0.1684 -0.6431 -0.1025
   79CHL1  H22A 8309   2.241   0.808   8.379 -0.8627 -2.0483 -2.2695
   79CHL1  H22B 8310   2.143   0.957   8.393 -2.3451 -0.4402 -1.5915
   79CHL1   C23 8311   2.076   0.781   8.518 -0.7533 -0.8321  0.0088
   79CHL1  H23A 8312   1.967   0.800   8.519 -0.6234 -0.0225 -0.1146
   79CHL1  H23B 8313   2.094   0.672   8.519 -0.9839 -0.8664  0.6451
   79CHL1   C24 8314   2.128   0.844   8.648  0.5656  0.0522 -0.2623
   79CHL1  H24A 8315   2.238   0.824   8.651  0.5620  0.0873  0.1836
   79CHL1  H24B 8316   2.117   0.954   8.636  2.1634 -0.0380 -2.9723
   79CHL1   C25 8317   2.051   0.790   8.773  0.1090  0.0854  0.1363
   79CHL1   H25 8318   1.945   0.813   8.747  0.0727 -1.0857 -0.8318
   79CHL1   C26 8319   2.056   0.640   8.798  0.0947 -0.1185 -0.1537
   79CHL1  H26A 8320   2.015   0.612   8.898 -2.1460 -1.3853 -1.3964
   79CHL1  H26B 8321   1.996   0.595   8.716  0.7427  0.6881 -1.0788
   79CHL1  H26C 8322   2.158   0.598   8.794 -0.1940 -0.7342 -1.1554
   79CHL1   C27 8323   2.078   0.870   8.897  0.0853 -0.4963 -0.4974
   79CHL1  H27A 8324   2.187   0.864   8.913  0.1684 -0.2314 -0.9655
   79CHL1  H27B 8325   2.036   0.972   8.881 -0.7747 -0.7744 -0.0679
   79CHL1  H27C 8326   2.023   0.831   8.985 -2.1133 -0.0412 -1.6036
   80CHL1    C3 8327   0.793   5.332   7.158 -0.0644  0.2310 -0.4574
   80CHL1    H3 8328   0.891   5.385   7.154  0.5177 -0.8506 -0.6476
   80CHL1    O3 8329   0.723   5.364   7.041  0.8588 -0.0355 -0.0868
   80CHL1   H3' 8330   0.695   5.278   7.010  2.2173 -0.4369 -0.2093
   80CHL1    C4 8331   0.819   5.182   7.155 -0.9690  0.3458 -0.4237
   80CHL1   H4A 8332   0.720   5.133   7.141 -1.4582  0.8776  1.1626
   80CHL1   H4B 8333   0.880   5.167   7.063 -0.6321 -1.5770  0.0948
   80CHL1    C5 8334   0.878   5.122   7.282  0.5356  0.1511  0.5028
   80CHL1    C6 8335   0.991   5.051   7.278  0.5395  0.1938  0.4334
   80CHL1    H6 8336   1.031   5.014   7.182 -1.7874 -2.1362  0.2954
   80CHL1    C7 8337   1.055   4.990   7.398  0.3442 -0.1513 -0.5002
   80CHL1   H7A 8338   1.078   4.882   7.382 -1.4094 -0.1266 -3.5504
   80CHL1   H7B 8339   1.153   5.038   7.418 -0.9231  1.8937  1.0035
   80CHL1    C8 8340   0.957   4.994   7.527  0.2560 -0.0962 -0.6483
   80CHL1    H8 8341   0.885   4.911   7.513  0.4618 -0.4828  0.5491
   80CHL1   C14 8342   1.032   4.956   7.649 -0.5803  0.4199  0.1632
   80CHL1   H14 8343   1.106   5.040   7.652 -1.4905  1.2246  0.2608
   80CHL1   C15 8344   1.122   4.833   7.652 -0.3831 -0.1127 -0.1099
   80CHL1  H15A 8345   1.070   4.748   7.603  1.0622 -0.1805 -1.5671
   80CHL1  H15B 8346   1.215   4.845   7.593 -0.2865 -1.2902 -0.1954
   80CHL1   C16 8347   1.156   4.810   7.799  0.3912  0.0678 -0.0441
   80CHL1  H16A 8348   1.134   4.703   7.815 -1.2467  0.4955  0.6665
   80CHL1  H16B 8349   1.264   4.825   7.819  0.2324  1.6893 -0.3013
   80CHL1   C17 8350   1.060   4.899   7.885 -0.0553 -0.1111  0.1600
   80CHL1   H17 8351   1.135   4.974   7.918  1.6434 -2.4234  1.6564
   80CHL1   C13 8352   0.953   4.950   7.784  0.1791 -0.6086  0.4322
   80CHL1   C18 8353   0.841   4.847   7.780 -0.7301 -0.4260 -0.1351
   80CHL1  H18A 8354   0.787   4.859   7.683 -0.2317 -3.1091 -0.7992
   80CHL1  H18B 8355   0.882   4.744   7.784  0.4598 -0.1895 -3.9334
   80CHL1  H18C 8356   0.769   4.870   7.861  0.9169  1.4166  0.8581
   80CHL1   C12 8357   0.894   5.086   7.797 -0.1598 -0.2363  0.6981
   80CHL1  H12A 8358   0.843   5.092   7.896 -1.3503  0.3158  0.0568
   80CHL1  H12B 8359   0.976   5.160   7.803 -0.8235  0.4173  1.9201
   80CHL1   C11 8360   0.805   5.137   7.675 -0.3458 -0.0560 -0.1880
   80CHL1  H11A 8361   0.711   5.078   7.671 -1.1560  1.2077  0.0537
   80CHL1  H11B 8362   0.771   5.240   7.701  0.9475  0.3324  0.0329
   80CHL1    C9 8363   0.883   5.124   7.541 -0.3137 -0.2937  0.0663
   80CHL1    H9 8364   0.960   5.204   7.543 -0.2151 -0.3929  0.2937
   80CHL1   C10 8365   0.800   5.158   7.416  0.0791  0.4474  0.0918
   80CHL1   C19 8366   0.663   5.082   7.421 -0.2681 -0.8610  0.1362
   80CHL1  H19A 8367   0.596   5.117   7.502  0.2254  1.5176 -0.4590
   80CHL1  H19B 8368   0.608   5.105   7.327 -0.3168 -1.8080 -0.0730
   80CHL1  H19C 8369   0.672   4.971   7.426 -1.1218 -0.8611  1.7248
   80CHL1    C1 8370   0.773   5.313   7.416 -0.4413 -0.6504  0.1993
   80CHL1   H1A 8371   0.707   5.327   7.504 -1.4236 -0.4565 -0.5512
   80CHL1   H1B 8372   0.869   5.366   7.430 -0.4927 -0.3582 -0.4961
   80CHL1    C2 8373   0.706   5.370   7.285  0.3111  0.0397  0.2490
   80CHL1   H2A 8374   0.698   5.480   7.290 -1.4175 -0.0504 -0.3387
   80CHL1   H2B 8375   0.608   5.320   7.272  0.3160  0.1214 -0.0973
   80CHL1   C20 8376   1.015   4.852   8.021  0.8935 -0.3293 -0.6750
   80CHL1   H20 8377   0.945   4.767   8.010 -1.0612  1.2799 -0.9652
   80CHL1   C21 8378   0.954   4.968   8.101 -0.0370  0.2051  0.2503
   80CHL1  H21A 8379   0.849   4.971   8.064  0.0076  1.8319  0.1950
   80CHL1  H21B 8380   0.999   5.064   8.067 -1.4021  0.0764 -2.0288
   80CHL1  H21C 8381   0.956   4.958   8.212  1.5442 -1.3886  0.0876
   80CHL1   C22 8382   1.138   4.810   8.105 -0.1991 -0.0781  0.3548
   80CHL1  H22A 8383   1.207   4.753   8.039  1.3110 -0.7561  2.4935
   80CHL1  H22B 8384   1.201   4.895   8.138 -0.2859  0.2547 -0.3264
   80CHL1   C23 8385   1.118   4.707   8.222  0.0082  0.8528  0.2661
   80CHL1  H23A 8386   1.216   4.665   8.254  0.1016 -0.2365 -1.3990
   80CHL1  H23B 8387   1.071   4.755   8.310 -2.7861  1.7077 -1.6302
   80CHL1   C24 8388   1.031   4.588   8.169  0.1100 -0.1987 -0.2237
   80CHL1  H24A 8389   1.027   4.524   8.260 -1.8454  0.8853  0.4964
   80CHL1  H24B 8390   0.932   4.629   8.138  0.7076 -0.2754 -2.3000
   80CHL1   C25 8391   1.092   4.496   8.067 -0.8315 -0.1345 -0.2044
   80CHL1   H25 8392   1.116   4.554   7.975  0.9672  1.8992  1.5017
   80CHL1   C26 8393   1.233   4.431   8.104  0.4879  0.2797  0.7350
   80CHL1  H26A 8394   1.285   4.369   8.028 -0.7166  1.3109 -0.9578
   80CHL1  H26B 8395   1.302   4.515   8.125  0.4832  0.7476 -1.0450
   80CHL1  H26C 8396   1.218   4.373   8.198  1.5766 -1.0086  0.1286
   80CHL1   C27 8397   0.994   4.397   8.014  1.2266  0.0483  0.1104
   80CHL1  H27A 8398   0.905   4.457   7.984  0.3000 -1.9875 -1.3527
   80CHL1  H27B 8399   1.029   4.341   7.924 -0.9952  0.5487 -1.1106
   80CHL1  H27C 8400   0.971   4.326   8.096  2.3932  1.2960  1.5284
   81CHL1    C3 8401   4.953   5.002   6.835  0.3651 -0.3346 -0.7143
   81CHL1    H3 8402   5.028   4.927   6.864 -0.1326 -0.1544  1.0908
   81CHL1    O3 8403   4.916   4.991   6.697  0.1078  0.9472  0.0526
   81CHL1   H3' 8404   4.994   4.971   6.645 -1.0977 -0.3219 -1.3109
   81CHL1    C4 8405   4.826   4.962   6.925 -0.3218  0.1387 -0.1589
   81CHL1   H4A 8406   4.740   5.025   6.892 -0.7369  0.0332  0.7115
   81CHL1   H4B 8407   4.792   4.859   6.904  0.2536 -0.3464  1.2766
   81CHL1    C5 8408   4.870   4.975   7.070  0.4096  0.9514  0.3838
   81CHL1    C6 8409   4.869   4.869   7.152 -0.4313  0.7104 -0.0260
   81CHL1    H6 8410   4.828   4.774   7.116 -0.0478  0.6656 -0.3436
   81CHL1    C7 8411   4.901   4.874   7.299  0.0912 -0.6279 -0.4434
   81CHL1   H7A 8412   4.830   4.815   7.362 -0.1302  0.9301  0.8099
   81CHL1   H7B 8413   4.999   4.828   7.324 -0.3013 -1.1957  0.0864
   81CHL1    C8 8414   4.893   5.015   7.362  0.5661  0.1720 -0.0537
   81CHL1    H8 8415   4.789   5.049   7.379  0.3107  0.5732 -2.2952
   81CHL1   C14 8416   4.971   5.023   7.497 -0.6113 -0.3356  0.3297
   81CHL1   H14 8417   5.078   5.008   7.469  0.3247  2.8950  1.8644
   81CHL1   C15 8418   4.938   4.933   7.617  0.3002 -0.3264 -0.2109
   81CHL1  H15A 8419   4.827   4.932   7.622  0.4197 -0.7542  3.7748
   81CHL1  H15B 8420   4.975   4.830   7.599  0.6822  0.1117 -2.0105
   81CHL1   C16 8421   5.002   5.004   7.745  0.2770 -0.4704  0.1622
   81CHL1  H16A 8422   4.933   5.007   7.832  0.3717  0.6090  0.2076
   81CHL1  H16B 8423   5.098   4.951   7.760 -0.2185 -0.7407  2.4739
   81CHL1   C17 8424   5.043   5.144   7.691 -0.3440  0.3247  0.4879
   81CHL1   H17 8425   5.152   5.130   7.673 -0.3982 -2.6050  2.1027
   81CHL1   C13 8426   4.975   5.167   7.555  0.1764  0.4225 -0.6413
   81CHL1   C18 8427   4.828   5.215   7.585 -0.1325  0.7997  0.0877
   81CHL1  H18A 8428   4.769   5.148   7.651 -1.1416 -0.1197 -1.7032
   81CHL1  H18B 8429   4.817   5.323   7.610 -2.1861  0.0571  2.5421
   81CHL1  H18C 8430   4.760   5.220   7.497 -0.1620  0.0686  0.0651
   81CHL1   C12 8431   5.051   5.249   7.458  0.2396  0.3165  0.2233
   81CHL1  H12A 8432   5.045   5.349   7.508  0.7654  1.0452 -1.1677
   81CHL1  H12B 8433   5.160   5.230   7.458  0.0358 -0.8516 -0.4152
   81CHL1   C11 8434   4.989   5.260   7.322  0.5756  0.4753  0.4763
   81CHL1  H11A 8435   4.891   5.308   7.339  0.0443  0.0008 -1.1367
   81CHL1  H11B 8436   5.047   5.322   7.250  0.1220  2.1701  1.5499
   81CHL1    C9 8437   4.963   5.113   7.270 -0.1123  0.3422  0.8368
   81CHL1    H9 8438   5.066   5.073   7.259  0.2124  1.6487 -1.0498
   81CHL1   C10 8439   4.910   5.110   7.122  0.0455 -0.3631 -0.1008
   81CHL1   C19 8440   4.785   5.187   7.125  0.6690 -0.7246 -0.2305
   81CHL1  H19A 8441   4.712   5.159   7.204 -0.2833  1.5003 -0.2935
   81CHL1  H19B 8442   4.813   5.293   7.144  0.3667 -0.9452  1.5827
   81CHL1  H19C 8443   4.721   5.190   7.034  0.4884  0.2691 -0.0776
   81CHL1    C1 8444   5.021   5.164   7.020 -0.7292 -0.2164 -0.8801
   81CHL1   H1A 8445   5.023   5.274   7.037  2.1782 -0.2632 -0.5734
   81CHL1   H1B 8446   5.117   5.142   7.073 -2.4211 -0.7993  2.0969
   81CHL1    C2 8447   5.001   5.144   6.873  0.3492  0.1973  0.7486
   81CHL1   H2A 8448   5.091   5.156   6.810 -0.2739 -0.4780 -0.2868
   81CHL1   H2B 8449   4.932   5.224   6.838  1.2706  0.0787 -1.3850
   81CHL1   C20 8450   5.054   5.249   7.804 -0.5677 -0.1015 -0.6213
   81CHL1   H20 8451   5.049   5.345   7.748  0.4528  1.3413  1.6695
   81CHL1   C21 8452   5.185   5.245   7.884  0.1669  0.4359  0.4168
   81CHL1  H21A 8453   5.270   5.236   7.814  0.2095 -1.8996  0.7232
   81CHL1  H21B 8454   5.203   5.158   7.952  1.0563 -0.1742 -0.5872
   81CHL1  H21C 8455   5.190   5.339   7.943 -0.1389  0.3305  0.6113
   81CHL1   C22 8456   4.930   5.255   7.901  0.3586 -0.3580 -0.5647
   81CHL1  H22A 8457   4.849   5.197   7.851  1.9751 -1.0140 -2.5069
   81CHL1  H22B 8458   4.953   5.189   7.987 -5.1662 -0.5093  0.9820
   81CHL1   C23 8459   4.897   5.391   7.955 -0.1074  0.0247  0.1944
   81CHL1  H23A 8460   4.979   5.433   8.019  0.9774 -2.3044  0.4047
   81CHL1  H23B 8461   4.874   5.454   7.867 -1.2449  0.4389  0.7744
   81CHL1   C24 8462   4.774   5.402   8.037 -0.4099 -0.8291  0.1684
   81CHL1  H24A 8463   4.704   5.475   7.991  0.5835  0.0432  0.0026
   81CHL1  H24B 8464   4.716   5.308   8.038  1.2124 -1.8310  1.2956
   81CHL1   C25 8465   4.805   5.426   8.186  0.3213  0.2171 -0.3614
   81CHL1   H25 8466   4.890   5.363   8.221  2.1606  2.7486 -0.0964
   81CHL1   C26 8467   4.841   5.580   8.204 -0.1577  0.4047 -0.0136
   81CHL1  H26A 8468   4.923   5.619   8.140  0.2260  0.6062  0.5976
   81CHL1  H26B 8469   4.747   5.636   8.187  0.4662  0.8920 -2.0692
   81CHL1  H26C 8470   4.885   5.601   8.304  0.3098  1.1487 -0.3680
   81CHL1   C27 8471   4.684   5.403   8.280 -0.3010  0.1966  0.2597
   81CHL1  H27A 8472   4.607   5.482   8.269 -1.0965 -0.3962  1.4262
   81CHL1  H27B 8473   4.648   5.301   8.256  1.5763  0.0082 -2.0187
   81CHL1  H27C 8474   4.706   5.405   8.389 -0.9267 -1.1961  0.4129
   82CHL1    C3 8475   6.268   6.319   6.892 -0.1322  0.7315  0.4271
   82CHL1    H3 8476   6.269   6.208   6.889 -0.0702  0.7603 -0.5231
   82CHL1    O3 8477   6.257   6.363   6.754 -0.3508  0.4151 -0.2397
   82CHL1   H3' 8478   6.239   6.457   6.764  1.5938  0.6746  1.1940
   82CHL1    C4 8479   6.150   6.375   6.967  0.6270 -0.1146  0.4022
   82CHL1   H4A 8480   6.153   6.485   6.949  0.3634 -0.2553 -0.5534
   82CHL1   H4B 8481   6.054   6.333   6.929  0.5331 -0.7408  1.3260
   82CHL1    C5 8482   6.159   6.355   7.118  0.0220 -0.9086 -0.4235
   82CHL1    C6 8483   6.062   6.293   7.186 -0.8491  0.7610 -0.2123
   82CHL1    H6 8484   5.974   6.254   7.133  0.1373  0.1671 -1.4534
   82CHL1    C7 8485   6.063   6.260   7.333 -0.0189  0.0343  0.5432
   82CHL1   H7A 8486   5.961   6.289   7.369 -0.3530  1.5444 -1.4866
   82CHL1   H7B 8487   6.076   6.152   7.356 -1.2357 -0.2714 -0.1663
   82CHL1    C8 8488   6.170   6.346   7.407  0.0853 -0.1980  0.0765
   82CHL1    H8 8489   6.125   6.448   7.408 -0.1353 -0.2815 -1.0353
   82CHL1   C14 8490   6.195   6.310   7.551  0.0152 -0.3776  0.4396
   82CHL1   H14 8491   6.232   6.205   7.544 -2.2560 -1.1212 -1.0708
   82CHL1   C15 8492   6.074   6.307   7.652  0.1908 -0.1956 -0.4116
   82CHL1  H15A 8493   6.004   6.391   7.633  0.1944  0.6067  2.8154
   82CHL1  H15B 8494   6.016   6.214   7.635  0.3500 -0.0761 -1.6417
   82CHL1   C16 8495   6.123   6.334   7.790  0.2195  0.4739  0.9819
   82CHL1  H16A 8496   6.072   6.423   7.833  1.5110  0.9034  1.6367
   82CHL1  H16B 8497   6.100   6.258   7.866 -1.4343  1.0121  1.0498
   82CHL1   C17 8498   6.280   6.351   7.777  0.4423  0.4333 -0.9529
   82CHL1   H17 8499   6.317   6.246   7.778  2.5669  1.1367  1.5630
   82CHL1   C13 8500   6.295   6.399   7.632 -0.6669  0.3147 -0.3702
   82CHL1   C18 8501   6.251   6.546   7.626 -0.6940  0.2848  0.1017
   82CHL1  H18A 8502   6.214   6.576   7.526  0.7368 -0.2955 -0.6009
   82CHL1  H18B 8503   6.161   6.566   7.689 -2.0278 -3.3950 -0.5441
   82CHL1  H18C 8504   6.327   6.620   7.660 -1.5188  1.2957 -0.2222
   82CHL1   C12 8505   6.426   6.375   7.557  0.5661  0.3458 -0.1075
   82CHL1  H12A 8506   6.507   6.434   7.604 -0.0301  1.3111 -0.2838
   82CHL1  H12B 8507   6.450   6.266   7.564 -0.8519  0.0952  1.0331
   82CHL1   C11 8508   6.422   6.411   7.403 -0.4371  0.9811 -0.2202
   82CHL1  H11A 8509   6.424   6.520   7.388  1.2453  1.2387  1.6205
   82CHL1  H11B 8510   6.517   6.390   7.350 -1.7600 -1.7539 -1.5873
   82CHL1    C9 8511   6.302   6.342   7.327 -0.1374  0.0468 -0.7083
   82CHL1    H9 8512   6.327   6.236   7.307  1.5638  0.2030  0.5441
   82CHL1   C10 8513   6.288   6.398   7.187  0.2727  0.2162  0.0401
   82CHL1   C19 8514   6.267   6.555   7.191 -0.0414  0.0714 -0.1145
   82CHL1  H19A 8515   6.360   6.605   7.225 -0.0395 -1.3447  2.0568
   82CHL1  H19B 8516   6.245   6.598   7.091 -0.7442  0.6984  0.3059
   82CHL1  H19C 8517   6.183   6.582   7.258 -2.0020 -1.0252 -2.0631
   82CHL1    C1 8518   6.413   6.362   7.103 -0.1507  0.3138 -0.6101
   82CHL1   H1A 8519   6.511   6.403   7.134  1.1732 -1.2503 -2.6181
   82CHL1   H1B 8520   6.428   6.255   7.127 -2.5266  0.2180  0.5706
   82CHL1    C2 8521   6.407   6.363   6.949  0.2521  0.6315 -0.1933
   82CHL1   H2A 8522   6.486   6.294   6.913 -2.3880 -2.3084 -0.6220
   82CHL1   H2B 8523   6.420   6.465   6.907 -1.6004  0.5772 -0.9771
   82CHL1   C20 8524   6.351   6.427   7.883 -0.0417 -0.1518 -0.1515
   82CHL1   H20 8525   6.366   6.536   7.870  0.8801  0.0506  2.3741
   82CHL1   C21 8526   6.494   6.365   7.902 -1.2549  0.2029  0.1515
   82CHL1  H21A 8527   6.556   6.368   7.810  1.3786 -0.3156  1.8545
   82CHL1  H21B 8528   6.489   6.258   7.930 -0.5257 -0.0389 -0.6086
   82CHL1  H21C 8529   6.563   6.417   7.972 -0.2578 -1.0171  0.0723
   82CHL1   C22 8530   6.282   6.427   8.025 -0.2818 -0.5939 -0.8416
   82CHL1  H22A 8531   6.205   6.504   8.011  0.1658 -0.0386 -0.2742
   82CHL1  H22B 8532   6.238   6.328   8.052  0.6777 -0.3120  1.9114
   82CHL1   C23 8533   6.375   6.472   8.138  0.3566  0.1349 -0.3342
   82CHL1  H23A 8534   6.456   6.400   8.161 -0.7415 -1.4623 -1.4011
   82CHL1  H23B 8535   6.421   6.567   8.103 -0.1433  0.2878 -0.5738
   82CHL1   C24 8536   6.316   6.494   8.280 -0.2924 -0.1470 -0.1481
   82CHL1  H24A 8537   6.252   6.585   8.281 -0.1430 -0.0468  0.5900
   82CHL1  H24B 8538   6.259   6.403   8.310 -2.1027  1.7593  2.3928
   82CHL1   C25 8539   6.416   6.528   8.387  0.0601  0.2828  0.3327
   82CHL1   H25 8540   6.491   6.447   8.372 -1.8329 -1.0363 -2.4678
   82CHL1   C26 8541   6.467   6.672   8.377 -0.5092  0.8692  0.2878
   82CHL1  H26A 8542   6.519   6.684   8.280 -2.3218  0.3314 -0.7868
   82CHL1  H26B 8543   6.394   6.755   8.393  0.4344  2.0200 -1.2748
   82CHL1  H26C 8544   6.546   6.684   8.454  0.3462  1.2949 -0.6488
   82CHL1   C27 8545   6.348   6.504   8.522 -0.1037 -0.3145 -0.7266
   82CHL1  H27A 8546   6.266   6.575   8.545 -1.4370 -2.8649  2.8606
   82CHL1  H27B 8547   6.313   6.399   8.530 -1.5006  0.2130  0.1404
   82CHL1  H27C 8548   6.429   6.527   8.595 -0.1366 -0.7721 -0.5452
   83CHL1    C3 8549   2.404   0.351   6.955  0.8111  0.0987 -0.0107
   83CHL1    H3 8550   2.426   0.244   6.939 -0.2962 -0.1819  0.3197
   83CHL1    O3 8551   2.394   0.415   6.829 -0.2633  0.0993 -0.3203
   83CHL1   H3' 8552   2.367   0.504   6.851  0.8084  0.8026 -1.7928
   83CHL1    C4 8553   2.271   0.356   7.030  0.6551 -0.2596  0.0483
   83CHL1   H4A 8554   2.243   0.463   7.041 -0.8959 -0.8274  1.7360
   83CHL1   H4B 8555   2.193   0.309   6.967 -0.6898  2.4348 -0.3808
   83CHL1    C5 8556   2.288   0.293   7.169  0.4030 -0.6740  0.1334
   83CHL1    C6 8557   2.210   0.192   7.217 -0.2573 -0.1642  0.3911
   83CHL1    H6 8558   2.135   0.144   7.154 -2.4639  1.1874  1.9212
   83CHL1    C7 8559   2.237   0.125   7.350  0.1775  0.7080  0.5424
   83CHL1   H7A 8560   2.143   0.084   7.393  0.3010  2.4537  2.5598
   83CHL1   H7B 8561   2.296   0.030   7.345 -1.8803 -0.5926  0.4413
   83CHL1    C8 8562   2.303   0.226   7.450 -0.0548 -0.1573 -0.3525
   83CHL1    H8 8563   2.234   0.309   7.473 -2.2902 -1.2785 -2.7659
   83CHL1   C14 8564   2.338   0.153   7.583  0.5178 -0.3665  0.8688
   83CHL1   H14 8565   2.414   0.076   7.560  0.9710  0.3398 -0.0507
   83CHL1   C15 8566   2.216   0.081   7.650  0.0350  0.1168  0.7349
   83CHL1  H15A 8567   2.125   0.145   7.644 -1.3981 -2.0642 -1.8784
   83CHL1  H15B 8568   2.198  -0.012   7.593 -0.9438  1.8253 -1.8338
   83CHL1   C16 8569   2.273   0.056   7.792  0.5549 -0.4702  0.2366
   83CHL1  H16A 8570   2.203   0.103   7.864  1.4279  1.4974 -0.1589
   83CHL1  H16B 8571   2.280  -0.052   7.814 -0.6728 -0.1968  2.1621
   83CHL1   C17 8572   2.411   0.132   7.809  0.0975  0.6661 -0.3071
   83CHL1   H17 8573   2.487   0.056   7.778 -1.4035 -0.5007 -1.2054
   83CHL1   C13 8574   2.407   0.238   7.690  0.1627  0.5633  0.4182
   83CHL1   C18 8575   2.314   0.365   7.719  0.5773 -0.3066 -0.1461
   83CHL1  H18A 8576   2.350   0.415   7.811 -1.8845 -0.6630  1.0726
   83CHL1  H18B 8577   2.301   0.438   7.637  0.4672 -0.7924 -0.5667
   83CHL1  H18C 8578   2.211   0.325   7.734  0.0660  0.7588 -0.8066
   83CHL1   C12 8579   2.542   0.286   7.632 -0.4175 -0.7523 -0.3180
   83CHL1  H12A 8580   2.582   0.372   7.690 -1.8873 -0.3207  0.0592
   83CHL1  H12B 8581   2.621   0.207   7.628 -0.2161 -0.6590  1.2703
   83CHL1   C11 8582   2.525   0.355   7.494 -0.1474  0.4351 -0.1812
   83CHL1  H11A 8583   2.480   0.453   7.522  0.2179  0.0356  1.8993
   83CHL1  H11B 8584   2.626   0.367   7.450 -1.3476  1.0133 -2.9130
   83CHL1    C9 8585   2.433   0.282   7.396 -0.9132 -0.3450 -0.0229
   83CHL1    H9 8586   2.496   0.193   7.375  2.1651  1.4166  1.3711
   83CHL1   C10 8587   2.411   0.351   7.252  0.5051 -0.4614  0.4723
   83CHL1   C19 8588   2.370   0.493   7.293 -0.3531 -0.2525 -0.4619
   83CHL1  H19A 8589   2.456   0.548   7.337 -1.3273  0.3192  0.7524
   83CHL1  H19B 8590   2.336   0.551   7.204 -1.1624  1.2655  0.8198
   83CHL1  H19C 8591   2.291   0.505   7.370  1.3168  1.3919  1.0463
   83CHL1    C1 8592   2.542   0.359   7.174 -0.3414 -0.7130  0.1649
   83CHL1   H1A 8593   2.621   0.423   7.218  0.2152  0.2743 -2.1967
   83CHL1   H1B 8594   2.573   0.252   7.179 -1.3214 -1.0195 -0.2704
   83CHL1    C2 8595   2.527   0.408   7.027 -0.4106 -0.2705 -0.4002
   83CHL1   H2A 8596   2.619   0.385   6.970  0.2352  3.5934 -0.9977
   83CHL1   H2B 8597   2.529   0.519   7.023  2.3130 -0.2865  0.0699
   83CHL1   C20 8598   2.442   0.179   7.948  0.0393 -0.9111  0.5812
   83CHL1   H20 8599   2.365   0.256   7.970  1.5577  1.2749 -1.5534
   83CHL1   C21 8600   2.580   0.259   7.959 -0.2343  0.0182  1.1928
   83CHL1  H21A 8601   2.670   0.200   7.929 -0.2643  0.4479  0.2489
   83CHL1  H21B 8602   2.598   0.293   8.063  0.1942  1.5961  0.6102
   83CHL1  H21C 8603   2.571   0.351   7.898  3.4977 -0.4156 -0.1857
   83CHL1   C22 8604   2.431   0.063   8.049  0.1116 -0.0545  0.6985
   83CHL1  H22A 8605   2.366  -0.018   8.008 -0.3193  1.1162 -1.0106
   83CHL1  H22B 8606   2.532   0.016   8.056  0.4017  0.8314  2.6344
   83CHL1   C23 8607   2.386   0.114   8.188  0.4937  0.2578 -0.6431
   83CHL1  H23A 8608   2.472   0.163   8.239 -1.1937 -0.1302  2.7231
   83CHL1  H23B 8609   2.294   0.174   8.173 -0.1172 -0.3010  0.8268
   83CHL1   C24 8610   2.351   0.009   8.289 -0.0817  0.3209  0.1896
   83CHL1  H24A 8611   2.395  -0.091   8.271 -0.2417 -0.0242  1.7209
   83CHL1  H24B 8612   2.384   0.040   8.390  1.9186 -3.2221  0.6891
   83CHL1   C25 8613   2.202  -0.025   8.342  0.0020  0.5877 -0.0025
   83CHL1   H25 8614   2.158  -0.066   8.248 -1.3315  0.2849  0.7444
   83CHL1   C26 8615   2.206  -0.129   8.459  0.2622 -0.1923 -0.0210
   83CHL1  H26A 8616   2.257  -0.220   8.420  1.0878  0.6809 -0.9924
   83CHL1  H26B 8617   2.259  -0.102   8.552 -0.9596 -0.6569  0.8228
   83CHL1  H26C 8618   2.103  -0.148   8.497  0.0376 -1.8119 -1.3461
   83CHL1   C27 8619   2.127   0.099   8.384 -0.3751 -0.2585 -0.3278
   83CHL1  H27A 8620   2.179   0.151   8.468  0.0645  1.3273 -1.5435
   83CHL1  H27B 8621   2.115   0.169   8.298  0.9858 -0.9041 -1.0619
   83CHL1  H27C 8622   2.021   0.085   8.412 -1.1066  2.5254 -1.5267
   84CHL1    C3 8623   4.368   4.079   6.837 -0.9436 -0.0555 -0.4435
   84CHL1    H3 8624   4.261   4.050   6.826 -0.9879  0.2911 -1.0080
   84CHL1    O3 8625   4.402   4.107   6.707 -0.1807  0.1309  0.1413
   84CHL1   H3' 8626   4.391   4.018   6.671  1.0942 -0.7882  1.9595
   84CHL1    C4 8627   4.380   4.206   6.924 -0.6510 -0.5136  0.3214
   84CHL1   H4A 8628   4.478   4.255   6.907  0.4650 -1.8717  2.6141
   84CHL1   H4B 8629   4.296   4.271   6.893 -3.1677 -2.9974  1.7322
   84CHL1    C5 8630   4.374   4.198   7.073 -0.0232 -0.6044 -0.2073
   84CHL1    C6 8631   4.287   4.269   7.152  0.4919  0.0279 -0.2234
   84CHL1    H6 8632   4.217   4.336   7.100 -0.1687 -1.7552 -1.6838
   84CHL1    C7 8633   4.276   4.258   7.299 -0.0299  0.7154 -0.3432
   84CHL1   H7A 8634   4.284   4.355   7.353  2.5070 -0.1340  0.9160
   84CHL1   H7B 8635   4.179   4.209   7.320 -0.5299  1.8856  0.0938
   84CHL1    C8 8636   4.388   4.164   7.358  0.1173 -0.3297  0.2018
   84CHL1    H8 8637   4.484   4.219   7.363  0.1425 -0.4207  0.7519
   84CHL1   C14 8638   4.353   4.120   7.502  0.5389 -0.2789  0.6938
   84CHL1   H14 8639   4.262   4.059   7.483  0.6481 -0.6523  1.3424
   84CHL1   C15 8640   4.321   4.234   7.598  0.0363 -0.2501  0.0190
   84CHL1  H15A 8641   4.396   4.316   7.603  1.5369 -1.6140  0.2758
   84CHL1  H15B 8642   4.220   4.280   7.592 -0.0030  0.3948  4.1606
   84CHL1   C16 8643   4.317   4.160   7.732  0.3766 -0.3222  0.8291
   84CHL1  H16A 8644   4.384   4.217   7.800  0.8461 -0.6538  0.6499
   84CHL1  H16B 8645   4.211   4.147   7.764  0.7817 -2.7538  1.2534
   84CHL1   C17 8646   4.378   4.012   7.707  0.4791  0.0130  0.0542
   84CHL1   H17 8647   4.286   3.955   7.682 -1.2153  1.8082  1.9865
   84CHL1   C13 8648   4.450   4.023   7.572 -0.2068 -0.4997 -0.1927
   84CHL1   C18 8649   4.583   4.091   7.597 -0.3886 -0.4963  0.3895
   84CHL1  H18A 8650   4.651   4.012   7.635  1.9333 -0.1639 -2.8560
   84CHL1  H18B 8651   4.626   4.135   7.505  1.0496 -2.3320  0.1464
   84CHL1  H18C 8652   4.584   4.167   7.678 -0.7750 -0.8654  0.7428
   84CHL1   C12 8653   4.467   3.899   7.487 -0.0938  0.1875 -0.2273
   84CHL1  H12A 8654   4.556   3.848   7.530 -0.2961 -1.0226 -1.1960
   84CHL1  H12B 8655   4.374   3.840   7.507  1.0605 -0.9867  1.9398
   84CHL1   C11 8656   4.508   3.939   7.343 -0.2828 -0.6685  0.8461
   84CHL1  H11A 8657   4.607   3.989   7.352 -1.9448  2.6967  1.0010
   84CHL1  H11B 8658   4.515   3.843   7.287  2.0113  0.2245 -0.4929
   84CHL1    C9 8659   4.414   4.046   7.266  1.0148  0.4538 -0.3754
   84CHL1    H9 8660   4.317   3.993   7.259  0.3795  1.3013  1.6924
   84CHL1   C10 8661   4.463   4.085   7.127 -0.0874  0.5110  0.1861
   84CHL1   C19 8662   4.609   4.139   7.140 -0.7691  0.3983  0.5466
   84CHL1  H19A 8663   4.678   4.056   7.166 -1.6244 -0.6672 -0.5160
   84CHL1  H19B 8664   4.645   4.180   7.043 -0.9946 -1.6127 -0.4164
   84CHL1  H19C 8665   4.625   4.218   7.217 -0.6660  1.4400 -0.5302
   84CHL1    C1 8666   4.455   3.951   7.036  0.6076 -0.6950 -0.4291
   84CHL1   H1A 8667   4.541   3.888   7.064 -0.8291 -2.2552  0.5539
   84CHL1   H1B 8668   4.351   3.917   7.055  0.6217 -1.8473 -2.3205
   84CHL1    C2 8669   4.464   3.974   6.883  0.3450  0.4946  0.0365
   84CHL1   H2A 8670   4.432   3.886   6.823  1.9357  1.2430 -1.9764
   84CHL1   H2B 8671   4.571   3.992   6.856  0.6444  0.3292  1.0831
   84CHL1   C20 8672   4.452   3.957   7.829 -0.0678 -0.0605  0.2015
   84CHL1   H20 8673   4.556   3.996   7.826 -1.2467  3.2417  0.2756
   84CHL1   C21 8674   4.472   3.800   7.812 -0.0282 -0.5007 -0.0130
   84CHL1  H21A 8675   4.540   3.798   7.724 -2.5042  2.2949 -2.0835
   84CHL1  H21B 8676   4.372   3.756   7.791 -1.1420  1.4610  1.1066
   84CHL1  H21C 8677   4.509   3.746   7.902 -0.0497  0.5079  0.6148
   84CHL1   C22 8678   4.397   3.996   7.964 -0.0659 -0.0191  0.6137
   84CHL1  H22A 8679   4.463   3.940   8.035 -0.2365 -0.1375  0.6790
   84CHL1  H22B 8680   4.404   4.104   7.988  1.9283  0.1091 -0.4004
   84CHL1   C23 8681   4.246   3.950   7.980  0.0112  0.1777  0.2508
   84CHL1  H23A 8682   4.183   4.009   7.911  0.3130 -0.8475 -0.9246
   84CHL1  H23B 8683   4.240   3.840   7.961  1.4807 -0.4734  3.2927
   84CHL1   C24 8684   4.193   3.974   8.124 -0.7116 -0.1169  0.4471
   84CHL1  H24A 8685   4.267   3.939   8.199 -0.8312  1.4815  1.3340
   84CHL1  H24B 8686   4.180   4.083   8.134 -2.5326 -0.2125 -0.6828
   84CHL1   C25 8687   4.064   3.904   8.160 -0.0006 -0.4173 -0.8449
   84CHL1   H25 8688   3.979   3.924   8.091 -2.2121 -2.8384  1.0250
   84CHL1   C26 8689   4.069   3.757   8.175  0.6154  1.2240 -0.3825
   84CHL1  H26A 8690   4.090   3.706   8.078  0.5079 -2.0555  1.2234
   84CHL1  H26B 8691   4.153   3.725   8.241 -0.5075 -1.7150 -0.3045
   84CHL1  H26C 8692   3.969   3.730   8.215  1.5667  0.8248  1.8397
   84CHL1   C27 8693   3.999   3.959   8.293 -0.4622 -0.7237  0.0441
   84CHL1  H27A 8694   3.901   3.906   8.301 -1.0960  0.3241 -0.5558
   84CHL1  H27B 8695   4.065   3.946   8.381 -0.4469  0.3770  0.2066
   84CHL1  H27C 8696   3.977   4.066   8.272  1.0327 -0.3750  0.2499
   85CHL1    C3 8697   4.367   0.712   6.711  0.4779 -0.0934  0.3486
   85CHL1    H3 8698   4.471   0.674   6.703  1.3943  2.4458 -0.4422
   85CHL1    O3 8699   4.307   0.708   6.582  0.1543 -0.0810  0.0587
   85CHL1   H3' 8700   4.216   0.736   6.599  0.1330  0.9718 -1.7118
   85CHL1    C4 8701   4.289   0.612   6.801  0.4329 -0.6867  0.1767
   85CHL1   H4A 8702   4.181   0.623   6.780  0.7169  2.1426  0.0331
   85CHL1   H4B 8703   4.312   0.511   6.761  2.2218 -1.1255  2.2683
   85CHL1    C5 8704   4.312   0.618   6.948 -0.2420 -0.0354 -0.2297
   85CHL1    C6 8705   4.339   0.508   7.020 -0.1646 -0.3846  0.1601
   85CHL1    H6 8706   4.345   0.411   6.966 -0.8981  0.9223 -2.3741
   85CHL1    C7 8707   4.361   0.513   7.171 -0.4146 -0.5679 -0.2707
   85CHL1   H7A 8708   4.310   0.426   7.218  1.9568 -1.4151  0.7892
   85CHL1   H7B 8709   4.471   0.513   7.187 -0.2267  0.3342 -1.4476
   85CHL1    C8 8710   4.319   0.648   7.241 -0.4325  0.3548  0.1281
   85CHL1    H8 8711   4.208   0.645   7.236 -0.4966 -0.6733  1.8423
   85CHL1   C14 8712   4.365   0.663   7.384 -0.5881 -0.7170  0.3917
   85CHL1   H14 8713   4.475   0.673   7.374 -0.4825 -2.7056 -0.7074
   85CHL1   C15 8714   4.345   0.546   7.478 -0.3013  0.7404 -0.4078
   85CHL1  H15A 8715   4.240   0.510   7.472 -0.0813 -0.0121  0.1956
   85CHL1  H15B 8716   4.416   0.460   7.472 -1.8656 -0.5435 -0.8761
   85CHL1   C16 8717   4.351   0.614   7.616  0.0017  0.0554  0.6179
   85CHL1  H16A 8718   4.255   0.603   7.671 -0.8253 -1.7595 -1.1348
   85CHL1  H16B 8719   4.430   0.561   7.674  1.0508  0.7847 -0.1471
   85CHL1   C17 8720   4.378   0.763   7.594 -0.0475  0.0771 -0.0783
   85CHL1   H17 8721   4.488   0.770   7.592  0.0318 -0.5621  1.2419
   85CHL1   C13 8722   4.324   0.793   7.457 -0.0846  0.0233  0.0633
   85CHL1   C18 8723   4.172   0.809   7.460 -0.5524  0.3789  0.6382
   85CHL1  H18A 8724   4.146   0.814   7.353  0.9070  0.1246  0.2551
   85CHL1  H18B 8725   4.128   0.724   7.517  0.9355  0.1722  1.5337
   85CHL1  H18C 8726   4.142   0.907   7.502  0.6991  1.2223 -0.4058
   85CHL1   C12 8727   4.384   0.907   7.375  0.5584  0.5121 -0.0003
   85CHL1  H12A 8728   4.341   0.998   7.421 -2.4836 -2.0703  2.5218
   85CHL1  H12B 8729   4.495   0.897   7.381  0.5570 -0.8100 -1.9624
   85CHL1   C11 8730   4.353   0.908   7.225 -0.9105  0.6005 -0.1641
   85CHL1  H11A 8731   4.251   0.948   7.211 -0.9866 -0.6720 -3.7600
   85CHL1  H11B 8732   4.431   0.976   7.185  1.2293 -1.7481 -0.0793
   85CHL1    C9 8733   4.366   0.765   7.150 -0.0142 -0.0735  0.3654
   85CHL1    H9 8734   4.475   0.743   7.144  0.2977  1.6675 -1.0637
   85CHL1   C10 8735   4.323   0.761   6.995  0.4395  0.3445 -0.0172
   85CHL1   C19 8736   4.174   0.813   6.991  0.0995  0.5194 -0.0478
   85CHL1  H19A 8737   4.120   0.747   7.062 -1.0617  0.3792 -1.0430
   85CHL1  H19B 8738   4.173   0.917   7.030  3.3591 -0.1986  2.1585
   85CHL1  H19C 8739   4.128   0.807   6.890  2.6524  0.0490 -1.2119
   85CHL1    C1 8740   4.411   0.849   6.914 -0.3469 -0.2849 -0.8552
   85CHL1   H1A 8741   4.382   0.953   6.942 -0.9854 -1.5019  3.4203
   85CHL1   H1B 8742   4.517   0.822   6.933 -0.2993 -0.6092 -1.5874
   85CHL1    C2 8743   4.374   0.855   6.772  0.3463 -0.8024  0.9152
   85CHL1   H2A 8744   4.445   0.927   6.725  0.6535 -1.3163  0.5842
   85CHL1   H2B 8745   4.274   0.901   6.758  0.4394  0.6286  4.3448
   85CHL1   C20 8746   4.333   0.847   7.716  0.3760 -0.0748 -0.3755
   85CHL1   H20 8747   4.223   0.854   7.710  0.3608  0.4939  0.5934
   85CHL1   C21 8748   4.390   0.988   7.701  0.6264 -0.3239 -0.3555
   85CHL1  H21A 8749   4.500   1.003   7.696  0.7044 -0.6345  0.3550
   85CHL1  H21B 8750   4.359   1.052   7.787  1.0244  0.9034 -1.1057
   85CHL1  H21C 8751   4.348   1.047   7.617 -0.4593 -0.3056  0.1853
   85CHL1   C22 8752   4.375   0.790   7.854  0.6519  1.0289  0.0027
   85CHL1  H22A 8753   4.345   0.683   7.854 -0.2045  1.2594  0.0082
   85CHL1  H22B 8754   4.486   0.796   7.851  0.7925 -1.4435 -2.1962
   85CHL1   C23 8755   4.324   0.870   7.977  0.2382 -0.3407 -0.6623
   85CHL1  H23A 8756   4.376   0.824   8.064  0.9088  0.4082 -0.6536
   85CHL1  H23B 8757   4.354   0.977   7.980  1.7935 -0.7321 -1.4193
   85CHL1   C24 8758   4.173   0.856   7.985 -0.1490  0.8745 -0.2180
   85CHL1  H24A 8759   4.117   0.908   7.905 -1.0291  1.6696  0.9059
   85CHL1  H24B 8760   4.140   0.750   7.993 -0.7818  0.9897 -1.3053
   85CHL1   C25 8761   4.119   0.909   8.123  0.2847  0.0887 -1.0917
   85CHL1   H25 8762   4.140   1.018   8.118  0.3826  0.1829  1.1104
   85CHL1   C26 8763   3.968   0.898   8.122 -0.4566  1.2719 -0.3822
   85CHL1  H26A 8764   3.914   0.936   8.211 -0.1216  0.8290  0.0078
   85CHL1  H26B 8765   3.926   0.958   8.038 -1.7163 -0.1560 -0.7822
   85CHL1  H26C 8766   3.931   0.796   8.101  1.0652  1.0099 -1.8806
   85CHL1   C27 8767   4.180   0.854   8.251  0.1407 -0.4948  0.4449
   85CHL1  H27A 8768   4.153   0.749   8.278 -2.6243  0.1280  0.3106
   85CHL1  H27B 8769   4.291   0.855   8.253  0.3358  2.0212 -4.8600
   85CHL1  H27C 8770   4.141   0.923   8.329  1.2062  0.6868 -0.0587
   86CHL1    C3 8771   6.690   5.578   7.152 -0.3763 -0.0067  0.7877
   86CHL1    H3 8772   6.622   5.665   7.163 -0.9438 -0.2972 -0.3549
   86CHL1    O3 8773   6.708   5.577   7.010 -0.2479  0.1101  0.5075
   86CHL1   H3' 8774   6.794   5.620   7.005 -0.9085  1.2507 -2.3772
   86CHL1    C4 8775   6.829   5.593   7.223  0.5882 -0.1523 -0.5404
   86CHL1   H4A 8776   6.908   5.519   7.196  0.5230 -0.5745  0.3770
   86CHL1   H4B 8777   6.862   5.695   7.193 -0.5027  0.3785  0.0497
   86CHL1    C5 8778   6.801   5.585   7.372 -0.0353 -0.0747 -0.3762
   86CHL1    C6 8779   6.834   5.692   7.445 -0.7780  0.8418  0.0913
   86CHL1    H6 8780   6.897   5.770   7.400  1.5672 -2.0671 -1.7953
   86CHL1    C7 8781   6.812   5.696   7.593 -0.0237 -0.5033  0.6765
   86CHL1   H7A 8782   6.893   5.753   7.643 -1.1803 -0.0078  2.0196
   86CHL1   H7B 8783   6.721   5.751   7.626  0.3656  1.2489 -1.1307
   86CHL1    C8 8784   6.799   5.554   7.659  0.0222  0.2680  0.4717
   86CHL1    H8 8785   6.894   5.497   7.654  1.1673  2.0892  0.7803
   86CHL1   C14 8786   6.756   5.572   7.804  0.2001 -0.1646  0.2203
   86CHL1   H14 8787   6.667   5.638   7.808  0.4909  0.1916  0.9130
   86CHL1   C15 8788   6.858   5.638   7.901 -0.2480 -0.2390  0.5671
   86CHL1  H15A 8789   6.957   5.587   7.897 -0.5970 -0.9487  0.8354
   86CHL1  H15B 8790   6.876   5.744   7.876  0.4580  0.0404  2.1670
   86CHL1   C16 8791   6.805   5.605   8.042 -0.1905 -0.6835 -0.2932
   86CHL1  H16A 8792   6.895   5.563   8.092 -1.4941 -2.8898  0.2391
   86CHL1  H16B 8793   6.766   5.689   8.104 -0.6889 -0.6498 -0.6470
   86CHL1   C17 8794   6.697   5.495   8.022 -0.1549 -0.2883  0.1139
   86CHL1   H17 8795   6.602   5.552   8.010  0.8430  1.1258 -1.4145
   86CHL1   C13 8796   6.721   5.442   7.877  1.3703 -0.2208 -0.2218
   86CHL1   C18 8797   6.841   5.338   7.872 -0.3169  0.0662  0.0849
   86CHL1  H18A 8798   6.864   5.312   7.767 -1.0494 -0.6508  0.0987
   86CHL1  H18B 8799   6.931   5.373   7.926  0.2379  1.9310 -1.9732
   86CHL1  H18C 8800   6.802   5.244   7.917  0.2187  0.0507  0.5150
   86CHL1   C12 8801   6.601   5.389   7.804  0.4563  0.3287  0.1983
   86CHL1  H12A 8802   6.583   5.291   7.852  0.1704  0.7484  0.9423
   86CHL1  H12B 8803   6.516   5.460   7.812  0.5071  0.4521 -0.3343
   86CHL1   C11 8804   6.625   5.359   7.653 -0.0949  0.0745  0.5116
   86CHL1  H11A 8805   6.681   5.264   7.634 -0.3496 -0.1966  1.0943
   86CHL1  H11B 8806   6.534   5.332   7.596  0.5047  0.0435 -0.4291
   86CHL1    C9 8807   6.689   5.484   7.576 -0.4764  0.0996 -1.0501
   86CHL1    H9 8808   6.605   5.556   7.570  0.2555  0.9370 -1.3312
   86CHL1   C10 8809   6.723   5.460   7.429 -0.1223 -0.2698  0.8345
   86CHL1   C19 8810   6.807   5.333   7.423 -0.1182 -0.2393 -0.0299
   86CHL1  H19A 8811   6.836   5.312   7.318  0.9055 -0.5195  0.3027
   86CHL1  H19B 8812   6.895   5.337   7.490 -0.1524 -0.2398  0.0156
   86CHL1  H19C 8813   6.739   5.253   7.460 -0.8923  0.5170  0.2095
   86CHL1    C1 8814   6.593   5.439   7.342  0.4488 -0.2283  0.0541
   86CHL1   H1A 8815   6.563   5.337   7.374  0.1801  0.3722  1.7547
   86CHL1   H1B 8816   6.512   5.511   7.366  1.8086  1.5899 -0.6967
   86CHL1    C2 8817   6.617   5.440   7.195 -0.0228  0.2018 -0.2659
   86CHL1   H2A 8818   6.525   5.427   7.134  1.3669  1.3695 -2.7258
   86CHL1   H2B 8819   6.689   5.364   7.158 -0.1648  0.0504 -0.2311
   86CHL1   C20 8820   6.672   5.407   8.147 -0.0881  0.0237 -0.2688
   86CHL1   H20 8821   6.595   5.335   8.111 -1.6390  2.0702 -1.1706
   86CHL1   C21 8822   6.617   5.496   8.259 -0.0224  0.4406  0.6389
   86CHL1  H21A 8823   6.691   5.575   8.282  1.1905 -0.8686  1.2942
   86CHL1  H21B 8824   6.585   5.438   8.348 -1.7124  0.8069  0.2958
   86CHL1  H21C 8825   6.515   5.538   8.240 -0.2470 -0.0158  0.8267
   86CHL1   C22 8826   6.785   5.327   8.205  0.0684 -0.2571 -0.2734
   86CHL1  H22A 8827   6.858   5.279   8.136 -1.0275 -0.1398 -1.5322
   86CHL1  H22B 8828   6.835   5.395   8.277 -0.8447 -1.0109  1.0970
   86CHL1   C23 8829   6.732   5.208   8.290  0.3952  0.0901 -0.6563
   86CHL1  H23A 8830   6.663   5.252   8.366 -0.7618 -1.9149 -0.5096
   86CHL1  H23B 8831   6.669   5.140   8.229 -2.2646  0.8143  1.1467
   86CHL1   C24 8832   6.845   5.117   8.351  0.1340  0.7346  0.8868
   86CHL1  H24A 8833   6.898   5.062   8.270 -0.3456  0.5486  0.7010
   86CHL1  H24B 8834   6.923   5.175   8.404  1.1024  0.8267 -0.5946
   86CHL1   C25 8835   6.798   5.005   8.449  0.9462  0.1615  0.1877
   86CHL1   H25 8836   6.721   5.058   8.509 -1.1087 -1.1788 -1.2220
   86CHL1   C26 8837   6.733   4.874   8.387 -0.3379  0.1106  0.5124
   86CHL1  H26A 8838   6.680   4.817   8.466  2.2494  0.2967  2.4186
   86CHL1  H26B 8839   6.666   4.911   8.306  1.7352  3.3237  0.2030
   86CHL1  H26C 8840   6.822   4.828   8.340  0.1186 -0.1852  1.6676
   86CHL1   C27 8841   6.910   4.960   8.544  0.4137 -0.5485 -0.2697
   86CHL1  H27A 8842   6.877   4.887   8.621  0.6117 -1.1723 -0.7764
   86CHL1  H27B 8843   6.996   4.907   8.499  1.0867 -1.0039  1.5118
   86CHL1  H27C 8844   6.939   5.051   8.600  1.3927  0.2733 -2.0672
   87CHL1    C3 8845   6.062   4.009   7.066 -0.9910  0.7287  0.6106
   87CHL1    H3 8846   6.170   4.017   7.040 -1.1381 -2.8183 -1.3398
   87CHL1    O3 8847   5.992   3.996   6.942 -0.3558 -0.1599  0.3690
   87CHL1   H3' 8848   5.922   3.932   6.954 -1.2461  0.6845 -0.3063
   87CHL1    C4 8849   6.043   3.888   7.153  0.4460 -0.0267  0.1939
   87CHL1   H4A 8850   5.938   3.852   7.150  0.5284 -0.1860 -0.9676
   87CHL1   H4B 8851   6.096   3.809   7.096  1.5503  0.9215 -0.1220
   87CHL1    C5 8852   6.096   3.908   7.294  0.6142  0.3138  0.0093
   87CHL1    C6 8853   6.197   3.838   7.339  0.4730  0.1878  1.0482
   87CHL1    H6 8854   6.235   3.764   7.267  0.7682  1.1074  0.2429
   87CHL1    C7 8855   6.252   3.859   7.479 -0.4246 -0.5249  0.2827
   87CHL1   H7A 8856   6.270   3.767   7.538  0.3081  1.0765  2.6605
   87CHL1   H7B 8857   6.351   3.909   7.467 -1.2068  0.8588 -0.5163
   87CHL1    C8 8858   6.170   3.952   7.570 -0.3682  0.3788 -0.2748
   87CHL1    H8 8859   6.094   3.889   7.620 -0.4402  1.5839  1.1603
   87CHL1   C14 8860   6.253   4.011   7.683 -1.5794  0.0666 -0.4167
   87CHL1   H14 8861   6.318   4.090   7.640  3.5978 -2.7128  1.9077
   87CHL1   C15 8862   6.344   3.913   7.756 -0.5714  0.0005  0.0592
   87CHL1  H15A 8863   6.287   3.819   7.768  0.5135 -0.5812  0.7237
   87CHL1  H15B 8864   6.436   3.884   7.700 -0.7413  0.0863 -0.2677
   87CHL1   C16 8865   6.381   3.985   7.891 -0.0837  0.1635 -0.6377
   87CHL1  H16A 8866   6.363   3.910   7.971 -0.7249  2.9078  1.8657
   87CHL1  H16B 8867   6.483   4.030   7.893  0.1599 -0.4151  0.2456
   87CHL1   C17 8868   6.289   4.111   7.893 -0.6590 -0.2772  0.3741
   87CHL1   H17 8869   6.340   4.197   7.846 -0.8484 -1.3114 -1.7979
   87CHL1   C13 8870   6.177   4.077   7.791  1.0887 -0.4906 -0.5187
   87CHL1   C18 8871   6.074   3.974   7.855 -0.1611 -0.0219 -0.4382
   87CHL1  H18A 8872   6.001   4.021   7.925  1.9126  0.4774  1.4283
   87CHL1  H18B 8873   6.003   3.927   7.783 -1.8957  0.5553  0.8447
   87CHL1  H18C 8874   6.125   3.899   7.919  0.3921 -1.3532 -2.3823
   87CHL1   C12 8875   6.096   4.197   7.716  0.0473 -0.2971 -0.6940
   87CHL1  H12A 8876   6.026   4.244   7.789  1.7190  1.8904 -0.4402
   87CHL1  H12B 8877   6.168   4.279   7.691 -0.4013  0.4841  0.4996
   87CHL1   C11 8878   6.021   4.151   7.590  0.5577  0.1595 -0.4218
   87CHL1  H11A 8879   5.939   4.092   7.636  1.9140 -1.5001 -0.0853
   87CHL1  H11B 8880   5.983   4.241   7.536  0.4096 -0.0149 -0.6102
   87CHL1    C9 8881   6.108   4.065   7.497 -0.4497 -0.4632  0.8526
   87CHL1    H9 8882   6.193   4.131   7.467 -1.8760  0.5905 -0.9738
   87CHL1   C10 8883   6.034   4.027   7.372 -0.6199 -0.4719  0.5555
   87CHL1   C19 8884   5.896   3.976   7.398  0.4482 -0.6766  1.2022
   87CHL1  H19A 8885   5.899   3.885   7.461 -1.4978 -2.2685 -0.9224
   87CHL1  H19B 8886   5.836   4.045   7.461  0.1190 -2.3040  2.7008
   87CHL1  H19C 8887   5.833   3.957   7.308  0.2409  1.9432  0.7376
   87CHL1    C1 8888   6.050   4.149   7.265  0.0859  0.8191 -0.3642
   87CHL1   H1A 8889   6.006   4.232   7.326  1.9480  0.1897  1.9001
   87CHL1   H1B 8890   6.160   4.167   7.263  0.1867  0.3971  1.0718
   87CHL1    C2 8891   6.002   4.128   7.128  0.6743  0.3378 -0.4881
   87CHL1   H2A 8892   6.019   4.219   7.067 -0.3699 -0.5073 -2.1002
   87CHL1   H2B 8893   5.891   4.122   7.130  0.7426 -2.5130 -2.0703
   87CHL1   C20 8894   6.256   4.157   8.037  0.0873 -0.1734  0.1971
   87CHL1   H20 8895   6.207   4.074   8.093  0.5195 -0.1258  0.6564
   87CHL1   C21 8896   6.164   4.279   8.027  0.4799  0.2550  0.0538
   87CHL1  H21A 8897   6.164   4.326   8.128 -1.8460 -1.5325  0.9245
   87CHL1  H21B 8898   6.062   4.238   8.018  0.8461 -0.6763  0.1005
   87CHL1  H21C 8899   6.187   4.348   7.942 -0.0540 -1.0764 -1.1791
   87CHL1   C22 8900   6.383   4.194   8.127 -0.3457  0.1792  0.2469
   87CHL1  H22A 8901   6.473   4.133   8.108  0.4479  1.6501 -0.7769
   87CHL1  H22B 8902   6.394   4.297   8.087  1.2734 -0.8120 -1.9177
   87CHL1   C23 8903   6.363   4.186   8.282 -0.1363 -0.5389 -0.5923
   87CHL1  H23A 8904   6.270   4.243   8.302 -0.0394 -0.0501 -1.4981
   87CHL1  H23B 8905   6.345   4.083   8.318  1.3162 -1.4861 -2.4281
   87CHL1   C24 8906   6.487   4.226   8.363  0.1285  0.0798  0.5994
   87CHL1  H24A 8907   6.571   4.158   8.336  0.5533  0.8610 -0.0452
   87CHL1  H24B 8908   6.505   4.333   8.340 -1.4903 -0.3473 -2.9243
   87CHL1   C25 8909   6.462   4.203   8.513 -0.5470 -0.0382 -0.6896
   87CHL1   H25 8910   6.432   4.097   8.527  0.0261 -0.3401 -1.6796
   87CHL1   C26 8911   6.580   4.248   8.595  0.3672 -0.0653 -0.3591
   87CHL1  H26A 8912   6.570   4.238   8.705  0.3151 -0.4815 -0.4004
   87CHL1  H26B 8913   6.673   4.194   8.566  0.7271  1.3572 -1.9018
   87CHL1  H26C 8914   6.612   4.351   8.569 -3.4222  1.2883  0.0447
   87CHL1   C27 8915   6.351   4.299   8.561  0.1634 -0.1074  0.5016
   87CHL1  H27A 8916   6.387   4.394   8.518  0.7686  0.4089  2.1167
   87CHL1  H27B 8917   6.252   4.277   8.515  0.7802 -0.7412 -0.5388
   87CHL1  H27C 8918   6.332   4.307   8.670  1.2414 -0.5569  0.7306
   88CHL1    C3 8919   3.863   1.981   6.809 -0.2624 -0.1858 -0.0918
   88CHL1    H3 8920   3.758   1.997   6.842 -0.1800 -0.5409  0.3435
   88CHL1    O3 8921   3.878   1.999   6.665 -0.3818 -0.4243 -0.1351
   88CHL1   H3' 8922   3.841   2.086   6.648  2.0378  0.2000 -2.4448
   88CHL1    C4 8923   3.946   2.076   6.895 -0.3820 -0.1907  0.2516
   88CHL1   H4A 8924   4.054   2.077   6.868 -0.5253  0.2142 -0.3259
   88CHL1   H4B 8925   3.920   2.178   6.861  1.8725  0.4977  0.5283
   88CHL1    C5 8926   3.935   2.050   7.038  0.1779 -0.2710 -0.9609
   88CHL1    C6 8927   3.888   2.149   7.118 -0.0678  0.2355  0.0462
   88CHL1    H6 8928   3.871   2.252   7.081  0.5775 -0.3360 -1.9043
   88CHL1    C7 8929   3.868   2.131   7.270 -0.0697  0.5029  0.5326
   88CHL1   H7A 8930   3.910   2.214   7.331 -0.7292 -0.2162  1.9930
   88CHL1   H7B 8931   3.762   2.122   7.303 -0.4632  0.4114 -0.7463
   88CHL1    C8 8932   3.939   2.003   7.323 -0.7695  0.5545  0.4520
   88CHL1    H8 8933   4.048   2.022   7.332  0.1419 -1.9785 -3.8760
   88CHL1   C14 8934   3.892   1.966   7.457 -0.4301 -0.3319 -0.0491
   88CHL1   H14 8935   3.790   1.922   7.453 -0.2189 -0.8333  0.0437
   88CHL1   C15 8936   3.881   2.082   7.564  0.3714  0.0941 -0.0954
   88CHL1  H15A 8937   3.968   2.151   7.551  0.4266  0.3379  1.4180
   88CHL1  H15B 8938   3.789   2.139   7.542  1.5422  1.6619 -1.0791
   88CHL1   C16 8939   3.875   1.999   7.699  0.5089  0.4457 -0.0890
   88CHL1  H16A 8940   3.959   2.041   7.758  2.6139 -2.1986 -1.1085
   88CHL1  H16B 8941   3.772   2.013   7.739  0.1898  1.1909 -1.1359
   88CHL1   C17 8942   3.889   1.848   7.658 -0.1609 -0.5319  0.4863
   88CHL1   H17 8943   3.785   1.825   7.630 -0.3112 -0.0223  0.6200
   88CHL1   C13 8944   3.965   1.852   7.518  0.0224 -0.9652  0.5632
   88CHL1   C18 8945   4.116   1.894   7.552 -0.3712  0.0999 -0.1630
   88CHL1  H18A 8946   4.182   1.805   7.564 -1.2582 -0.7615 -1.5553
   88CHL1  H18B 8947   4.157   1.946   7.462 -0.4717 -1.2101 -0.9863
   88CHL1  H18C 8948   4.123   1.967   7.635  0.0493 -0.2786  0.1375
   88CHL1   C12 8949   3.952   1.729   7.428  0.7220 -0.1085 -0.0226
   88CHL1  H12A 8950   4.003   1.642   7.475 -1.1470 -2.1660 -1.6957
   88CHL1  H12B 8951   3.848   1.692   7.419  0.5513  0.9044 -2.5270
   88CHL1   C11 8952   3.995   1.756   7.278  0.2620  0.2365 -0.1837
   88CHL1  H11A 8953   4.105   1.766   7.288  0.5572 -1.1385 -1.8515
   88CHL1  H11B 8954   3.974   1.664   7.220  0.3205  0.7865 -1.0767
   88CHL1    C9 8955   3.927   1.885   7.223  0.7235 -0.6607 -0.2372
   88CHL1    H9 8956   3.819   1.860   7.223 -0.0723  2.5970 -1.2415
   88CHL1   C10 8957   3.962   1.907   7.076 -0.2904  0.0372  0.5155
   88CHL1   C19 8958   4.107   1.876   7.054  0.2363  0.2321  0.2784
   88CHL1  H19A 8959   4.175   1.908   7.136  0.3102  0.1581  0.2456
   88CHL1  H19B 8960   4.119   1.766   7.059 -3.3601 -0.1988  0.8963
   88CHL1  H19C 8961   4.148   1.898   6.953  1.2148 -1.1866  0.3605
   88CHL1    C1 8962   3.880   1.815   6.990 -1.2458 -0.5985  0.4569
   88CHL1   H1A 8963   3.892   1.706   7.007  3.3829 -0.6184 -2.2138
   88CHL1   H1B 8964   3.770   1.828   7.002 -1.1523 -0.2404  0.9312
   88CHL1    C2 8965   3.902   1.836   6.845 -0.6878 -1.1476 -0.1623
   88CHL1   H2A 8966   3.842   1.767   6.782 -0.1628 -2.0648  0.3360
   88CHL1   H2B 8967   4.012   1.830   6.827 -0.0052  2.8675  2.1649
   88CHL1   C20 8968   3.934   1.757   7.778  0.0442 -0.1180 -0.0047
   88CHL1   H20 8969   4.044   1.744   7.769  0.6247  2.7008  2.1690
   88CHL1   C21 8970   3.873   1.624   7.751  0.3167  0.0417  0.1789
   88CHL1  H21A 8971   3.886   1.607   7.642 -1.5831  2.3760 -0.4520
   88CHL1  H21B 8972   3.765   1.622   7.777  0.0212 -0.3863 -1.0386
   88CHL1  H21C 8973   3.925   1.541   7.803 -0.7633  1.2930  3.3639
   88CHL1   C22 8974   3.888   1.809   7.913  0.5903  0.3808 -0.1131
   88CHL1  H22A 8975   3.944   1.904   7.931 -0.1551  0.2931  2.7953
   88CHL1  H22B 8976   3.780   1.838   7.909  0.9613  1.9764  1.0159
   88CHL1   C23 8977   3.917   1.722   8.034  0.2555  0.3367  0.4497
   88CHL1  H23A 8978   3.854   1.630   8.031 -1.6834  1.6681 -1.6882
   88CHL1  H23B 8979   4.021   1.690   8.012 -0.6877 -1.7127 -1.2414
   88CHL1   C24 8980   3.912   1.791   8.172 -1.1646 -0.0493 -0.1898
   88CHL1  H24A 8981   3.966   1.715   8.233  0.9791  0.8489 -0.9255
   88CHL1  H24B 8982   3.969   1.886   8.181 -1.4211  0.1552 -0.6850
   88CHL1   C25 8983   3.772   1.815   8.222  0.0408 -0.6179 -0.2909
   88CHL1   H25 8984   3.708   1.862   8.145  2.7263  0.0052 -2.2342
   88CHL1   C26 8985   3.700   1.685   8.242  0.4298  0.1179  0.0296
   88CHL1  H26A 8986   3.607   1.695   8.302  1.2261  0.2528  1.2546
   88CHL1  H26B 8987   3.678   1.646   8.141 -0.7420 -1.9035  1.0231
   88CHL1  H26C 8988   3.771   1.614   8.292 -0.3826  1.2974  2.9935
   88CHL1   C27 8989   3.779   1.892   8.353 -0.3829  0.0196 -0.4170
   88CHL1  H27A 8990   3.837   1.986   8.337 -0.7959 -0.0528 -2.4596
   88CHL1  H27B 8991   3.678   1.925   8.387 -0.3531 -1.4195  1.1555
   88CHL1  H27C 8992   3.827   1.836   8.436 -1.6639  1.4549  1.3666
   89CHL1    C3 8993   0.253   5.148   6.937 -0.7078  0.3223  0.2081
   89CHL1    H3 8994   0.357   5.144   6.898 -1.0842  2.1110 -1.0455
   89CHL1    O3 8995   0.175   5.213   6.835  0.3435 -0.0031 -0.3508
   89CHL1   H3' 8996   0.081   5.204   6.852  0.6348  0.9819  1.9867
   89CHL1    C4 8997   0.203   4.999   6.958 -0.2609 -0.0585 -0.4705
   89CHL1   H4A 8998   0.093   5.005   6.975 -0.0124  0.1804  1.1451
   89CHL1   H4B 8999   0.227   4.943   6.865 -1.7541 -1.3759 -0.0848
   89CHL1    C5 9000   0.256   4.933   7.085  0.3694  0.5653 -0.7415
   89CHL1    C6 9001   0.308   4.810   7.081  0.3813 -0.1380 -0.3826
   89CHL1    H6 9002   0.312   4.757   6.985 -1.5275 -0.1494 -0.4739
   89CHL1    C7 9003   0.353   4.735   7.200 -0.7368  0.1830 -0.3670
   89CHL1   H7A 9004   0.336   4.626   7.192 -2.0747  0.4940 -2.2757
   89CHL1   H7B 9005   0.463   4.742   7.191 -0.3480 -0.3796  3.3491
   89CHL1    C8 9006   0.304   4.803   7.340  0.3436 -0.3414 -0.2202
   89CHL1    H8 9007   0.204   4.758   7.358  0.3806 -0.1986  0.3333
   89CHL1   C14 9008   0.389   4.753   7.453 -0.3864  0.4933  0.9113
   89CHL1   H14 9009   0.494   4.785   7.443  0.6697 -2.3857  2.2732
   89CHL1   C15 9010   0.405   4.597   7.457  0.2751 -0.6775  0.1955
   89CHL1  H15A 9011   0.316   4.542   7.419 -0.0877 -0.4446  0.7102
   89CHL1  H15B 9012   0.502   4.572   7.409  0.5527  0.4290  0.1736
   89CHL1   C16 9013   0.415   4.565   7.605 -0.1581 -0.4669  0.5813
   89CHL1  H16A 9014   0.322   4.514   7.639  0.0286 -1.1330  0.1048
   89CHL1  H16B 9015   0.504   4.500   7.618  1.0628  0.9422 -0.5213
   89CHL1   C17 9016   0.423   4.697   7.679 -0.6433  0.1758 -0.4795
   89CHL1   H17 9017   0.530   4.724   7.668 -0.1076 -1.2338  1.0701
   89CHL1   C13 9018   0.334   4.795   7.588  0.0383 -0.2778 -0.1056
   89CHL1   C18 9019   0.186   4.749   7.603 -1.0920 -0.1575 -0.0804
   89CHL1  H18A 9020   0.168   4.639   7.595  2.1788 -0.4728 -5.1440
   89CHL1  H18B 9021   0.157   4.786   7.703  0.8411 -0.9166  0.7875
   89CHL1  H18C 9022   0.113   4.790   7.530 -1.5605 -1.9537 -0.6432
   89CHL1   C12 9023   0.351   4.943   7.600  0.4997 -0.4341 -0.2517
   89CHL1  H12A 9024   0.285   4.977   7.683  2.2508 -0.0322  1.0005
   89CHL1  H12B 9025   0.458   4.964   7.619  0.6459 -1.4152  0.0826
   89CHL1   C11 9026   0.294   5.018   7.480  0.5549 -0.0177  0.4557
   89CHL1  H11A 9027   0.188   5.023   7.515  0.2245 -0.6381 -0.4317
   89CHL1  H11B 9028   0.338   5.119   7.475 -1.4062  0.7600 -2.8064
   89CHL1    C9 9029   0.320   4.947   7.341  0.0715 -0.2848 -0.3680
   89CHL1    H9 9030   0.428   4.960   7.319  0.3546 -0.8173  0.6582
   89CHL1   C10 9031   0.243   5.013   7.221 -0.0259 -0.4692  0.6772
   89CHL1   C19 9032   0.092   5.021   7.266 -0.1158  0.7206 -0.2328
   89CHL1  H19A 9033   0.076   5.097   7.345 -0.4681 -0.1333  0.5291
   89CHL1  H19B 9034   0.027   5.044   7.178 -2.2809  1.8020  1.5906
   89CHL1  H19C 9035   0.064   4.918   7.296 -0.7363  0.7222 -0.7760
   89CHL1    C1 9036   0.314   5.152   7.184 -0.4988 -0.2754  0.2579
   89CHL1   H1A 9037   0.299   5.219   7.272 -0.1108  1.3819 -0.9199
   89CHL1   H1B 9038   0.423   5.132   7.176 -0.8188 -2.6536  1.4325
   89CHL1    C2 9039   0.250   5.235   7.069  0.6884 -0.3872  0.5822
   89CHL1   H2A 9040   0.300   5.332   7.050 -2.6826  1.6867  1.9276
   89CHL1   H2B 9041   0.149   5.274   7.096  0.9821  2.1362 -1.7424
   89CHL1   C20 9042   0.401   4.696   7.832  0.9557 -0.1561  0.0777
   89CHL1   H20 9043   0.294   4.682   7.859  0.7022 -1.2638 -1.4980
   89CHL1   C21 9044   0.454   4.817   7.908 -0.1064  0.0091 -0.3605
   89CHL1  H21A 9045   0.562   4.842   7.901 -0.1564  0.5660  0.6803
   89CHL1  H21B 9046   0.450   4.801   8.018  1.0992  0.5069 -0.2340
   89CHL1  H21C 9047   0.405   4.910   7.873  0.3033 -0.0344 -1.0562
   89CHL1   C22 9048   0.471   4.570   7.898 -0.2290 -0.4490 -0.1921
   89CHL1  H22A 9049   0.433   4.474   7.858 -1.2081  0.6278 -1.8618
   89CHL1  H22B 9050   0.574   4.569   7.857  0.4282  0.3156  1.3849
   89CHL1   C23 9051   0.468   4.565   8.050  0.6585  0.2663  0.7983
   89CHL1  H23A 9052   0.539   4.642   8.088  0.0730  1.1169  0.1790
   89CHL1  H23B 9053   0.369   4.606   8.078  0.2253  1.1514 -1.9167
   89CHL1   C24 9054   0.481   4.429   8.128  0.4655  0.3058  0.0132
   89CHL1  H24A 9055   0.381   4.381   8.121  1.0004 -0.6682 -1.0230
   89CHL1  H24B 9056   0.555   4.368   8.072 -1.5397 -1.2906 -0.9879
   89CHL1   C25 9057   0.502   4.436   8.283  0.4690  0.4172  0.1106
   89CHL1   H25 9058   0.424   4.507   8.318 -0.1971 -0.5953  0.7149
   89CHL1   C26 9059   0.493   4.294   8.341  0.5177 -0.2448 -0.4087
   89CHL1  H26A 9060   0.535   4.218   8.271 -1.1072 -1.6948  0.1309
   89CHL1  H26B 9061   0.533   4.291   8.444  0.0597  1.2355 -0.1820
   89CHL1  H26C 9062   0.388   4.258   8.338  0.1588  0.7511 -0.0507
   89CHL1   C27 9063   0.634   4.501   8.325 -0.5446 -0.1801  0.8223
   89CHL1  H27A 9064   0.634   4.605   8.285 -0.8519  1.1507  4.1264
   89CHL1  H27B 9065   0.646   4.506   8.435 -1.4121 -1.1539  0.9666
   89CHL1  H27C 9066   0.714   4.440   8.277  0.6831  0.0160  2.5837
   90CHL1    C3 9067   0.028   0.377   7.091 -0.1047 -0.1071 -0.3007
   90CHL1    H3 9068  -0.075   0.337   7.077 -1.2759  1.4523  3.3536
   90CHL1    O3 9069   0.077   0.391   6.963  0.1292  0.2865 -0.2104
   90CHL1   H3' 9070   0.170   0.368   6.969  0.3804  0.1957 -3.4258
   90CHL1    C4 9071   0.006   0.507   7.159 -0.1206 -0.1395  0.4662
   90CHL1   H4A 9072   0.102   0.562   7.155  0.2065 -0.7768 -0.9634
   90CHL1   H4B 9073  -0.065   0.559   7.092 -1.2155  0.6862  2.2262
   90CHL1    C5 9074  -0.047   0.499   7.300 -0.1492  0.3135 -0.1675
   90CHL1    C6 9075  -0.157   0.562   7.341 -0.0167  0.0244 -0.1598
   90CHL1    H6 9076  -0.209   0.623   7.266  2.7404  1.6603 -0.8105
   90CHL1    C7 9077  -0.212   0.546   7.485 -0.4760  0.5994  0.2308
   90CHL1   H7A 9078  -0.237   0.647   7.525 -2.4844  0.6645 -1.1221
   90CHL1   H7B 9079  -0.306   0.487   7.483  0.2697 -0.6408  1.0748
   90CHL1    C8 9080  -0.110   0.486   7.583 -0.9482  0.3499 -0.4295
   90CHL1    H8 9081  -0.040   0.567   7.610 -0.3211 -1.2026  2.9036
   90CHL1   C14 9082  -0.179   0.439   7.710  0.1917 -0.2652  0.2323
   90CHL1   H14 9083  -0.242   0.355   7.674  1.5161 -1.0544 -0.3006
   90CHL1   C15 9084  -0.278   0.531   7.789 -0.8333 -0.2298 -0.2874
   90CHL1  H15A 9085  -0.252   0.639   7.793  2.5260 -0.9594 -0.9977
   90CHL1  H15B 9086  -0.375   0.516   7.737 -0.5724  2.4169 -1.6163
   90CHL1   C16 9087  -0.268   0.472   7.934  0.3077 -0.0225 -0.2337
   90CHL1  H16A 9088  -0.213   0.543   7.998 -1.0295 -0.7823  1.8080
   90CHL1  H16B 9089  -0.368   0.449   7.978  0.0567  1.7164  0.1288
   90CHL1   C17 9090  -0.182   0.350   7.924 -0.0245 -0.0604 -0.0756
   90CHL1   H17 9091  -0.247   0.271   7.880 -2.8886  2.5268 -0.6116
   90CHL1   C13 9092  -0.085   0.378   7.814  0.1549  0.1790 -0.0950
   90CHL1   C18 9093   0.011   0.499   7.851 -0.6743 -0.1069  0.5865
   90CHL1  H18A 9094   0.087   0.474   7.927  1.6017 -0.7276 -1.8166
   90CHL1  H18B 9095   0.069   0.530   7.761  1.5042 -2.0797  1.2988
   90CHL1  H18C 9096  -0.049   0.590   7.874 -2.1902 -0.2130 -2.5911
   90CHL1   C12 9097  -0.010   0.260   7.758 -0.5133 -0.3822  0.2884
   90CHL1  H12A 9098   0.071   0.227   7.827 -2.8896 -0.4196  3.1524
   90CHL1  H12B 9099  -0.076   0.172   7.749 -1.8662  0.7169 -0.7333
   90CHL1   C11 9100   0.061   0.294   7.624 -0.0404 -0.8045 -0.3909
   90CHL1  H11A 9101   0.140   0.366   7.656 -0.4262  0.0972 -1.4360
   90CHL1  H11B 9102   0.116   0.208   7.581  1.3153  0.5816 -1.4657
   90CHL1    C9 9103  -0.033   0.367   7.522 -0.1338 -0.7128  0.2877
   90CHL1    H9 9104  -0.111   0.297   7.485 -1.1288 -0.3072  1.5562
   90CHL1   C10 9105   0.039   0.400   7.386  0.0745 -0.0973 -0.2974
   90CHL1   C19 9106   0.179   0.468   7.412 -0.5029  0.1326  0.2288
   90CHL1  H19A 9107   0.170   0.563   7.469  0.5510  0.8384 -0.7637
   90CHL1  H19B 9108   0.252   0.400   7.461 -1.4982 -0.3023  1.1226
   90CHL1  H19C 9109   0.226   0.493   7.315  1.5032  0.4067  1.2379
   90CHL1    C1 9110   0.059   0.260   7.313 -0.3631  0.0680 -0.7210
   90CHL1   H1A 9111   0.122   0.192   7.375 -0.7039 -0.4897 -0.9841
   90CHL1   H1B 9112  -0.043   0.219   7.298 -0.7372  0.6599  0.1713
   90CHL1    C2 9113   0.117   0.282   7.172  0.0352  0.3215 -0.0872
   90CHL1   H2A 9114   0.137   0.182   7.128 -0.1521 -0.1987  0.9981
   90CHL1   H2B 9115   0.219   0.325   7.180  0.3170 -0.0563 -1.4193
   90CHL1   C20 9116  -0.120   0.291   8.052 -0.1257 -0.6539  0.0097
   90CHL1   H20 9117  -0.011   0.285   8.028  0.2338 -1.1618  1.6574
   90CHL1   C21 9118  -0.146   0.134   8.046  0.0810  0.0398 -0.0484
   90CHL1  H21A 9119  -0.148   0.096   7.941  0.1761 -0.0630 -0.0108
   90CHL1  H21B 9120  -0.251   0.117   8.078 -0.9628  2.8885 -1.6687
   90CHL1  H21C 9121  -0.076   0.085   8.117  0.4420  0.8493  0.1583
   90CHL1   C22 9122  -0.167   0.351   8.186 -0.3828 -0.2529  0.1742
   90CHL1  H22A 9123  -0.105   0.442   8.196 -0.9546  0.2011 -0.3781
   90CHL1  H22B 9124  -0.274   0.378   8.189 -0.4130 -0.2333 -0.9315
   90CHL1   C23 9125  -0.136   0.263   8.309  0.3072  0.3543 -0.5328
   90CHL1  H23A 9126  -0.201   0.174   8.300 -1.4676  1.8126 -2.4261
   90CHL1  H23B 9127  -0.028   0.235   8.299 -0.2166 -1.0298 -2.5916
   90CHL1   C24 9128  -0.164   0.348   8.434 -0.3963  0.4054 -0.3355
   90CHL1  H24A 9129  -0.130   0.452   8.416 -0.1151 -0.2929 -4.2703
   90CHL1  H24B 9130  -0.274   0.356   8.423 -0.1188  2.0546 -2.0551
   90CHL1   C25 9131  -0.133   0.280   8.572  0.0490  0.6376 -0.4457
   90CHL1   H25 9132  -0.190   0.348   8.639  0.1626  0.5926 -0.3060
   90CHL1   C26 9133  -0.203   0.142   8.581 -0.1645  0.1314  0.2781
   90CHL1  H26A 9134  -0.170   0.094   8.676  1.6103  1.4772  0.3688
   90CHL1  H26B 9135  -0.314   0.147   8.578 -0.1585 -0.4629 -2.0335
   90CHL1  H26C 9136  -0.170   0.072   8.501  0.0510 -0.3289  0.7638
   90CHL1   C27 9137   0.012   0.274   8.612 -0.4218  0.3886  0.1309
   90CHL1  H27A 9138   0.018   0.249   8.720 -1.6601  0.7038  0.2744
   90CHL1  H27B 9139   0.073   0.198   8.559  0.3582  1.3431 -0.3699
   90CHL1  H27C 9140   0.063   0.373   8.607  0.7024 -0.1191  1.2642
   91CHL1    C3 9141   1.604   0.923   7.251  0.4128  0.2631 -0.2272
   91CHL1    H3 9142   1.516   0.988   7.271  1.8107  1.6063  1.8062
   91CHL1    O3 9143   1.644   0.946   7.117  0.2874 -0.2928  0.1337
   91CHL1   H3' 9144   1.579   0.919   7.052  1.1198  1.5824 -1.5096
   91CHL1    C4 9145   1.711   0.948   7.359 -1.0273  0.1885 -0.6012
   91CHL1   H4A 9146   1.794   0.875   7.345  1.5156  2.7662  0.5104
   91CHL1   H4B 9147   1.748   1.049   7.334 -2.1001  0.2915 -1.8088
   91CHL1    C5 9148   1.649   0.935   7.498  0.3369 -0.0894 -0.0641
   91CHL1    C6 9149   1.639   1.040   7.581 -0.1371  0.9015  0.0576
   91CHL1    H6 9150   1.681   1.138   7.555 -0.2163  0.5216 -1.5860
   91CHL1    C7 9151   1.575   1.018   7.714 -0.4217  0.1693  0.3492
   91CHL1   H7A 9152   1.634   1.080   7.785  1.1636 -1.6773  0.7159
   91CHL1   H7B 9153   1.473   1.062   7.717 -0.5654 -0.1483  0.1619
   91CHL1    C8 9154   1.567   0.872   7.766  0.0162  0.2339 -0.0850
   91CHL1    H8 9155   1.664   0.829   7.800 -0.4438  0.4563  1.5467
   91CHL1   C14 9156   1.466   0.873   7.884 -0.0679 -0.7790  0.4579
   91CHL1   H14 9157   1.372   0.912   7.840 -0.1867  0.1754  1.5416
   91CHL1   C15 9158   1.505   0.964   8.003 -0.2626  0.1642  0.4515
   91CHL1  H15A 9159   1.606   0.943   8.044 -0.3392  1.0757  1.1055
   91CHL1  H15B 9160   1.487   1.071   7.979 -2.5066  0.3092  2.6262
   91CHL1   C16 9161   1.403   0.919   8.114 -0.0122 -0.2558 -0.2810
   91CHL1  H16A 9162   1.459   0.900   8.208  0.4124 -0.2447 -0.5312
   91CHL1  H16B 9163   1.315   0.984   8.131  0.5857  0.2587  0.8873
   91CHL1   C17 9164   1.348   0.786   8.059 -0.2676  0.5511  0.7226
   91CHL1   H17 9165   1.250   0.815   8.014 -0.3714  0.5649  0.9560
   91CHL1   C13 9166   1.446   0.739   7.948  0.2172 -0.1843 -0.1684
   91CHL1   C18 9167   1.574   0.675   8.003  0.2681  0.1358  0.2827
   91CHL1  H18A 9168   1.549   0.573   8.041 -0.0090 -0.5915 -1.7496
   91CHL1  H18B 9169   1.656   0.660   7.928 -1.0117 -1.4929 -0.8273
   91CHL1  H18C 9170   1.620   0.734   8.085 -2.0875  1.8450  0.4026
   91CHL1   C12 9171   1.388   0.656   7.837 -1.2484 -0.1618  0.1382
   91CHL1  H12A 9172   1.368   0.552   7.870  1.0434 -0.9907 -1.0073
   91CHL1  H12B 9173   1.290   0.693   7.799 -1.5336 -0.1529  0.8723
   91CHL1   C11 9174   1.485   0.646   7.715 -0.2377  0.2237 -0.3174
   91CHL1  H11A 9175   1.587   0.615   7.747 -0.3673  0.5788  0.4610
   91CHL1  H11B 9176   1.427   0.588   7.641 -2.3925  1.0909  0.6417
   91CHL1    C9 9177   1.512   0.784   7.661  0.8997 -0.0256  0.4138
   91CHL1    H9 9178   1.412   0.825   7.635  1.5546  0.5657 -1.1857
   91CHL1   C10 9179   1.590   0.795   7.524  0.6191 -0.2538  0.4079
   91CHL1   C19 9180   1.718   0.706   7.535  1.0191 -0.7367  0.4093
   91CHL1  H19A 9181   1.695   0.602   7.570  0.6368 -0.3186  1.4266
   91CHL1  H19B 9182   1.777   0.692   7.442 -3.1036  1.6485 -2.7595
   91CHL1  H19C 9183   1.781   0.758   7.609  0.4475  0.0158  0.3723
   91CHL1    C1 9184   1.497   0.759   7.402 -0.2631  0.1127  0.4871
   91CHL1   H1A 9185   1.460   0.655   7.412  0.4342 -0.3508 -1.5111
   91CHL1   H1B 9186   1.406   0.823   7.407 -1.5613 -1.5040 -1.6374
   91CHL1    C2 9187   1.561   0.779   7.267 -0.8166 -0.3707 -0.6223
   91CHL1   H2A 9188   1.478   0.759   7.196  0.3935 -1.6113 -1.7074
   91CHL1   H2B 9189   1.649   0.713   7.250 -0.0354 -0.0992  2.1221
   91CHL1   C20 9190   1.315   0.682   8.168 -0.1728  0.1327 -0.5036
   91CHL1   H20 9191   1.407   0.628   8.199 -1.3277 -0.6158  1.7408
   91CHL1   C21 9192   1.211   0.583   8.113 -0.1114 -0.2611  0.8338
   91CHL1  H21A 9193   1.269   0.521   8.042  0.2092 -0.0708  0.9310
   91CHL1  H21B 9194   1.130   0.632   8.054  0.9834  1.1460  0.4809
   91CHL1  H21C 9195   1.164   0.512   8.185  1.8442 -0.4849  1.9235
   91CHL1   C22 9196   1.259   0.739   8.300 -0.0566 -0.3538 -0.1449
   91CHL1  H22A 9197   1.319   0.821   8.344 -1.9896  2.4503 -2.5977
   91CHL1  H22B 9198   1.157   0.773   8.276 -0.8533 -2.1954  0.4894
   91CHL1   C23 9199   1.249   0.639   8.417 -0.4334  0.0362 -0.3053
   91CHL1  H23A 9200   1.160   0.577   8.393  0.5180 -0.6027 -2.2566
   91CHL1  H23B 9201   1.344   0.582   8.419 -1.5939 -1.9276  0.9933
   91CHL1   C24 9202   1.226   0.708   8.551 -0.6084 -0.5924  0.0018
   91CHL1  H24A 9203   1.323   0.749   8.587 -1.2866  0.8889  0.1436
   91CHL1  H24B 9204   1.153   0.789   8.531  0.3186 -0.3390 -2.5861
   91CHL1   C25 9205   1.182   0.628   8.678  0.4658 -0.1338  0.2561
   91CHL1   H25 9206   1.182   0.695   8.766  0.8285  0.6635 -0.3414
   91CHL1   C26 9207   1.046   0.555   8.664 -0.8385 -0.3039  0.2314
   91CHL1  H26A 9208   1.053   0.494   8.571 -1.4288  0.7699 -0.5335
   91CHL1  H26B 9209   1.015   0.503   8.757  2.4776 -1.4146  0.7809
   91CHL1  H26C 9210   0.968   0.633   8.648  0.1118  0.5226 -0.3878
   91CHL1   C27 9211   1.298   0.542   8.716  0.1433 -0.2618 -0.2975
   91CHL1  H27A 9212   1.281   0.492   8.814  0.6597 -1.5388 -0.8397
   91CHL1  H27B 9213   1.331   0.461   8.648  2.3587  1.1350 -0.9496
   91CHL1  H27C 9214   1.390   0.603   8.735  1.8106 -2.6480 -0.4727
   92CHL1    C3 9215   4.539   2.978   6.847  0.1396 -0.0224  0.5534
   92CHL1    H3 9216   4.587   2.878   6.839  0.1663  0.1663 -2.2881
   92CHL1    O3 9217   4.540   3.039   6.713 -0.2892 -0.0658  0.5914
   92CHL1   H3' 9218   4.519   3.133   6.720 -0.7350 -0.1737  0.6858
   92CHL1    C4 9219   4.396   2.955   6.873  0.5686  0.8448 -0.2549
   92CHL1   H4A 9220   4.343   3.051   6.857 -0.4737  0.1552 -1.0258
   92CHL1   H4B 9221   4.352   2.891   6.793  0.5057  0.0859  0.3733
   92CHL1    C5 9222   4.371   2.898   7.012  0.2368  0.0416  0.1608
   92CHL1    C6 9223   4.321   2.776   7.030 -0.1906 -0.2913 -0.4068
   92CHL1    H6 9224   4.291   2.705   6.951 -2.9312 -0.4976  0.7642
   92CHL1    C7 9225   4.306   2.713   7.163 -0.6593  0.1484  0.6421
   92CHL1   H7A 9226   4.214   2.650   7.170 -1.5084  1.6110  3.4634
   92CHL1   H7B 9227   4.390   2.642   7.178 -0.2461  0.7075  0.9890
   92CHL1    C8 9228   4.298   2.820   7.271  1.2086  0.2145 -0.3861
   92CHL1    H8 9229   4.212   2.888   7.258  0.8253 -0.6587 -2.6662
   92CHL1   C14 9230   4.286   2.759   7.409 -0.3005 -0.3642  0.2661
   92CHL1   H14 9231   4.369   2.685   7.411 -0.4810 -0.5467  1.2327
   92CHL1   C15 9232   4.158   2.683   7.441  0.2243  0.1899 -0.1247
   92CHL1  H15A 9233   4.070   2.740   7.404 -0.6358 -0.2035  1.2766
   92CHL1  H15B 9234   4.167   2.584   7.391 -1.5353 -0.0307 -0.0402
   92CHL1   C16 9235   4.165   2.673   7.599  0.3566  0.8133  0.0501
   92CHL1  H16A 9236   4.065   2.701   7.640  0.9745  1.4737  1.1342
   92CHL1  H16B 9237   4.194   2.570   7.628 -0.2075  0.6000 -0.1217
   92CHL1   C17 9238   4.285   2.759   7.642 -0.2323  0.2262 -0.2571
   92CHL1   H17 9239   4.372   2.691   7.647 -2.4852 -2.9237 -1.8671
   92CHL1   C13 9240   4.307   2.854   7.528  0.0293  0.2465 -0.7681
   92CHL1   C18 9241   4.200   2.964   7.533  0.6427  0.1507 -0.3843
   92CHL1  H18A 9242   4.105   2.916   7.565  0.6578  0.0609 -0.4759
   92CHL1  H18B 9243   4.241   3.040   7.603  2.6452  0.3087 -1.7154
   92CHL1  H18C 9244   4.175   3.008   7.435 -0.8366 -1.9442 -0.9901
   92CHL1   C12 9245   4.450   2.923   7.518  0.2162  0.4300  0.2713
   92CHL1  H12A 9246   4.470   2.983   7.609 -1.4822  1.5972 -0.1016
   92CHL1  H12B 9247   4.523   2.839   7.521 -1.9411 -1.4773  0.3978
   92CHL1   C11 9248   4.452   3.001   7.390  0.6099 -0.3476 -0.2153
   92CHL1  H11A 9249   4.379   3.084   7.384 -1.6255 -2.3783 -3.6496
   92CHL1  H11B 9250   4.554   3.042   7.376  0.9586 -1.6773 -1.8054
   92CHL1    C9 9251   4.430   2.905   7.270 -0.3195 -0.2239 -0.4835
   92CHL1    H9 9252   4.517   2.836   7.270  1.0144  1.3940  2.3201
   92CHL1   C10 9253   4.435   2.970   7.127 -0.5110 -0.3218  0.2404
   92CHL1   C19 9254   4.336   3.097   7.129 -0.0850  0.4313 -0.0770
   92CHL1  H19A 9255   4.232   3.070   7.159 -0.7197  2.4165 -0.3676
   92CHL1  H19B 9256   4.351   3.163   7.217  0.8548 -0.8435  0.7338
   92CHL1  H19C 9257   4.337   3.157   7.035  0.4307  0.2611 -0.1791
   92CHL1    C1 9258   4.578   3.019   7.094 -0.0373 -0.6438  0.7508
   92CHL1   H1A 9259   4.591   3.106   7.162 -1.7755  0.7535 -0.6642
   92CHL1   H1B 9260   4.652   2.940   7.121  1.2017 -0.1437 -1.0778
   92CHL1    C2 9261   4.603   3.067   6.951 -0.2465 -0.2094 -0.2249
   92CHL1   H2A 9262   4.712   3.082   6.932 -0.5400  0.4990 -1.3821
   92CHL1   H2B 9263   4.556   3.166   6.935  2.2574  0.9211 -0.9563
   92CHL1   C20 9264   4.280   2.814   7.783 -0.4570 -0.2970 -0.2905
   92CHL1   H20 9265   4.231   2.913   7.783  0.6108  0.2566 -2.1343
   92CHL1   C21 9266   4.421   2.815   7.848  0.0873 -0.7398 -0.9305
   92CHL1  H21A 9267   4.495   2.861   7.778  0.5379  0.8599  0.5683
   92CHL1  H21B 9268   4.461   2.711   7.849 -1.0837 -1.1843  0.4494
   92CHL1  H21C 9269   4.422   2.856   7.951 -2.1272 -0.0917 -1.1478
   92CHL1   C22 9270   4.174   2.736   7.871  0.4553  0.5150  0.2134
   92CHL1  H22A 9271   4.073   2.771   7.843  0.9569  2.5375  0.8632
   92CHL1  H22B 9272   4.181   2.627   7.849 -0.1605  0.4275  0.4496
   92CHL1   C23 9273   4.190   2.758   8.024  0.1138  0.2746  0.2190
   92CHL1  H23A 9274   4.291   2.736   8.064 -0.6200 -0.8521  1.5398
   92CHL1  H23B 9275   4.171   2.866   8.039 -0.8681  0.2542 -0.8157
   92CHL1   C24 9276   4.090   2.684   8.108  0.5679  0.2286  0.6977
   92CHL1  H24A 9277   3.989   2.725   8.088  1.0380  1.6851  1.2517
   92CHL1  H24B 9278   4.096   2.574   8.094  0.8369  0.0160  2.4017
   92CHL1   C25 9279   4.108   2.721   8.260  0.0917  0.5702  0.6607
   92CHL1   H25 9280   4.215   2.709   8.288  0.4297 -1.1735 -1.3120
   92CHL1   C26 9281   4.067   2.864   8.289  0.1493 -0.5272  0.6730
   92CHL1  H26A 9282   4.120   2.936   8.223 -0.0264 -0.4377  0.6300
   92CHL1  H26B 9283   3.958   2.878   8.271  0.7345  4.0000  0.2512
   92CHL1  H26C 9284   4.081   2.880   8.398  0.7784  0.5304  0.4424
   92CHL1   C27 9285   4.037   2.620   8.356  0.2435 -0.1781  0.3058
   92CHL1  H27A 9286   4.072   2.516   8.337 -1.9612 -0.5337 -2.0194
   92CHL1  H27B 9287   4.044   2.652   8.463 -4.3624  2.4421 -0.0383
   92CHL1  H27C 9288   3.926   2.618   8.345  0.1845 -0.7772  0.9764
   93CHL1    C3 9289   2.988   0.211   6.945 -0.4769  1.1594  0.6846
   93CHL1    H3 9290   3.044   0.305   6.964  0.8745 -0.0344  2.8629
   93CHL1    O3 9291   2.961   0.197   6.808  0.3306  0.3533 -0.1593
   93CHL1   H3' 9292   2.896   0.264   6.786 -0.7737 -0.4517  0.6597
   93CHL1    C4 9293   3.081   0.101   6.991 -0.4907  0.0121  0.0100
   93CHL1   H4A 9294   3.024   0.006   6.990  0.2329 -0.4268 -0.6007
   93CHL1   H4B 9295   3.165   0.107   6.917 -1.0168  2.0816 -0.4466
   93CHL1    C5 9296   3.117   0.130   7.140  0.2653  0.6310  0.0902
   93CHL1    C6 9297   3.243   0.154   7.167  1.2206 -0.2280 -0.1587
   93CHL1    H6 9298   3.312   0.158   7.081  1.0836 -0.8949 -0.3069
   93CHL1    C7 9299   3.293   0.168   7.311 -0.1209  0.5828  0.1668
   93CHL1   H7A 9300   3.391   0.122   7.335  0.4790  0.7264 -1.9313
   93CHL1   H7B 9301   3.314   0.277   7.325 -0.6075  0.8918 -1.3938
   93CHL1    C8 9302   3.181   0.133   7.423  0.2649  0.1985 -0.4638
   93CHL1    H8 9303   3.173   0.023   7.427 -0.7080  0.3155  1.0315
   93CHL1   C14 9304   3.219   0.185   7.560 -0.4508 -0.0690 -0.2938
   93CHL1   H14 9305   3.230   0.295   7.553  2.5079 -0.2500  0.6566
   93CHL1   C15 9306   3.353   0.152   7.626 -0.4541  0.0126  0.4550
   93CHL1  H15A 9307   3.408   0.055   7.628 -0.0658  0.2559  2.2229
   93CHL1  H15B 9308   3.430   0.227   7.599 -0.3058 -0.2528  0.1342
   93CHL1   C16 9309   3.319   0.176   7.776 -0.7205  0.1826 -0.1633
   93CHL1  H16A 9310   3.323   0.076   7.825 -1.7664  0.8288  1.2556
   93CHL1  H16B 9311   3.395   0.245   7.819  0.2490  0.8844 -2.8917
   93CHL1   C17 9312   3.178   0.236   7.784 -0.7378 -0.3902  0.6215
   93CHL1   H17 9313   3.192   0.344   7.766  2.9105 -1.0391 -0.8904
   93CHL1   C13 9314   3.110   0.160   7.668 -1.3326 -0.5311  0.1328
   93CHL1   C18 9315   3.081   0.010   7.698  0.1718 -0.6675  0.4940
   93CHL1  H18A 9316   2.982   0.020   7.746  0.3717 -0.2931  0.8322
   93CHL1  H18B 9317   3.066  -0.047   7.604 -1.2735 -0.1582  0.4076
   93CHL1  H18C 9318   3.156  -0.036   7.767  0.3632 -0.0566  0.6993
   93CHL1   C12 9319   2.974   0.223   7.624 -0.0194 -0.1154 -0.0362
   93CHL1  H12A 9320   2.906   0.189   7.704 -0.0155  0.3620  0.1726
   93CHL1  H12B 9321   2.974   0.334   7.620  2.5872 -0.0393  0.7762
   93CHL1   C11 9322   2.931   0.172   7.489  0.2603  0.0017  0.3073
   93CHL1  H11A 9323   2.907   0.063   7.495  0.3478 -0.0395 -0.0432
   93CHL1  H11B 9324   2.838   0.228   7.465  0.4367  0.3277  0.3961
   93CHL1    C9 9325   3.040   0.190   7.379 -0.2603 -0.2868  0.0947
   93CHL1    H9 9326   3.047   0.301   7.376 -2.2005 -0.1940 -1.9739
   93CHL1   C10 9327   2.996   0.139   7.239 -0.0145 -0.9162 -0.7645
   93CHL1   C19 9328   2.939  -0.001   7.253  0.2796  0.6049 -0.3945
   93CHL1  H19A 9329   3.009  -0.081   7.287 -0.6170  1.0917  2.8442
   93CHL1  H19B 9330   2.851  -0.006   7.322 -0.2945  3.2129 -0.8903
   93CHL1  H19C 9331   2.901  -0.047   7.160  0.4574 -1.4632  0.5249
   93CHL1    C1 9332   2.885   0.231   7.177 -0.2897  0.0541  0.3750
   93CHL1   H1A 9333   2.802   0.208   7.247  0.4408 -1.0925  0.8733
   93CHL1   H1B 9334   2.902   0.340   7.195 -1.2701  0.5780 -1.7927
   93CHL1    C2 9335   2.859   0.212   7.026  0.4705  0.1440  0.1350
   93CHL1   H2A 9336   2.792   0.290   6.985 -2.8362 -1.9531  1.2904
   93CHL1   H2B 9337   2.797   0.122   7.004 -2.1507  2.2065 -1.2096
   93CHL1   C20 9338   3.104   0.228   7.923 -0.3193  0.1265 -0.5488
   93CHL1   H20 9339   2.994   0.232   7.915 -0.2380 -0.3893 -1.9653
   93CHL1   C21 9340   3.142   0.347   8.011  0.1101  0.3153 -0.7325
   93CHL1  H21A 9341   3.108   0.345   8.117  0.4670 -0.0859 -0.6225
   93CHL1  H21B 9342   3.107   0.439   7.961 -1.7875 -0.4333 -0.8307
   93CHL1  H21C 9343   3.253   0.345   8.010  0.1817  3.4733 -1.4285
   93CHL1   C22 9344   3.147   0.097   8.008  1.0810 -0.4787 -0.1948
   93CHL1  H22A 9345   3.143   0.000   7.953  2.2159 -0.4991 -0.2699
   93CHL1  H22B 9346   3.251   0.113   8.044  1.1975 -0.5683 -0.4964
   93CHL1   C23 9347   3.054   0.061   8.130  0.9583  0.7496  0.6526
   93CHL1  H23A 9348   3.079  -0.038   8.174  0.2745 -1.4107 -3.6478
   93CHL1  H23B 9349   3.090   0.134   8.206  0.7868  2.5232 -0.9442
   93CHL1   C24 9350   2.901   0.075   8.105 -0.1942 -0.3193 -0.2314
   93CHL1  H24A 9351   2.872   0.181   8.085  0.1965  0.4699  3.0056
   93CHL1  H24B 9352   2.868   0.020   8.014 -1.1426 -2.4046  1.3433
   93CHL1   C25 9353   2.804   0.051   8.224 -0.6131 -0.3491  0.3707
   93CHL1   H25 9354   2.703   0.085   8.194 -0.9368 -0.5505  1.2259
   93CHL1   C26 9355   2.797  -0.104   8.254  0.0763  0.5686  0.3843
   93CHL1  H26A 9356   2.899  -0.141   8.280  0.1370 -1.3197 -2.2829
   93CHL1  H26B 9357   2.730  -0.122   8.341  0.7894 -0.3089  0.7720
   93CHL1  H26C 9358   2.763  -0.149   8.158  1.1729  0.7012 -0.0763
   93CHL1   C27 9359   2.843   0.125   8.355  0.2278  0.5603  0.7472
   93CHL1  H27A 9360   2.779   0.105   8.444 -1.7943  0.6936 -0.6288
   93CHL1  H27B 9361   2.950   0.114   8.381  0.0809 -1.8957  0.4304
   93CHL1  H27C 9362   2.826   0.234   8.339  1.2211  0.4175 -1.4558
   94CHL1    C3 9363   4.957   4.523   6.726  0.2303 -0.1201 -1.0057
   94CHL1    H3 9364   5.013   4.619   6.723  0.8490 -0.2936  2.7457
   94CHL1    O3 9365   4.909   4.496   6.599 -0.1471  0.1753  0.2203
   94CHL1   H3' 9366   4.910   4.402   6.577 -2.4465  0.4201 -1.1153
   94CHL1    C4 9367   5.058   4.415   6.762  0.1687  0.0271  0.8240
   94CHL1   H4A 9368   5.008   4.316   6.750  0.3415  0.1933 -1.4453
   94CHL1   H4B 9369   5.138   4.417   6.685 -1.0898  0.5548 -0.4673
   94CHL1    C5 9370   5.106   4.432   6.910 -0.1296  0.2281  0.0286
   94CHL1    C6 9371   5.237   4.445   6.941  0.2543 -0.7874 -0.3424
   94CHL1    H6 9372   5.301   4.436   6.852  1.2805  0.9834  0.1849
   94CHL1    C7 9373   5.290   4.452   7.080  1.1343 -0.0319  0.3100
   94CHL1   H7A 9374   5.379   4.389   7.098 -0.1109 -1.7603  0.4710
   94CHL1   H7B 9375   5.314   4.557   7.108 -2.0154  0.5441  1.1047
   94CHL1    C8 9376   5.181   4.415   7.183 -0.0320  0.9005  0.3737
   94CHL1    H8 9377   5.161   4.305   7.178  1.0546  0.7278 -0.2559
   94CHL1   C14 9378   5.217   4.468   7.324  0.4080  0.5404  0.2288
   94CHL1   H14 9379   5.216   4.579   7.317  1.3354  0.5386 -0.1022
   94CHL1   C15 9380   5.362   4.429   7.374  0.1168 -0.4429  0.6860
   94CHL1  H15A 9381   5.399   4.332   7.333  2.7107  0.6783  0.2524
   94CHL1  H15B 9382   5.437   4.505   7.342 -2.3601  1.0051 -1.8039
   94CHL1   C16 9383   5.359   4.443   7.529 -0.1817 -0.0666  0.6328
   94CHL1  H16A 9384   5.378   4.340   7.565 -0.9430 -0.0056  1.2106
   94CHL1  H16B 9385   5.429   4.515   7.576  0.0776 -0.1315  0.3487
   94CHL1   C17 9386   5.208   4.488   7.551  0.3547  0.4054 -0.1363
   94CHL1   H17 9387   5.202   4.598   7.533 -0.2602  0.5788  1.1041
   94CHL1   C13 9388   5.121   4.433   7.436  0.7053  0.2681 -0.7895
   94CHL1   C18 9389   5.099   4.282   7.443  0.3645 -0.6779  0.1831
   94CHL1  H18A 9390   5.029   4.263   7.526  0.3182 -1.3142  0.0037
   94CHL1  H18B 9391   5.053   4.249   7.347 -1.9723  0.2363  0.9808
   94CHL1  H18C 9392   5.190   4.224   7.470  1.0023  0.0112 -0.4466
   94CHL1   C12 9393   4.989   4.505   7.408 -0.0475 -0.0548  0.5340
   94CHL1  H12A 9394   4.912   4.484   7.485 -1.6794  2.4229 -0.3220
   94CHL1  H12B 9395   5.002   4.616   7.413 -1.1688  0.1686 -1.0005
   94CHL1   C11 9396   4.933   4.474   7.269  0.4504  0.1332 -0.2014
   94CHL1  H11A 9397   4.881   4.376   7.276  0.9563 -0.0625  0.8655
   94CHL1  H11B 9398   4.847   4.542   7.252  1.3474  1.7505  1.5335
   94CHL1    C9 9399   5.043   4.484   7.155 -0.0760 -0.3587  0.4987
   94CHL1    H9 9400   5.064   4.593   7.153 -0.0388 -0.3602  0.7500
   94CHL1   C10 9401   4.991   4.442   7.016  0.5613 -0.1628  0.5847
   94CHL1   C19 9402   4.913   4.306   7.029 -1.7715  0.5128 -0.1856
   94CHL1  H19A 9403   4.899   4.246   6.937  1.3706 -1.2653  0.4173
   94CHL1  H19B 9404   4.972   4.236   7.092 -1.8871 -1.0989 -1.8368
   94CHL1  H19C 9405   4.824   4.328   7.091 -2.2562  1.4328 -1.1969
   94CHL1    C1 9406   4.890   4.547   6.966 -0.2506  0.5627 -0.2302
   94CHL1   H1A 9407   4.801   4.569   7.028 -1.3558  1.4758 -2.0993
   94CHL1   H1B 9408   4.941   4.645   6.954 -1.9462  1.5218  0.2764
   94CHL1    C2 9409   4.842   4.520   6.822 -0.1181 -0.7460  0.5881
   94CHL1   H2A 9410   4.767   4.599   6.802  1.4451  0.4969 -0.4657
   94CHL1   H2B 9411   4.785   4.425   6.819  0.1777 -0.8605 -1.6680
   94CHL1   C20 9412   5.158   4.466   7.689  0.1012  0.3380  0.6202
   94CHL1   H20 9413   5.047   4.478   7.692  0.0894  0.9432 -1.6489
   94CHL1   C21 9414   5.214   4.595   7.766 -0.4491  0.3643  0.2306
   94CHL1  H21A 9415   5.184   4.697   7.734 -2.6431 -0.2632  0.2073
   94CHL1  H21B 9416   5.324   4.607   7.764 -0.4365  0.6209  1.8308
   94CHL1  H21C 9417   5.190   4.594   7.875  0.6041  0.1154  0.4672
   94CHL1   C22 9418   5.197   4.338   7.760  0.3041  0.4053  0.1953
   94CHL1  H22A 9419   5.201   4.253   7.688 -0.9079  0.4409  0.0885
   94CHL1  H22B 9420   5.295   4.355   7.809 -0.1966  0.2249  1.2800
   94CHL1   C23 9421   5.086   4.291   7.863 -0.1838 -0.6435  0.4095
   94CHL1  H23A 9422   5.079   4.374   7.936 -0.0014  0.5519 -0.9065
   94CHL1  H23B 9423   4.986   4.300   7.815 -0.5628  1.7768  1.5535
   94CHL1   C24 9424   5.123   4.154   7.917  0.6389 -0.1401 -0.0255
   94CHL1  H24A 9425   5.133   4.081   7.834  2.7147  2.1433 -1.8767
   94CHL1  H24B 9426   5.220   4.155   7.970  0.2131  2.6737  0.7680
   94CHL1   C25 9427   5.020   4.103   8.020  0.0411  0.3154 -0.5800
   94CHL1   H25 9428   5.006   4.192   8.085  1.0821  0.2607 -0.2666
   94CHL1   C26 9429   4.889   4.067   7.958  0.0238 -0.1491  0.2900
   94CHL1  H26A 9430   4.841   4.147   7.897  0.3762 -0.3386 -0.2445
   94CHL1  H26B 9431   4.900   3.975   7.896 -1.0237  0.9470 -1.5830
   94CHL1  H26C 9432   4.812   4.044   8.034  1.1384 -0.7586  1.2626
   94CHL1   C27 9433   5.078   3.993   8.104  0.1024  0.6533 -0.9581
   94CHL1  H27A 9434   5.099   3.907   8.035 -0.5587 -0.1064 -0.2219
   94CHL1  H27B 9435   5.165   4.028   8.164 -1.0290  0.3821  0.8491
   94CHL1  H27C 9436   5.007   3.951   8.178  0.3728  2.0612  0.1149
   95CHL1    C3 9437   4.874   2.550   6.691 -0.1658 -0.8307  0.0453
   95CHL1    H3 9438   4.977   2.516   6.713  0.3394  0.3053 -0.5288
   95CHL1    O3 9439   4.850   2.572   6.553  0.1392  0.1100  0.4624
   95CHL1   H3' 9440   4.914   2.636   6.521  0.9127 -1.0295 -0.2959
   95CHL1    C4 9441   4.779   2.447   6.745 -0.6523  0.4650 -0.4524
   95CHL1   H4A 9442   4.673   2.472   6.723 -0.7713  1.3872  1.0361
   95CHL1   H4B 9443   4.800   2.354   6.689  0.2247  1.1819 -1.3373
   95CHL1    C5 9444   4.765   2.423   6.894 -0.2194 -0.3726 -0.2074
   95CHL1    C6 9445   4.793   2.298   6.943 -0.2545  0.2484 -0.0358
   95CHL1    H6 9446   4.816   2.208   6.883  1.4331  0.7236 -0.1181
   95CHL1    C7 9447   4.796   2.268   7.091 -0.4400 -0.1373  0.1290
   95CHL1   H7A 9448   4.747   2.169   7.105  1.9854 -1.2771  0.9213
   95CHL1   H7B 9449   4.902   2.253   7.121 -0.8331 -1.9466  0.6862
   95CHL1    C8 9450   4.732   2.384   7.183  0.1396  0.1323  0.5590
   95CHL1    H8 9451   4.622   2.379   7.168  0.8696 -5.5564 -4.5506
   95CHL1   C14 9452   4.774   2.362   7.322  0.7270 -0.0319 -0.1350
   95CHL1   H14 9453   4.885   2.369   7.319  0.6665  1.9344  1.1544
   95CHL1   C15 9454   4.754   2.224   7.392 -0.3338  0.6146 -0.3417
   95CHL1  H15A 9455   4.654   2.180   7.370 -0.0948  0.2531 -0.7119
   95CHL1  H15B 9456   4.832   2.155   7.353 -0.8462 -0.3812  0.3871
   95CHL1   C16 9457   4.772   2.262   7.540  0.0382 -0.1458  0.1101
   95CHL1  H16A 9458   4.688   2.226   7.603  0.4317  0.7567  1.1549
   95CHL1  H16B 9459   4.865   2.211   7.575  1.5285  0.2004 -3.1499
   95CHL1   C17 9460   4.797   2.420   7.545 -0.2430  0.7079  0.5449
   95CHL1   H17 9461   4.906   2.428   7.526 -0.2800  1.0613  0.4847
   95CHL1   C13 9462   4.739   2.471   7.417  0.4946 -0.0308  0.1838
   95CHL1   C18 9463   4.586   2.493   7.438 -0.1046  0.6588 -0.6464
   95CHL1  H18A 9464   4.537   2.408   7.488 -1.7196  2.4620  0.9176
   95CHL1  H18B 9465   4.573   2.589   7.493  1.9817  1.4033 -1.3994
   95CHL1  H18C 9466   4.532   2.509   7.343 -2.6608  0.0995  0.6773
   95CHL1   C12 9467   4.795   2.606   7.367  0.7129  0.3001  0.0568
   95CHL1  H12A 9468   4.781   2.693   7.435 -2.3277 -1.8704  2.3396
   95CHL1  H12B 9469   4.905   2.599   7.358  0.6709  3.2124 -4.1701
   95CHL1   C11 9470   4.747   2.637   7.224 -0.1987  0.5636 -0.3855
   95CHL1  H11A 9471   4.637   2.652   7.229 -0.5138 -2.1999  2.6963
   95CHL1  H11B 9472   4.788   2.739   7.206 -0.7771  0.9546  0.4756
   95CHL1    C9 9473   4.783   2.521   7.126  0.0397  0.2650  0.1786
   95CHL1    H9 9474   4.894   2.520   7.122  0.0873  0.1781  1.4158
   95CHL1   C10 9475   4.749   2.550   6.975  0.2212  0.7167 -0.0812
   95CHL1   C19 9476   4.601   2.606   6.967  0.4975  0.6848 -0.2683
   95CHL1  H19A 9477   4.556   2.594   6.866  1.0818  1.2117 -0.5914
   95CHL1  H19B 9478   4.534   2.553   7.037 -0.1712  0.6101 -0.9505
   95CHL1  H19C 9479   4.617   2.714   6.989  0.8762  0.5356  0.1653
   95CHL1    C1 9480   4.847   2.659   6.926 -0.1970  0.3743 -0.3875
   95CHL1   H1A 9481   4.844   2.752   6.987  2.2713  0.1864  0.0804
   95CHL1   H1B 9482   4.952   2.627   6.946 -0.3034  1.0766  1.4240
   95CHL1    C2 9483   4.845   2.683   6.772 -0.3482  0.3561  0.6729
   95CHL1   H2A 9484   4.901   2.769   6.730  1.0268 -0.2202  1.2817
   95CHL1   H2B 9485   4.736   2.702   6.766 -0.5922 -0.3754  2.4247
   95CHL1   C20 9486   4.753   2.482   7.679  0.0994  0.1559 -0.0386
   95CHL1   H20 9487   4.644   2.464   7.690  0.3357 -0.7674  0.9385
   95CHL1   C21 9488   4.784   2.636   7.689 -0.5434  0.3833  0.2841
   95CHL1  H21A 9489   4.891   2.656   7.670 -0.6059 -0.1493 -0.6884
   95CHL1  H21B 9490   4.754   2.676   7.789  0.2968 -1.4835  1.3157
   95CHL1  H21C 9491   4.725   2.693   7.615  1.7580  1.6176 -0.6471
   95CHL1   C22 9492   4.822   2.416   7.804 -0.5528 -0.0585  0.6703
   95CHL1  H22A 9493   4.786   2.311   7.818  1.6280 -0.9674 -0.3065
   95CHL1  H22B 9494   4.932   2.416   7.788 -0.5416  0.0994  0.7418
   95CHL1   C23 9495   4.804   2.485   7.942  0.2944 -0.3189 -0.1777
   95CHL1  H23A 9496   4.883   2.439   8.005 -0.8528  1.8893  3.0674
   95CHL1  H23B 9497   4.838   2.591   7.947 -2.0127  0.3975  1.4031
   95CHL1   C24 9498   4.665   2.476   8.001  0.2872 -0.8122  0.7137
   95CHL1  H24A 9499   4.592   2.541   7.949  1.2872  0.3946  0.7800
   95CHL1  H24B 9500   4.635   2.370   7.991  1.8257 -1.1406 -0.6167
   95CHL1   C25 9501   4.662   2.506   8.158  0.3889 -0.3594  0.6965
   95CHL1   H25 9502   4.757   2.460   8.192  0.7833 -0.7466 -0.8763
   95CHL1   C26 9503   4.661   2.652   8.194  0.3404 -0.0121 -0.4429
   95CHL1  H26A 9504   4.707   2.683   8.290  3.6282  0.9988 -2.2641
   95CHL1  H26B 9505   4.712   2.710   8.114 -2.3338  0.0800 -2.1069
   95CHL1  H26C 9506   4.562   2.700   8.185  0.3992  0.5180  1.5434
   95CHL1   C27 9507   4.553   2.426   8.231  0.0232  0.2397  0.5758
   95CHL1  H27A 9508   4.541   2.330   8.177  1.7494  1.0894 -1.4044
   95CHL1  H27B 9509   4.591   2.402   8.332 -0.7058  0.7147  0.9687
   95CHL1  H27C 9510   4.451   2.469   8.227 -0.1080 -0.1969 -1.0665
   96CHL1    C3 9511   5.202   1.849   6.783 -0.0987 -0.1848  0.1267
   96CHL1    H3 9512   5.270   1.767   6.753 -0.0893  0.2248 -0.9806
   96CHL1    O3 9513   5.140   1.895   6.670  0.0906  0.0189 -0.1395
   96CHL1   H3' 9514   5.222   1.913   6.623  0.4179 -0.6736  0.1680
   96CHL1    C4 9515   5.094   1.780   6.871 -0.7482 -0.2003  0.2713
   96CHL1   H4A 9516   5.004   1.845   6.871  0.0091  0.8614 -0.5653
   96CHL1   H4B 9517   5.062   1.689   6.815  1.0925 -0.1284 -0.9290
   96CHL1    C5 9518   5.130   1.757   7.017  0.3397 -0.2197 -0.0869
   96CHL1    C6 9519   5.126   1.639   7.063  0.1349  0.1991  0.0688
   96CHL1    H6 9520   5.091   1.559   6.997 -1.6085  1.0678 -0.0906
   96CHL1    C7 9521   5.165   1.590   7.202  0.4843  0.8642  0.3592
   96CHL1   H7A 9522   5.079   1.531   7.238 -0.9668  2.0217 -1.1247
   96CHL1   H7B 9523   5.266   1.544   7.202  0.0926 -0.0374  3.5218
   96CHL1    C8 9524   5.160   1.716   7.297 -0.1762 -0.6029  0.5498
   96CHL1    H8 9525   5.053   1.744   7.307 -0.2903 -0.5555 -0.7273
   96CHL1   C14 9526   5.221   1.683   7.428 -0.4943 -0.8940  0.1520
   96CHL1   H14 9527   5.331   1.671   7.416 -0.3592  0.2488  0.2009
   96CHL1   C15 9528   5.187   1.552   7.503 -0.1378 -0.0248 -0.4181
   96CHL1  H15A 9529   5.081   1.519   7.508  0.1985 -0.8381  1.4593
   96CHL1  H15B 9530   5.244   1.464   7.467 -0.7337 -0.7757  0.4632
   96CHL1   C16 9531   5.238   1.586   7.650  0.6956 -0.4675 -0.3212
   96CHL1  H16A 9532   5.150   1.574   7.716  0.3128 -0.5747 -0.8509
   96CHL1  H16B 9533   5.322   1.520   7.684  0.0941 -0.7298  0.6857
   96CHL1   C17 9534   5.277   1.734   7.660 -0.3946  0.1948 -0.1118
   96CHL1   H17 9535   5.386   1.729   7.636 -0.9154 -0.9762 -2.4225
   96CHL1   C13 9536   5.210   1.792   7.530  0.7306 -0.5441  0.2260
   96CHL1   C18 9537   5.063   1.831   7.560  0.0925 -0.6021  0.2575
   96CHL1  H18A 9538   5.000   1.742   7.583 -0.2765  0.3229  3.0808
   96CHL1  H18B 9539   5.053   1.906   7.641 -1.1522 -2.3891  1.7959
   96CHL1  H18C 9540   5.012   1.873   7.471 -0.8362 -1.3877  0.4139
   96CHL1   C12 9541   5.284   1.916   7.477  0.1871 -0.5032  0.3305
   96CHL1  H12A 9542   5.265   2.004   7.542 -0.8027 -0.4076 -0.0832
   96CHL1  H12B 9543   5.393   1.894   7.478  0.2381 -0.2834  2.2479
   96CHL1   C11 9544   5.236   1.953   7.336 -0.0502 -0.7741  0.1683
   96CHL1  H11A 9545   5.135   1.995   7.353  0.5860  0.3498  1.2469
   96CHL1  H11B 9546   5.294   2.033   7.286 -1.4827 -1.3069 -2.4519
   96CHL1    C9 9547   5.234   1.835   7.234 -0.1544 -0.5058 -0.2491
   96CHL1    H9 9548   5.341   1.807   7.225 -0.0584 -0.9164  1.9471
   96CHL1   C10 9549   5.182   1.873   7.091  0.4158 -0.4728  0.3633
   96CHL1   C19 9550   5.069   1.970   7.105  0.1236 -0.2702 -0.0707
   96CHL1  H19A 9551   4.988   1.924   7.165  0.4656 -1.1804 -0.2938
   96CHL1  H19B 9552   5.104   2.060   7.160 -0.5106  1.4280 -2.3679
   96CHL1  H19C 9553   5.025   2.006   7.010  0.5284  1.7467  0.4968
   96CHL1    C1 9554   5.299   1.948   7.000 -0.2479 -0.1575  0.0914
   96CHL1   H1A 9555   5.335   2.044   7.042  0.3603  0.7297 -2.3682
   96CHL1   H1B 9556   5.389   1.882   6.996  1.9789  2.8637 -3.6987
   96CHL1    C2 9557   5.256   1.967   6.853  0.9746 -0.0407  0.2056
   96CHL1   H2A 9558   5.345   2.003   6.797  0.2349  0.4875 -0.6479
   96CHL1   H2B 9559   5.187   2.054   6.856  0.7908 -0.2036  0.7353
   96CHL1   C20 9560   5.272   1.809   7.803  1.0477 -0.0634 -1.0108
   96CHL1   H20 9561   5.283   1.917   7.780 -1.8022 -0.0914 -2.6874
   96CHL1   C21 9562   5.402   1.766   7.884  0.4721 -0.3374  0.3942
   96CHL1  H21A 9563   5.400   1.657   7.861 -0.6428 -0.7059  2.1514
   96CHL1  H21B 9564   5.399   1.791   7.992 -0.8195  1.3457 -0.0129
   96CHL1  H21C 9565   5.491   1.809   7.834  1.6429 -2.4324  0.6203
   96CHL1   C22 9566   5.136   1.793   7.889 -0.4376  0.1651 -0.2075
   96CHL1  H22A 9567   5.049   1.775   7.821 -0.4799  1.1778 -0.4328
   96CHL1  H22B 9568   5.135   1.702   7.951 -2.0435 -0.3656 -0.9744
   96CHL1   C23 9569   5.095   1.922   7.964  0.5831 -0.2073 -0.5965
   96CHL1  H23A 9570   5.173   1.934   8.042  0.4322 -0.1312 -0.4568
   96CHL1  H23B 9571   5.107   2.001   7.887  1.3387  0.2764  0.0080
   96CHL1   C24 9572   4.949   1.917   8.026  0.1485  0.2621 -0.2041
   96CHL1  H24A 9573   4.874   1.890   7.949 -0.5591  2.9122 -0.5097
   96CHL1  H24B 9574   4.944   1.848   8.113  1.7054  1.9035  1.2347
   96CHL1   C25 9575   4.902   2.045   8.090  0.0737 -1.0740 -0.3585
   96CHL1   H25 9576   4.909   2.130   8.019 -0.8640  1.1243  2.1003
   96CHL1   C26 9577   4.753   2.038   8.134  0.3833  1.0006 -0.0479
   96CHL1  H26A 9578   4.684   1.990   8.061 -0.5818  0.8878  0.9266
   96CHL1  H26B 9579   4.745   1.962   8.215 -1.5252 -0.6137 -1.6808
   96CHL1  H26C 9580   4.711   2.133   8.174 -1.6644 -0.5793  1.7562
   96CHL1   C27 9581   4.984   2.083   8.221 -0.3721  0.1174 -1.1227
   96CHL1  H27A 9582   5.021   1.998   8.283  0.3850  3.5101  3.3462
   96CHL1  H27B 9583   5.085   2.124   8.196  0.1473 -0.3738  0.1563
   96CHL1  H27C 9584   4.941   2.164   8.283 -1.6637 -1.2151 -0.2693
   97OSM      N 9585   2.838   3.006  11.494 -0.1476  0.0900 -0.3528
   97OSM    C15 9586   2.816   3.060  11.638  0.3408  0.6072 -0.0790
   97OSM   H15A 9587   2.911   3.076  11.688 -0.2156  1.1605  0.8072
   97OSM   H15B 9588   2.761   2.992  11.701 -1.5073  1.7476 -0.4388
   97OSM   H15C 9589   2.765   3.155  11.637  0.6492  0.7907  0.8795
   97OSM    C14 9590   2.907   2.876  11.511  0.4630  0.3518 -0.1467
   97OSM   H14A 9591   2.850   2.818  11.583  0.6059 -0.4321 -0.6694
   97OSM   H14B 9592   3.002   2.880  11.562 -0.4973 -4.7065  2.3778
   97OSM   H14C 9593   2.900   2.821  11.418 -0.7117  0.7382 -0.3050
   97OSM    C13 9594   2.698   2.978  11.430  0.1434  0.3040 -0.4106
   97OSM   H13A 9595   2.654   2.900  11.490  1.2415 -0.4221 -0.5389
   97OSM   H13B 9596   2.714   2.948  11.328  0.5580 -1.2242  0.0876
   97OSM   H13C 9597   2.633   3.064  11.437  1.4660  1.5641 -3.2156
   97OSM    C12 9598   2.920   3.103  11.411  0.7075 -1.1750 -0.0784
   97OSM   H12A 9599   3.019   3.112  11.451  0.1193  0.0708  1.1388
   97OSM   H12B 9600   2.871   3.198  11.427 -1.1344 -2.0091 -0.6465
   97OSM    C11 9601   2.937   3.084  11.253  0.2243  0.3401  0.8284
   97OSM   H11A 9602   2.964   2.977  11.252  0.3113  0.3460 -1.6446
   97OSM   H11B 9603   3.021   3.150  11.221  0.4270 -0.8533 -1.1850
   97OSM      P 9604   2.773   3.266  11.172  0.0687 -0.2267  0.3168
   97OSM    O13 9605   2.619   3.264  11.177 -0.1987 -0.2226 -0.6980
   97OSM    O14 9606   2.841   3.350  11.275  0.6783 -0.1072 -0.3517
   97OSM    O11 9607   2.830   3.307  11.025 -0.1866 -0.1288 -0.1974
   97OSM    O12 9608   2.821   3.114  11.179  0.0786 -0.3787 -0.3212
   97OSM    C1S 9609   2.771   3.237  10.916  0.1577 -0.5897 -0.2750
   97OSM    H1S 9610   2.675   3.289  10.894 -0.2988 -1.7059 -0.9163
   97OSM    H1T 9611   2.728   3.137  10.936 -0.0408 -0.6443 -0.9623
   97OSM     NF 9612   2.764   3.187  10.688 -0.2846  0.4496  0.1599
   97OSM    HNF 9613   2.792   3.100  10.650  1.4962  0.1473  2.0258
   97OSM    C2S 9614   2.851   3.231  10.790  0.0280 -0.8522  0.3205
   97OSM    H2S 9615   2.881   3.334  10.760 -1.4533  0.0057  1.7236
   97OSM    C3S 9616   2.978   3.149  10.812 -0.6820 -0.1526  0.5162
   97OSM    H3S 9617   2.938   3.045  10.818  0.2403 -0.5424  0.1457
   97OSM     O3 9618   3.046   3.183  10.936  0.1498  0.2482  0.5264
   97OSM    HO3 9619   2.978   3.223  10.991  1.8304  1.9422  1.4292
   97OSM    C4S 9620   3.071   3.156  10.690  0.4553 -0.2440 -0.0149
   97OSM    H4S 9621   3.061   3.084  10.607 -1.5078  1.2768 -1.1112
   97OSM    C5S 9622   3.160   3.255  10.675  0.0092 -0.7908 -0.1322
   97OSM    H5S 9623   3.175   3.330  10.754 -0.3413 -0.6791 -0.1703
   97OSM    C6S 9624   3.257   3.276  10.559  0.0089  0.7065 -0.6883
   97OSM    H6S 9625   3.360   3.288  10.599 -0.4712  0.4753  0.6605
   97OSM    H6T 9626   3.228   3.373  10.513 -0.1829  0.6831 -0.6197
   97OSM    C7S 9627   3.266   3.167  10.455 -0.0489 -0.0955 -0.6030
   97OSM    H7S 9628   3.183   3.173  10.382 -0.8352  0.2727  0.3083
   97OSM    H7T 9629   3.257   3.066  10.501 -1.8705  0.1984 -0.2581
   97OSM    C8S 9630   3.392   3.174  10.365  1.1918  0.4408 -0.6131
   97OSM    H8S 9631   3.487   3.134  10.407  0.0464 -0.4454  1.2111
   97OSM    H8T 9632   3.403   3.283  10.346  1.4655  0.5393  0.0892
   97OSM    C9S 9633   3.381   3.110  10.227  0.0792  0.4344 -0.3551
   97OSM    H9S 9634   3.285   3.126  10.174  1.2147  0.4037 -2.5165
   97OSM    H9T 9635   3.389   3.001  10.251  0.9223  0.5346 -0.1564
   97OSM   C10S 9636   3.493   3.143  10.140 -0.0443 -0.3734 -0.4292
   97OSM   H10S 9637   3.592   3.119  10.185  1.2040  0.5625 -2.5524
   97OSM   H10T 9638   3.481   3.253  10.128 -0.7216 -0.5190 -1.1397
   97OSM   C11S 9639   3.489   3.087   9.993  0.0743  0.4716 -0.3680
   97OSM   H11S 9640   3.452   2.983   9.994 -0.5685  0.5692 -4.6611
   97OSM   H11T 9641   3.590   3.065   9.952  0.9761 -0.4680  2.2352
   97OSM   C12S 9642   3.394   3.162   9.900  0.0365  0.2375 -0.4553
   97OSM   H12S 9643   3.430   3.266   9.889  0.0351  0.3095  0.1973
   97OSM   H12T 9644   3.287   3.173   9.928 -0.7568 -2.8481 -2.0041
   97OSM   C13S 9645   3.392   3.089   9.767  0.0199 -0.5538 -0.4479
   97OSM   H13S 9646   3.346   2.989   9.785  0.4041 -0.4127  1.4230
   97OSM   H13T 9647   3.498   3.086   9.733  0.8307  0.7435  1.8902
   97OSM   C14S 9648   3.307   3.161   9.662 -0.2427  0.0195 -0.0869
   97OSM   H14S 9649   3.363   3.252   9.632 -0.1170  0.0328  0.1824
   97OSM   H14T 9650   3.204   3.182   9.697  1.0800  1.5993  2.9743
   97OSM   C15S 9651   3.282   3.077   9.532  0.1808  0.3221 -0.0438
   97OSM   H15S 9652   3.244   3.151   9.458 -0.2420 -0.3317 -0.4874
   97OSM   H15T 9653   3.211   2.995   9.553  2.0184 -1.4927 -0.7000
   97OSM   C16S 9654   3.407   3.007   9.487  0.2864 -0.4847 -0.2548
   97OSM   H16S 9655   3.424   2.918   9.551 -0.5189  1.1178  2.2725
   97OSM   H16T 9656   3.491   3.079   9.496  0.0101 -0.3490  1.3654
   97OSM   C17S 9657   3.409   2.957   9.340 -0.2265  0.0395 -0.7230
   97OSM   H17S 9658   3.399   3.048   9.278 -0.4947  0.8449  0.4802
   97OSM   H17T 9659   3.317   2.894   9.341 -0.7625  0.8284 -0.0632
   97OSM   C18S 9660   3.530   2.887   9.314 -0.2185  0.3583  1.1658
   97OSM   H18S 9661   3.614   2.960   9.314  1.1566 -1.1921  0.6374
   97OSM   H18T 9662   3.521   2.835   9.216 -2.9939  0.5263  1.2842
   97OSM   H18U 9663   3.554   2.819   9.399 -0.0665  0.8390  1.5073
   97OSM    C1F 9664   2.652   3.245  10.651  0.3947 -0.2059 -0.1531
   97OSM     OF 9665   2.636   3.357  10.681 -0.7458 -0.0647 -0.1094
   97OSM    C2F 9666   2.558   3.170  10.556  0.4230  0.0311 -0.5056
   97OSM    H2F 9667   2.500   3.106  10.625 -1.7621  1.5844 -0.8674
   97OSM    H2G 9668   2.615   3.118  10.476 -0.0689 -0.3926 -0.5802
   97OSM    C3F 9669   2.485   3.282  10.474 -0.3312  0.3449  0.1034
   97OSM    H3F 9670   2.561   3.348  10.426 -1.5584  0.2807 -1.9979
   97OSM    H3G 9671   2.431   3.352  10.542  0.0179 -0.5235  1.2742
   97OSM    C4F 9672   2.395   3.230  10.366 -0.2628 -0.1979  0.0785
   97OSM    H4F 9673   2.348   3.310  10.306 -0.2522 -0.4719 -0.2983
   97OSM    H4G 9674   2.310   3.171  10.407  1.0208 -0.9152  1.7635
   97OSM    C5F 9675   2.479   3.153  10.263  1.0541 -0.1396  0.2474
   97OSM    H5F 9676   2.530   3.062  10.302 -0.8503 -0.2680  2.5986
   97OSM    H5G 9677   2.560   3.217  10.220 -0.3016  0.3116 -1.7060
   97OSM    C6F 9678   2.383   3.132  10.146 -0.1018 -0.4582  0.0473
   97OSM    H6F 9679   2.309   3.214  10.134  0.3832 -0.2900 -1.8065
   97OSM    H6G 9680   2.320   3.046  10.177  0.2889 -0.8654 -0.2811
   97OSM    C7F 9681   2.452   3.090  10.017 -0.0657 -0.0165  0.5867
   97OSM    H7F 9682   2.388   3.029   9.950  1.4752  0.6662 -1.5413
   97OSM    H7G 9683   2.540   3.029  10.044 -1.3246 -2.1498 -0.0364
   97OSM    C8F 9684   2.501   3.207   9.943 -0.2250 -0.5860  0.3601
   97OSM    H8F 9685   2.568   3.269  10.007 -1.8708  1.9453 -0.2911
   97OSM    H8G 9686   2.413   3.274   9.928  1.6252  1.7526 -0.5251
   97OSM    C9F 9687   2.580   3.189   9.814  0.1586  0.2751 -0.4474
   97OSM    H9F 9688   2.676   3.138   9.824  0.7035  0.8309 -2.6317
   97OSM   C10F 9689   2.543   3.230   9.696 -0.0427  0.8048  0.0748
   97OSM   H10F 9690   2.604   3.220   9.605  0.4587  0.3441  0.4596
   97OSM   C11F 9691   2.409   3.278   9.637  0.0616 -0.0435 -0.3905
   97OSM   H11F 9692   2.422   3.384   9.609 -0.0212  0.1711  0.3728
   97OSM   H11G 9693   2.329   3.268   9.713 -0.2300 -0.6407 -0.7689
   97OSM   C12F 9694   2.359   3.201   9.516  0.2018 -0.3281  0.3629
   97OSM   H12F 9695   2.260   3.247   9.496  1.4022  2.1176 -0.1109
   97OSM   H12G 9696   2.359   3.092   9.536  1.7350 -0.0411  2.0872
   97OSM   C13F 9697   2.446   3.219   9.394 -0.0022  0.1787 -0.3122
   97OSM   H13F 9698   2.555   3.208   9.412  0.0724 -0.5054 -1.2065
   97OSM   H13G 9699   2.420   3.323   9.364 -0.7342  0.3518  0.8843
   97OSM   C14F 9700   2.407   3.117   9.283 -0.2616 -0.3634  0.0485
   97OSM   H14F 9701   2.301   3.133   9.252 -0.2942 -0.4546  0.1139
   97OSM   H14G 9702   2.422   3.016   9.326 -1.1944 -1.9315 -3.1182
   97OSM   C15F 9703   2.487   3.145   9.159 -0.5103  0.4232 -0.3539
   97OSM   H15F 9704   2.584   3.097   9.184 -1.5842 -1.7689 -0.2031
   97OSM   H15G 9705   2.501   3.252   9.133 -0.6411  0.4619 -0.2664
   97OSM   C16F 9706   2.439   3.080   9.030  0.5180 -0.1332 -0.5421
   97OSM   H16F 9707   2.342   3.124   9.000  0.5540 -0.0412 -0.5220
   97OSM   H16G 9708   2.430   2.971   9.051 -1.4973 -0.0089 -0.6703
   97OSM   C17F 9709   2.534   3.098   8.910 -0.6138 -0.3390 -0.1943
   97OSM   H17F 9710   2.536   3.207   8.888  0.1913 -0.3343 -0.1114
   97OSM   H17G 9711   2.488   3.048   8.822 -0.4556 -0.9293  0.0617
   97OSM   C18F 9712   2.677   3.051   8.935 -0.6642  0.1047  0.8477
   97OSM   H18F 9713   2.689   2.949   8.978 -2.0240  0.2241  1.5286
   97OSM   H18G 9714   2.721   3.123   9.008 -1.1360  0.7406  0.5140
   97OSM   H18H 9715   2.738   3.061   8.843 -0.1942  0.3071  1.1784
   98OSM      N 9716   2.263   2.002  11.212  0.2336  0.2347  0.2599
   98OSM    C15 9717   2.287   2.102  11.322 -0.5121 -0.1024 -0.5923
   98OSM   H15A 9718   2.203   2.170  11.323 -0.2119  0.2660 -0.3911
   98OSM   H15B 9719   2.374   2.159  11.293 -0.5799  0.3002  0.0053
   98OSM   H15C 9720   2.292   2.055  11.419 -2.4110 -0.8980 -0.8619
   98OSM    C14 9721   2.377   1.910  11.228 -0.0896 -0.0750  0.2406
   98OSM   H14A 9722   2.365   1.826  11.162 -1.2915  0.6462 -0.4860
   98OSM   H14B 9723   2.393   1.876  11.329  3.3782 -0.8806 -0.5274
   98OSM   H14C 9724   2.469   1.963  11.206 -0.7021  0.1338 -1.8850
   98OSM    C13 9725   2.135   1.932  11.238  0.1788  0.5347 -0.0774
   98OSM   H13A 9726   2.126   1.896  11.339  0.2464 -0.4891 -0.4301
   98OSM   H13B 9727   2.114   1.851  11.170 -1.1373  0.5070  0.3504
   98OSM   H13C 9728   2.058   2.008  11.234  1.2178  1.5093 -3.8927
   98OSM    C12 9729   2.273   2.058  11.072  0.1022 -0.1869 -0.3574
   98OSM   H12A 9730   2.238   1.982  11.003 -1.6802  0.1262  0.1884
   98OSM   H12B 9731   2.378   2.060  11.046  0.3009 -2.1524  0.2063
   98OSM    C11 9732   2.196   2.190  11.031 -0.3765  0.7774 -1.0860
   98OSM   H11A 9733   2.222   2.213  10.925  0.9197  1.0117 -0.7300
   98OSM   H11B 9734   2.240   2.275  11.087  0.0138 -2.0622  3.0992
   98OSM      P 9735   1.972   2.103  10.948  0.2947  0.4849  0.3874
   98OSM    O13 9736   2.022   1.967  10.942  0.2581 -0.3521  0.3186
   98OSM    O14 9737   1.831   2.133  10.966 -0.2256  0.1422 -0.1376
   98OSM    O11 9738   2.016   2.174  10.813  0.0094 -0.2318 -0.0037
   98OSM    O12 9739   2.052   2.178  11.052  0.0620 -0.1632 -0.0919
   98OSM    C1S 9740   1.942   2.131  10.697 -0.3560 -0.9840  0.5926
   98OSM    H1S 9741   1.836   2.165  10.697 -0.8843 -2.5887 -0.2929
   98OSM    H1T 9742   1.951   2.021  10.687  0.5274 -0.7456 -1.6149
   98OSM     NF 9743   1.902   2.125  10.452 -0.5114 -0.2336  0.1106
   98OSM    HNF 9744   1.942   2.037  10.427 -1.6953 -0.7971  0.1468
   98OSM    C2S 9745   1.985   2.188  10.557 -0.6380 -0.0004  0.2302
   98OSM    H2S 9746   1.954   2.295  10.556 -1.3459 -0.1781 -3.1395
   98OSM    C3S 9747   2.141   2.182  10.544 -0.3475  0.3972  0.1409
   98OSM    H3S 9748   2.169   2.080  10.576  2.4606  1.0051 -0.2633
   98OSM     O3 9749   2.215   2.265  10.632  0.2968 -0.1954 -0.1302
   98OSM    HO3 9750   2.151   2.270  10.703 -0.2477  0.0374 -0.6272
   98OSM    C4S 9751   2.191   2.200  10.403 -0.3702 -0.1501 -0.2770
   98OSM    H4S 9752   2.156   2.292  10.355  1.9781  1.0667  0.2759
   98OSM    C5S 9753   2.276   2.122  10.334 -0.4654 -0.4473  0.4428
   98OSM    H5S 9754   2.317   2.036  10.389  2.5102  0.0907 -0.8332
   98OSM    C6S 9755   2.332   2.163  10.199 -0.0017  0.0877  0.3444
   98OSM    H6S 9756   2.344   2.068  10.142  1.2389  0.0203  0.7197
   98OSM    H6T 9757   2.431   2.211  10.214 -0.1411  0.1366  1.1417
   98OSM    C7S 9758   2.259   2.260  10.119 -0.2074  0.3648 -0.2052
   98OSM    H7S 9759   2.256   2.365  10.155  0.9274  0.3860 -0.1512
   98OSM    H7T 9760   2.152   2.229  10.111 -0.1147 -0.2858  0.9028
   98OSM    C8S 9761   2.309   2.255   9.977 -0.1837 -0.2393 -0.3156
   98OSM    H8S 9762   2.346   2.152   9.957 -2.9653 -1.3644  0.1292
   98OSM    H8T 9763   2.396   2.324   9.968 -0.2369 -0.1173  0.0892
   98OSM    C9S 9764   2.207   2.271   9.864  0.1728  0.2588 -0.0942
   98OSM    H9S 9765   2.179   2.378   9.873  0.4582  0.1394  2.5128
   98OSM    H9T 9766   2.129   2.194   9.886  1.0603 -0.2434  1.3503
   98OSM   C10S 9767   2.264   2.246   9.723 -0.1470 -0.3569  0.2655
   98OSM   H10S 9768   2.284   2.137   9.727 -1.8646 -0.7634 -1.6456
   98OSM   H10T 9769   2.366   2.288   9.709 -0.6226  0.7323  0.0346
   98OSM   C11S 9770   2.169   2.285   9.608 -0.4052 -0.5316  0.3356
   98OSM   H11S 9771   2.158   2.394   9.623  2.9459  0.0885 -1.2650
   98OSM   H11T 9772   2.076   2.236   9.644 -1.0477  0.3462 -0.1181
   98OSM   C12S 9773   2.215   2.231   9.480 -0.2541 -0.1989  0.2941
   98OSM   H12S 9774   2.234   2.122   9.489  1.9729  0.2001  0.5819
   98OSM   H12T 9775   2.314   2.280   9.470  0.4723 -1.6514  0.2533
   98OSM   C13S 9776   2.126   2.265   9.370  0.0836  0.1037  0.4632
   98OSM   H13S 9777   2.084   2.368   9.375  0.6544  0.3382  0.4812
   98OSM   H13T 9778   2.035   2.204   9.386 -0.9280  1.4281 -0.2188
   98OSM   C14S 9779   2.178   2.242   9.227  0.5911 -0.9284  0.0880
   98OSM   H14S 9780   2.221   2.139   9.229 -2.3605 -2.2896 -1.7087
   98OSM   H14T 9781   2.257   2.319   9.220 -0.9937  0.8010  0.9972
   98OSM   C15S 9782   2.086   2.253   9.104  0.5323  0.2575  0.3395
   98OSM   H15S 9783   2.090   2.361   9.079 -1.3373 -0.0283 -1.3304
   98OSM   H15T 9784   1.985   2.227   9.143  0.5457  0.1961  0.3324
   98OSM   C16S 9785   2.129   2.166   8.991  0.0899 -0.0359  0.3446
   98OSM   H16S 9786   2.145   2.060   9.019 -0.3474 -0.3089 -0.4236
   98OSM   H16T 9787   2.228   2.195   8.949  0.5593 -0.6215  1.0455
   98OSM   C17S 9788   2.031   2.174   8.871  0.6382 -0.1754 -0.1240
   98OSM   H17S 9789   2.055   2.272   8.824  0.2146 -2.3052 -5.1332
   98OSM   H17T 9790   1.925   2.175   8.906  0.7531  3.0548  0.2896
   98OSM   C18S 9791   2.052   2.073   8.764  0.6318 -0.5635 -0.4870
   98OSM   H18S 9792   1.966   2.073   8.693 -0.0069  1.9896  0.2136
   98OSM   H18T 9793   2.052   1.974   8.815  1.7472  0.0200  0.6617
   98OSM   H18U 9794   2.144   2.089   8.703 -0.1839  0.4383 -1.4858
   98OSM    C1F 9795   1.777   2.165  10.433  0.1407 -0.7031  0.4562
   98OSM     OF 9796   1.725   2.251  10.501  0.3315 -0.2264 -0.2345
   98OSM    C2F 9797   1.689   2.070  10.348  0.1420 -0.7546 -0.0158
   98OSM    H2F 9798   1.588   2.055  10.392 -0.9774  0.0651 -2.2608
   98OSM    H2G 9799   1.745   1.978  10.321  1.7238  0.1501  0.0586
   98OSM    C3F 9800   1.645   2.141  10.221  0.6371 -0.1116 -0.3371
   98OSM    H3F 9801   1.720   2.151  10.140  0.1887  1.6016 -0.5528
   98OSM    H3G 9802   1.623   2.247  10.248 -0.6169 -0.6916  1.0048
   98OSM    C4F 9803   1.508   2.080  10.161  0.1756 -0.3054 -0.0516
   98OSM    H4F 9804   1.464   2.170  10.114  2.0405  2.0404  2.4682
   98OSM    H4G 9805   1.436   2.051  10.241  0.6977 -2.9849 -0.4854
   98OSM    C5F 9806   1.532   1.980  10.050  0.2539  0.7537 -0.1074
   98OSM    H5F 9807   1.489   1.883  10.083 -0.7565  0.6523 -1.6529
   98OSM    H5G 9808   1.642   1.961  10.049  0.3349  0.9490  2.1783
   98OSM    C6F 9809   1.483   2.021   9.909 -0.4699  0.0832 -0.4094
   98OSM    H6F 9810   1.511   2.127   9.892  0.1512 -0.2231 -1.3056
   98OSM    H6G 9811   1.372   2.022   9.913 -0.5029 -0.6034 -1.1859
   98OSM    C7F 9812   1.532   1.926   9.799 -0.1722  0.1846  0.0536
   98OSM    H7F 9813   1.500   1.822   9.818  0.7969  0.4985  3.8416
   98OSM    H7G 9814   1.643   1.921   9.807 -0.3357  0.2739  2.6354
   98OSM    C8F 9815   1.495   1.974   9.653  0.1918 -0.3485 -0.4548
   98OSM    H8F 9816   1.564   1.916   9.588  3.4381  3.2593 -0.4208
   98OSM    H8G 9817   1.547   2.072   9.646  2.8505 -1.6853 -0.1054
   98OSM    C9F 9818   1.349   1.979   9.622  0.6950 -0.3296  0.4695
   98OSM    H9F 9819   1.296   2.067   9.661 -1.7217 -0.7269 -1.7153
   98OSM   C10F 9820   1.289   1.882   9.560 -0.3863  0.6824  0.1885
   98OSM   H10F 9821   1.182   1.893   9.534 -0.4939 -2.3592 -0.8512
   98OSM   C11F 9822   1.357   1.760   9.501  0.4939 -0.2482 -0.2839
   98OSM   H11F 9823   1.379   1.700   9.591  1.7203  1.6292  0.7050
   98OSM   H11G 9824   1.454   1.780   9.451 -1.1574  2.6596 -2.5268
   98OSM   C12F 9825   1.276   1.680   9.397  1.3248  0.3519  0.0459
   98OSM   H12F 9826   1.176   1.652   9.437  1.0045 -0.9659 -1.6639
   98OSM   H12G 9827   1.310   1.578   9.371 -4.2526 -2.0330  1.4328
   98OSM   C13F 9828   1.278   1.756   9.259  0.2638  0.9542 -0.2796
   98OSM   H13F 9829   1.381   1.759   9.219  1.2805 -0.3268  2.1270
   98OSM   H13G 9830   1.240   1.860   9.260 -0.1806  0.7936  0.4344
   98OSM   C14F 9831   1.190   1.678   9.152 -0.6152 -0.3882 -0.5421
   98OSM   H14F 9832   1.242   1.581   9.135 -0.0218 -0.4365  1.3910
   98OSM   H14G 9833   1.185   1.744   9.063 -1.0431  1.8199  1.1022
   98OSM   C15F 9834   1.051   1.659   9.210  0.0976  0.2505  0.1890
   98OSM   H15F 9835   1.017   1.754   9.257  0.5042  0.1983  0.5914
   98OSM   H15G 9836   1.055   1.585   9.293 -0.7777  1.9821  1.8106
   98OSM   C16F 9837   0.939   1.626   9.110 -0.6778  0.0592  0.0860
   98OSM   H16F 9838   0.980   1.541   9.051 -0.8026 -1.9978  2.8117
   98OSM   H16G 9839   0.907   1.717   9.055 -1.5036 -0.7788 -0.8596
   98OSM   C17F 9840   0.814   1.579   9.183  0.1358  0.0706 -0.8311
   98OSM   H17F 9841   0.775   1.673   9.228 -1.1584 -1.1424  0.6708
   98OSM   H17G 9842   0.823   1.498   9.258  2.4628  1.4328  0.4081
   98OSM   C18F 9843   0.708   1.541   9.082 -0.1463  0.4796  0.2941
   98OSM   H18F 9844   0.738   1.449   9.028 -2.3795 -1.3601  2.1146
   98OSM   H18G 9845   0.698   1.621   9.005  0.0309 -2.3506 -2.8082
   98OSM   H18H 9846   0.614   1.513   9.134 -0.4901 -0.1692 -0.6514
   99OSM      N 9847   4.478   3.386  10.982 -0.5350 -0.2321  0.2440
   99OSM    C15 9848   4.457   3.508  11.068  0.6117 -0.5925 -0.0529
   99OSM   H15A 9849   4.355   3.543  11.068  0.9668  0.4737  1.0837
   99OSM   H15B 9850   4.530   3.584  11.044 -0.3104  0.4921  0.5064
   99OSM   H15C 9851   4.471   3.475  11.169  1.1462 -1.1725 -0.3147
   99OSM    C14 9852   4.453   3.404  10.841  0.0345 -0.7782 -0.2917
   99OSM   H14A 9853   4.358   3.451  10.821  0.5265  0.7299  0.8247
   99OSM   H14B 9854   4.461   3.306  10.797 -0.6421 -1.7997  1.7789
   99OSM   H14C 9855   4.530   3.468  10.802 -0.3390  0.2636  0.6278
   99OSM    C13 9856   4.618   3.340  11.008 -0.2059  0.0225 -0.3691
   99OSM   H13A 9857   4.639   3.252  10.949  1.5967 -0.4799  0.9918
   99OSM   H13B 9858   4.637   3.320  11.112 -0.5652 -0.3526 -0.3709
   99OSM   H13C 9859   4.692   3.415  10.987  1.6534 -1.3179  1.2482
   99OSM    C12 9860   4.393   3.265  11.025  0.2428 -0.1185 -0.4245
   99OSM   H12A 9861   4.296   3.305  10.998  1.9935  5.5444  0.9173
   99OSM   H12B 9862   4.400   3.258  11.132 -0.0951 -0.7172 -0.4396
   99OSM    C11 9863   4.400   3.128  10.955  0.0128 -0.3092  0.0902
   99OSM   H11A 9864   4.374   3.153  10.850 -0.9320 -0.0531  0.3822
   99OSM   H11B 9865   4.322   3.072  11.011  0.9867 -0.0963  1.7024
   99OSM      P 9866   4.552   2.919  10.920  0.0694  0.0214  0.0405
   99OSM    O13 9867   4.702   2.907  10.893  0.6309  0.1579 -0.0822
   99OSM    O14 9868   4.475   2.826  11.008 -0.3591 -0.6600  0.2334
   99OSM    O11 9869   4.476   2.929  10.775 -0.1261  0.1836  0.3698
   99OSM    O12 9870   4.526   3.061  10.968  0.0200 -0.5560 -0.0594
   99OSM    C1S 9871   4.530   2.839  10.682  0.0981  0.3640  0.1932
   99OSM    H1S 9872   4.469   2.746  10.687 -2.9217  2.3256  1.3523
   99OSM    H1T 9873   4.639   2.821  10.679 -0.2127 -1.3878 -2.9794
   99OSM     NF 9874   4.509   2.803  10.432  0.4252 -0.3908 -0.0474
   99OSM    HNF 9875   4.594   2.795  10.382  0.0161 -0.4993 -0.7250
   99OSM    C2S 9876   4.503   2.900  10.542 -0.1009  0.3598 -0.4406
   99OSM    H2S 9877   4.403   2.948  10.553 -0.2496 -0.0754  0.1417
   99OSM    C3S 9878   4.609   3.021  10.520  0.1374 -0.2206 -0.0148
   99OSM    H3S 9879   4.713   2.988  10.542  1.3056  2.7239 -0.7792
   99OSM     O3 9880   4.588   3.123  10.617 -0.3740 -0.0425 -0.3172
   99OSM    HO3 9881   4.519   3.092  10.677  0.1824  0.2463  0.4824
   99OSM    C4S 9882   4.601   3.076  10.384  0.2569  0.8370  0.5199
   99OSM    H4S 9883   4.686   3.063  10.316 -1.5591 -0.3683 -1.5782
   99OSM    C5S 9884   4.507   3.162  10.343 -0.4492 -0.1450  0.5504
   99OSM    H5S 9885   4.437   3.197  10.420  0.9345 -1.3121  2.3855
   99OSM    C6S 9886   4.509   3.226  10.209 -0.7897 -0.8781 -0.0705
   99OSM    H6S 9887   4.526   3.335  10.221 -1.0990 -1.0543  2.2564
   99OSM    H6T 9888   4.403   3.223  10.175 -0.2929  0.8053 -1.8524
   99OSM    C7S 9889   4.582   3.160  10.096  0.0989 -0.2762  0.6665
   99OSM    H7S 9890   4.542   3.056  10.097 -1.8219  0.4328  0.5707
   99OSM    H7T 9891   4.693   3.160  10.100  0.1621  1.0362 -0.6440
   99OSM    C8S 9892   4.532   3.222   9.967  0.3029 -0.0845  0.6049
   99OSM    H8S 9893   4.574   3.324   9.950 -0.3211  0.0588 -0.1189
   99OSM    H8T 9894   4.422   3.241   9.972  0.7862  3.3225 -0.4308
   99OSM    C9S 9895   4.573   3.133   9.848 -0.0274 -0.5027 -0.0073
   99OSM    H9S 9896   4.519   3.169   9.758 -0.2401  0.6452  0.5609
   99OSM    H9T 9897   4.541   3.029   9.869  1.0683 -1.1856 -1.5612
   99OSM   C10S 9898   4.728   3.112   9.827  0.0931 -0.1384  0.0571
   99OSM   H10S 9899   4.739   3.051   9.735 -0.3675 -0.8671  0.4827
   99OSM   H10T 9900   4.765   3.049   9.911 -0.6620 -0.2468  0.3139
   99OSM   C11S 9901   4.825   3.234   9.801  0.2864 -0.5412  0.6184
   99OSM   H11S 9902   4.927   3.194   9.784  0.1877 -1.4010  1.9771
   99OSM   H11T 9903   4.822   3.311   9.881  0.6470 -0.6054  0.6948
   99OSM   C12S 9904   4.786   3.308   9.669  0.0844  0.0009  0.1586
   99OSM   H12S 9905   4.682   3.341   9.693  0.0774  0.8232 -0.9381
   99OSM   H12T 9906   4.845   3.399   9.645 -0.0543 -0.0642 -0.4500
   99OSM   C13S 9907   4.781   3.222   9.541 -0.4000 -0.0642 -0.6321
   99OSM   H13S 9908   4.801   3.117   9.570 -2.0489  0.0491  1.0354
   99OSM   H13T 9909   4.868   3.249   9.478 -1.1672 -0.3049 -1.8051
   99OSM   C14S 9910   4.647   3.248   9.470 -0.1382 -0.6364  0.5550
   99OSM   H14S 9911   4.639   3.354   9.438 -0.6314 -0.2344  1.9640
   99OSM   H14T 9912   4.564   3.222   9.540  1.0062 -1.0109  1.7960
   99OSM   C15S 9913   4.634   3.163   9.339 -0.1217  0.2099  0.5394
   99OSM   H15S 9914   4.650   3.056   9.364  1.6196  0.3508  0.0750
   99OSM   H15T 9915   4.714   3.200   9.272 -0.2321  0.1773  0.3902
   99OSM   C16S 9916   4.504   3.197   9.264 -0.0500 -0.1215  0.7233
   99OSM   H16S 9917   4.412   3.172   9.322 -0.4711 -1.0860 -0.3444
   99OSM   H16T 9918   4.505   3.119   9.185  0.3908  0.8976 -0.2880
   99OSM   C17S 9919   4.503   3.332   9.205  0.4814  0.7886 -0.4078
   99OSM   H17S 9920   4.592   3.365   9.146 -0.6149  1.4555 -1.7151
   99OSM   H17T 9921   4.494   3.407   9.287 -0.8395  0.6141 -0.3944
   99OSM   C18S 9922   4.375   3.350   9.140  0.4868  0.4821 -0.0589
   99OSM   H18S 9923   4.373   3.438   9.072 -0.0568  0.8719  0.4562
   99OSM   H18T 9924   4.294   3.351   9.217  0.0097  0.4924 -0.5579
   99OSM   H18U 9925   4.344   3.265   9.075  1.4249  1.4245 -1.7594
   99OSM    C1F 9926   4.425   2.697  10.436 -0.2623 -0.7884  0.3488
   99OSM     OF 9927   4.327   2.697  10.517 -0.4246  0.2563  0.8092
   99OSM    C2F 9928   4.469   2.575  10.357 -0.4641  0.3760  0.4188
   99OSM    H2F 9929   4.453   2.483  10.418 -1.9207  0.9032  0.8556
   99OSM    H2G 9930   4.578   2.592  10.346 -0.5622  0.5152 -0.3244
   99OSM    C3F 9931   4.401   2.556  10.218  0.0045 -0.1412  0.0258
   99OSM    H3F 9932   4.434   2.468  10.158 -0.1332 -0.4526  0.4093
   99OSM    H3G 9933   4.293   2.540  10.239  0.1701 -0.1318  0.8856
   99OSM    C4F 9934   4.417   2.676  10.129  0.6861 -0.2596 -0.1709
   99OSM    H4F 9935   4.521   2.715  10.126  0.3727  0.5504 -0.5050
   99OSM    H4G 9936   4.364   2.757  10.183 -0.1723  0.2636 -1.7511
   99OSM    C5F 9937   4.360   2.662   9.990 -0.1812 -0.6433 -0.3835
   99OSM    H5F 9938   4.250   2.656   9.999 -0.1848  1.5500  1.6921
   99OSM    H5G 9939   4.399   2.564   9.957  2.7239  0.3029  0.0693
   99OSM    C6F 9940   4.390   2.783   9.896  0.6153 -0.0583  0.3916
   99OSM    H6F 9941   4.496   2.810   9.877 -0.1050  1.4179 -1.7294
   99OSM    H6G 9942   4.352   2.870   9.954  2.6703 -1.1368  3.5019
   99OSM    C7F 9943   4.324   2.749   9.757 -0.4397 -0.4659 -0.1779
   99OSM    H7F 9944   4.234   2.685   9.762 -1.3046  0.7900  0.6902
   99OSM    H7G 9945   4.393   2.673   9.715 -0.7198 -0.8029 -0.0307
   99OSM    C8F 9946   4.316   2.865   9.654 -0.6931  0.4721 -0.3180
   99OSM    H8F 9947   4.325   2.827   9.550 -0.3622  1.0422 -0.4977
   99OSM    H8G 9948   4.403   2.931   9.672 -1.1872  0.6281  1.5883
   99OSM    C9F 9949   4.190   2.942   9.678 -0.0581 -0.1526  0.5006
   99OSM    H9F 9950   4.134   2.904   9.764 -0.0224 -2.1235 -0.3083
   99OSM   C10F 9951   4.142   3.049   9.612  0.0941 -0.3725 -0.2095
   99OSM   H10F 9952   4.036   3.076   9.628  0.2361 -0.6754  1.3986
   99OSM   C11F 9953   4.201   3.128   9.501 -0.2395 -0.0749 -0.2932
   99OSM   H11F 9954   4.280   3.074   9.444 -0.1382  0.9505 -1.1457
   99OSM   H11G 9955   4.246   3.224   9.533  3.0025 -0.7593 -2.4610
   99OSM   C12F 9956   4.108   3.152   9.387  0.1493  0.7909  1.4056
   99OSM   H12F 9957   4.150   3.221   9.311 -2.6955  0.2578 -0.7297
   99OSM   H12G 9958   4.015   3.197   9.427 -0.5201 -0.5334  1.3839
   99OSM   C13F 9959   4.074   3.017   9.315 -0.1114 -0.3849  0.1404
   99OSM   H13F 9960   4.003   2.960   9.378 -1.1342  0.7112 -0.0188
   99OSM   H13G 9961   4.168   2.958   9.312  2.6631  3.7986  1.0630
   99OSM   C14F 9962   4.030   3.036   9.170  0.0447  0.3894  0.0763
   99OSM   H14F 9963   4.081   2.958   9.110  2.5124  1.1212  1.1648
   99OSM   H14G 9964   4.084   3.128   9.140  2.8052 -1.4351 -0.7095
   99OSM   C15F 9965   3.876   3.028   9.155  0.5034 -0.5669 -0.3231
   99OSM   H15F 9966   3.824   3.103   9.219 -0.6952 -0.8398 -0.9699
   99OSM   H15G 9967   3.853   2.922   9.179  0.2602 -0.4676 -0.1229
   99OSM   C16F 9968   3.834   3.044   9.012  0.5858 -0.0849  0.5649
   99OSM   H16F 9969   3.894   2.977   8.947  0.3639  0.3317 -0.0778
   99OSM   H16G 9970   3.854   3.147   8.973 -1.5956 -0.1475 -0.8068
   99OSM   C17F 9971   3.678   3.017   8.989  0.0442 -0.0776  0.1117
   99OSM   H17F 9972   3.624   3.070   9.071 -0.5309  1.1150 -1.0256
   99OSM   H17G 9973   3.665   2.907   9.001  3.2401 -0.5347 -0.1985
   99OSM   C18F 9974   3.632   3.053   8.851  0.4590 -0.3270 -0.1614
   99OSM   H18F 9975   3.522   3.039   8.849  0.4922 -0.8250  1.0008
   99OSM   H18G 9976   3.670   2.983   8.773  0.3148  0.5966 -1.0605
   99OSM   H18H 9977   3.669   3.156   8.832  0.9930 -0.6426 -0.8597
  100OSM      N 9978   0.293   4.552  10.778 -0.0976  0.2148  0.5795
  100OSM    C15 9979   0.173   4.587  10.685 -0.2104 -0.1495 -0.0914
  100OSM   H15A 9980   0.092   4.608  10.753  0.1674 -0.5028  0.4757
  100OSM   H15B 9981   0.166   4.507  10.614  2.3797 -0.5347  0.0621
  100OSM   H15C 9982   0.199   4.678  10.634  0.4027  0.4447  1.2375
  100OSM    C14 9983   0.409   4.503  10.690 -0.6351 -0.5230 -0.4700
  100OSM   H14A 9984   0.436   4.564  10.605  2.0420 -1.5476 -0.3965
  100OSM   H14B 9985   0.389   4.402  10.655 -0.1286 -0.5770 -0.6100
  100OSM   H14C 9986   0.495   4.491  10.754 -1.9113 -2.0503  1.0140
  100OSM    C13 9987   0.334   4.680  10.847 -0.0133  0.2650  0.6595
  100OSM   H13A 9988   0.239   4.719  10.881 -2.4686 -0.5275 -4.7428
  100OSM   H13B 9989   0.371   4.748  10.771 -2.9839 -0.5037 -1.5896
  100OSM   H13C 9990   0.410   4.671  10.923  1.6688  0.8758 -0.9038
  100OSM    C12 9991   0.266   4.439  10.880  1.0831 -0.1878  0.1956
  100OSM   H12A 9992   0.360   4.434  10.934  0.4600  0.2944  1.3408
  100OSM   H12B 9993   0.266   4.343  10.831 -0.3842 -0.6910  1.1310
  100OSM    C11 9994   0.144   4.464  10.970  0.1798 -0.2009 -0.0950
  100OSM   H11A 9995   0.150   4.566  11.013 -1.7432  0.3154 -1.0025
  100OSM   H11B 9996   0.148   4.404  11.064 -1.6004 -0.8924 -0.4447
  100OSM      P 9997  -0.062   4.316  10.913  0.7060  0.0504  0.0290
  100OSM    O13 9998   0.014   4.206  10.975  0.3868 -0.0357  0.0191
  100OSM    O14 9999  -0.193   4.348  10.972 -0.0808 -0.0169 -0.7797
  100OSM    O1110000  -0.095   4.280  10.765  0.0162  0.1084  0.2356
  100OSM    O1210001   0.020   4.446  10.905 -0.2883  0.3520  0.0640
  100OSM    C1S10002   0.009   4.260  10.670  0.2370  0.2589 -0.3694
  100OSM    H1S10003   0.074   4.178  10.707  2.3755  2.6126  1.2369
  100OSM    H1T10004   0.066   4.355  10.659  0.4376  0.0409 -1.2582
  100OSM     NF10005   0.016   4.165  10.446  0.3087  0.8354  0.0895
  100OSM    HNF10006   0.072   4.227  10.392 -0.6479  0.3314 -1.5560
  100OSM    C2S10007  -0.071   4.220  10.543 -0.3553 -0.5493  0.1652
  100OSM    H2S10008  -0.150   4.143  10.560 -0.4787 -0.5315 -0.3316
  100OSM    C3S10009  -0.145   4.344  10.475 -0.1981 -0.0652 -0.0149
  100OSM    H3S10010  -0.067   4.423  10.465  0.9458 -0.8126  2.6411
  100OSM     O310011  -0.239   4.414  10.550 -0.7391 -0.3777  0.4064
  100OSM    HO310012  -0.226   4.383  10.640  0.1340 -1.9296 -0.2434
  100OSM    C4S10013  -0.210   4.316  10.349  0.7322 -0.3183 -0.2690
  100OSM    H4S10014  -0.305   4.260  10.347  0.1056  0.7082  0.3016
  100OSM    C5S10015  -0.188   4.373  10.229 -0.6237  0.4323 -0.1004
  100OSM    H5S10016  -0.107   4.445  10.213  0.4833 -0.2261  2.1974
  100OSM    C6S10017  -0.277   4.335  10.108 -0.5779  1.0595  0.9847
  100OSM    H6S10018  -0.338   4.421  10.074  0.1945  0.6847 -1.4378
  100OSM    H6T10019  -0.339   4.243  10.120 -1.7593  1.4743 -1.7226
  100OSM    C7S10020  -0.173   4.305   9.992 -0.3460 -0.1463 -0.9960
  100OSM    H7S10021  -0.116   4.218  10.030 -1.3321 -0.2971  0.1759
  100OSM    H7T10022  -0.107   4.393   9.978 -1.2751  1.2724  2.9347
  100OSM    C8S10023  -0.236   4.275   9.860 -0.7669 -0.0995  0.7227
  100OSM    H8S10024  -0.320   4.346   9.849  0.1216  0.9378  0.5145
  100OSM    H8T10025  -0.284   4.176   9.849  0.5904 -0.4652 -2.5779
  100OSM    C9S10026  -0.136   4.306   9.747 -0.3376 -0.3236  0.1853
  100OSM    H9S10027  -0.058   4.228   9.750  0.3525  0.3658  0.1605
  100OSM    H9T10028  -0.090   4.405   9.769 -0.9540 -0.0977  0.4910
  100OSM   C10S10029  -0.208   4.316   9.616 -0.6623  0.1357  0.3848
  100OSM   H10S10030  -0.137   4.352   9.538  1.1192 -2.7582  0.6108
  100OSM   H10T10031  -0.294   4.387   9.611  0.1726  1.0143 -3.1834
  100OSM   C11S10032  -0.252   4.179   9.553  0.3493  0.5152  0.1704
  100OSM   H11S10033  -0.338   4.142   9.612 -0.2503  1.8786  0.1892
  100OSM   H11T10034  -0.159   4.119   9.563 -0.8581 -1.4993 -0.5996
  100OSM   C12S10035  -0.285   4.206   9.405  0.0850  0.4107  0.2313
  100OSM   H12S10036  -0.211   4.268   9.351  1.2729 -1.1342  0.0851
  100OSM   H12T10037  -0.375   4.272   9.406 -0.5486 -0.4007 -1.2139
  100OSM   C13S10038  -0.327   4.079   9.328 -0.6445  0.6030 -0.7154
  100OSM   H13S10039  -0.417   4.030   9.370  1.9971 -1.4416  2.8194
  100OSM   H13T10040  -0.251   3.998   9.326 -1.8041 -0.4924 -1.0902
  100OSM   C14S10041  -0.360   4.111   9.179 -0.0088  0.0288 -0.6953
  100OSM   H14S10042  -0.278   4.171   9.134  0.3311  0.9383  1.0649
  100OSM   H14T10043  -0.461   4.157   9.172 -0.6471 -1.4434 -1.2331
  100OSM   C15S10044  -0.360   3.988   9.082 -0.0792  0.5230  0.1051
  100OSM   H15S10045  -0.396   3.894   9.128 -2.0954 -0.4410 -3.2864
  100OSM   H15T10046  -0.260   3.964   9.041 -1.7580 -2.6200 -2.3805
  100OSM   C16S10047  -0.462   4.024   8.978  0.9289 -0.0937  0.8837
  100OSM   H16S10048  -0.448   4.122   8.928 -2.4022 -1.2568 -2.4916
  100OSM   H16T10049  -0.560   4.028   9.029  0.0069  1.7729 -0.9737
  100OSM   C17S10050  -0.467   3.916   8.870 -0.1357 -0.0855  0.0061
  100OSM   H17S10051  -0.481   3.819   8.924 -1.9690  0.5534  0.7352
  100OSM   H17T10052  -0.373   3.915   8.812 -1.3791  0.6468 -2.0897
  100OSM   C18S10053  -0.583   3.939   8.778 -0.2941  0.0914 -0.7638
  100OSM   H18S10054  -0.678   3.929   8.834 -0.4976  4.6647 -0.1144
  100OSM   H18T10055  -0.581   3.868   8.692  1.5934 -0.6612 -0.1218
  100OSM   H18U10056  -0.580   4.046   8.750  2.8155  0.2006 -0.2051
  100OSM    C1F10057   0.046   4.039  10.453 -0.1633  0.4591 -0.3921
  100OSM     OF10058   0.002   3.965  10.541 -0.7602  0.1079  0.1679
  100OSM    C2F10059   0.148   3.983  10.360 -0.3443 -0.9126  0.4648
  100OSM    H2F10060   0.225   3.942  10.429  0.6204 -0.4843 -0.3362
  100OSM    H2G10061   0.195   4.067  10.304  1.9623 -1.7809  1.0098
  100OSM    C3F10062   0.085   3.879  10.271  0.2889 -0.4128 -0.1021
  100OSM    H3F10063   0.060   3.792  10.335 -0.4897 -0.0772  0.0526
  100OSM    H3G10064   0.161   3.849  10.196  0.2628  0.3148 -0.4296
  100OSM    C4F10065  -0.041   3.935  10.200 -0.2516  0.1958  0.1772
  100OSM    H4F10066  -0.029   4.034  10.153  0.1998 -0.2352 -0.6234
  100OSM    H4G10067  -0.128   3.949  10.268 -0.7099 -0.7098 -0.2147
  100OSM    C5F10068  -0.098   3.847  10.088 -0.6541 -0.1825 -0.0239
  100OSM    H5F10069  -0.098   3.742  10.123  1.0865 -0.0011  0.5562
  100OSM    H5G10070  -0.025   3.859  10.005 -2.4612 -0.5272 -1.7038
  100OSM    C6F10071  -0.231   3.896  10.034  0.3218  0.2205  0.3654
  100OSM    H6F10072  -0.231   4.006  10.022  2.0456  0.4932  2.4328
  100OSM    H6G10073  -0.316   3.878  10.103 -0.7464  2.2179 -0.4130
  100OSM    C7F10074  -0.271   3.842   9.896  0.5102 -1.1217  0.1858
  100OSM    H7F10075  -0.292   3.734   9.908  1.2199 -1.3616 -0.6715
  100OSM    H7G10076  -0.182   3.852   9.830 -0.3778  2.2870 -0.6243
  100OSM    C8F10077  -0.393   3.896   9.822  0.5667 -0.0098 -0.3843
  100OSM    H8F10078  -0.367   3.901   9.714  2.2486  0.9593  0.0427
  100OSM    H8G10079  -0.393   4.006   9.833 -1.5780 -0.0384  0.0596
  100OSM    C9F10080  -0.530   3.832   9.843 -0.1688  1.0084 -0.6533
  100OSM    H9F10081  -0.589   3.866   9.930 -3.1130 -0.8557 -1.8414
  100OSM   C10F10082  -0.574   3.735   9.764  0.0527 -0.3040  0.9721
  100OSM   H10F10083  -0.670   3.685   9.783  0.0379 -0.9508 -0.7223
  100OSM   C11F10084  -0.498   3.686   9.647  0.6240 -0.3548 -0.7868
  100OSM   H11F10085  -0.520   3.577   9.649 -2.5278  0.2538 -0.1015
  100OSM   H11G10086  -0.388   3.688   9.665  0.3969  0.8664  0.5075
  100OSM   C12F10087  -0.525   3.749   9.513  0.1793 -0.1111 -0.0813
  100OSM   H12F10088  -0.481   3.851   9.513  1.7416 -0.7790  0.3144
  100OSM   H12G10089  -0.634   3.753   9.489  0.2122 -0.6206 -0.3286
  100OSM   C13F10090  -0.466   3.673   9.386 -0.4704 -0.2619 -0.0747
  100OSM   H13F10091  -0.500   3.727   9.295 -0.5877 -1.0873 -0.5225
  100OSM   H13G10092  -0.516   3.574   9.388 -1.2430  0.1255  1.2631
  100OSM   C14F10093  -0.317   3.655   9.388  0.5417 -0.4179 -0.9762
  100OSM   H14F10094  -0.282   3.586   9.467  0.8509 -1.3607 -1.9304
  100OSM   H14G10095  -0.275   3.755   9.414 -0.1841  0.2777 -2.3781
  100OSM   C15F10096  -0.259   3.602   9.260  0.2229 -0.3466  0.3695
  100OSM   H15F10097  -0.277   3.671   9.175  1.3325 -0.9911 -0.4036
  100OSM   H15G10098  -0.314   3.508   9.234  0.2680 -0.5230  0.8987
  100OSM   C16F10099  -0.111   3.578   9.271 -0.0928 -0.2638  0.2343
  100OSM   H16F10100  -0.089   3.494   9.341 -1.5511 -1.5046 -0.7728
  100OSM   H16G10101  -0.074   3.671   9.320 -1.2784 -1.1202  2.8507
  100OSM   C17F10102  -0.031   3.563   9.138  0.4787  0.5084 -0.6255
  100OSM   H17F10103  -0.071   3.470   9.093  1.8580  1.4126 -3.8483
  100OSM   H17G10104   0.075   3.536   9.161  0.2219  0.3506  0.4053
  100OSM   C18F10105  -0.050   3.681   9.049 -0.0529 -0.4745  0.4045
  100OSM   H18F10106  -0.147   3.670   8.996 -0.4110  0.2550  0.9023
  100OSM   H18G10107   0.033   3.686   8.976  0.7152 -3.3465  1.0190
  100OSM   H18H10108  -0.055   3.780   9.099 -0.4067 -0.8904  1.2087
  101OSM      N10109   3.227   4.091  11.367  0.3252  0.1714 -0.8062
  101OSM    C1510110   3.184   4.234  11.386 -0.4478  0.0193 -0.4546
  101OSM   H15A10111   3.236   4.294  11.312  0.0489 -0.4482 -0.4837
  101OSM   H15B10112   3.202   4.275  11.484 -0.5356  0.3020 -0.5551
  101OSM   H15C10113   3.078   4.246  11.365  0.0511  2.1071 -2.0566
  101OSM    C1410114   3.376   4.083  11.368  0.3235  0.4040  0.5922
  101OSM   H14A10115   3.419   4.141  11.288 -1.0554 -1.1147 -1.3140
  101OSM   H14B10116   3.411   3.981  11.358 -1.8177 -0.2647 -0.3059
  101OSM   H14C10117   3.410   4.127  11.461  0.2042  1.3506  0.1898
  101OSM    C1310118   3.170   4.025  11.486 -0.2549  0.3879  0.1642
  101OSM   H13A10119   3.205   3.923  11.484 -1.5588 -0.0583 -0.3307
  101OSM   H13B10120   3.064   4.039  11.496 -0.2143  2.5817 -2.1052
  101OSM   H13C10121   3.224   4.071  11.567  1.1096  0.8152 -0.9673
  101OSM    C1210122   3.166   4.023  11.247 -0.8214 -0.3152 -0.2262
  101OSM   H12A10123   3.060   4.025  11.265 -0.9927 -3.3565 -0.6270
  101OSM   H12B10124   3.195   3.919  11.258  1.4114  0.4063  0.9653
  101OSM    C1110125   3.210   4.074  11.107  0.6216  0.1940  0.7620
  101OSM   H11A10126   3.143   4.031  11.030  0.3365  1.5348  0.2456
  101OSM   H11B10127   3.309   4.030  11.084 -0.6951 -1.6914 -1.4505
  101OSM      P10128   3.249   4.295  10.988 -0.1065 -0.1591 -0.4161
  101OSM    O1310129   3.282   4.434  11.032 -0.2164  0.0146 -0.4494
  101OSM    O1410130   3.359   4.215  10.933 -0.8379 -0.8376 -0.4504
  101OSM    O1110131   3.127   4.295  10.886 -0.7889  0.3877 -0.9674
  101OSM    O1210132   3.196   4.218  11.111 -0.1745 -0.4370  0.2794
  101OSM    C1S10133   3.134   4.365  10.764 -0.7397 -0.3284 -0.2769
  101OSM    H1S10134   3.213   4.443  10.770 -3.1251  2.1003  0.3462
  101OSM    H1T10135   3.041   4.425  10.754  0.3303  1.2519 -0.9851
  101OSM     NF10136   3.159   4.347  10.512  0.6576  0.6812  0.3747
  101OSM    HNF10137   3.078   4.346  10.454  0.1820 -0.8482  1.0544
  101OSM    C2S10138   3.148   4.272  10.640 -0.2297  0.3882 -0.0413
  101OSM    H2S10139   3.241   4.215  10.655 -0.6154 -0.7275 -1.7240
  101OSM    C3S10140   3.032   4.167  10.645 -0.8721  0.2008  0.4396
  101OSM    H3S10141   2.933   4.214  10.629 -1.0625 -0.3910 -0.1559
  101OSM     O310142   3.026   4.094  10.767 -0.1344 -0.3814  0.1845
  101OSM    HO310143   3.096   4.120  10.827 -1.0675 -1.3907  1.7072
  101OSM    C4S10144   3.060   4.068  10.533  0.5947 -0.9282 -0.3531
  101OSM    H4S10145   3.146   4.004  10.557  0.8186 -0.7229 -0.6096
  101OSM    C5S10146   2.983   4.051  10.418 -0.1164  0.2204 -0.1604
  101OSM    H5S10147   2.886   4.102  10.415 -0.7898 -0.9296  1.2379
  101OSM    C6S10148   3.014   3.944  10.314  0.1860  0.2957  0.1347
  101OSM    H6S10149   2.957   3.849  10.326  0.4133 -0.1628 -2.2344
  101OSM    H6T10150   3.120   3.911  10.328  0.1433 -0.4196 -1.1660
  101OSM    C7S10151   2.994   3.992  10.168  0.4212  0.0291 -0.2923
  101OSM    H7S10152   2.890   4.030  10.156  0.6116  0.9358  0.8503
  101OSM    H7T10153   3.001   3.911  10.093  1.3804  0.7566 -1.0017
  101OSM    C8S10154   3.103   4.089  10.121  0.1704 -0.0524 -0.2284
  101OSM    H8S10155   3.203   4.067  10.164  0.7473  1.3925 -0.8002
  101OSM    H8T10156   3.064   4.188  10.154  0.0909  0.2225 -1.1197
  101OSM    C9S10157   3.115   4.094   9.966  0.2370  0.1870  0.0487
  101OSM    H9S10158   3.015   4.118   9.925 -0.5120 -1.0908  1.1106
  101OSM    H9T10159   3.154   3.999   9.924  0.7023  0.1946  0.4605
  101OSM   C10S10160   3.220   4.195   9.918  0.6707 -0.2071 -0.9176
  101OSM   H10S10161   3.311   4.180   9.981 -1.6746  1.2308  2.9646
  101OSM   H10T10162   3.168   4.291   9.938 -0.4890 -1.7951  4.3101
  101OSM   C11S10163   3.265   4.187   9.767 -0.2937  0.2619 -0.2124
  101OSM   H11S10164   3.291   4.083   9.739 -2.0439 -0.2520  0.0226
  101OSM   H11T10165   3.354   4.252   9.752 -1.3572  1.1961 -2.6819
  101OSM   C12S10166   3.161   4.241   9.674 -0.7734 -0.8138 -0.3686
  101OSM   H12S10167   3.155   4.352   9.673 -0.2450 -0.7841 -0.2800
  101OSM   H12T10168   3.058   4.216   9.707 -0.8437 -1.1291 -0.8179
  101OSM   C13S10169   3.179   4.198   9.525  0.3522  1.1044 -0.2982
  101OSM   H13S10170   3.084   4.155   9.486  1.4046 -1.0590 -0.5776
  101OSM   H13T10171   3.254   4.116   9.527 -1.4664 -0.5865 -0.1413
  101OSM   C14S10172   3.238   4.297   9.440  0.5525 -0.6761 -0.0839
  101OSM   H14S10173   3.334   4.331   9.485  1.1261 -0.8915 -1.1233
  101OSM   H14T10174   3.178   4.390   9.446  1.5710  0.0797 -1.3311
  101OSM   C15S10175   3.253   4.254   9.293 -0.2864 -0.3284 -0.4202
  101OSM   H15S10176   3.148   4.242   9.259  0.2915  0.1726 -2.4631
  101OSM   H15T10177   3.305   4.157   9.293  3.0707  1.3990  0.1441
  101OSM   C16S10178   3.329   4.366   9.212 -0.3172 -0.5964 -0.1978
  101OSM   H16S10179   3.411   4.399   9.280 -1.2982 -1.5924  1.5205
  101OSM   H16T10180   3.246   4.437   9.195 -0.5701 -0.3612  1.8495
  101OSM   C17S10181   3.393   4.311   9.087 -0.6532  0.1227  0.5255
  101OSM   H17S10182   3.459   4.229   9.122  0.8418  0.2280 -1.9482
  101OSM   H17T10183   3.469   4.377   9.039 -0.0947 -0.5385  0.5086
  101OSM   C18S10184   3.287   4.261   8.979 -0.6508 -0.0005  0.3502
  101OSM   H18S10185   3.192   4.222   9.021  0.8894 -1.7890  2.2645
  101OSM   H18T10186   3.322   4.183   8.908  0.4902  0.3084  0.5543
  101OSM   H18U10187   3.255   4.350   8.921  3.1674  0.6524 -0.9434
  101OSM    C1F10188   3.257   4.427  10.479 -0.0927 -0.1837 -0.0729
  101OSM     OF10189   3.357   4.432  10.548  0.5588 -0.1629 -0.3334
  101OSM    C2F10190   3.242   4.508  10.360 -0.6091 -0.5516  1.0661
  101OSM    H2F10191   3.182   4.599  10.381  0.1943  0.8524 -2.3576
  101OSM    H2G10192   3.187   4.452  10.281 -1.3791  0.1063  1.1334
  101OSM    C3F10193   3.363   4.557  10.285  0.6328  0.0114 -0.3769
  101OSM    H3F10194   3.439   4.599  10.355  0.4180 -0.2693  0.0221
  101OSM    H3G10195   3.341   4.632  10.206  1.7324 -0.5648 -1.2514
  101OSM    C4F10196   3.429   4.449  10.196 -0.9366 -0.4501  0.1054
  101OSM    H4F10197   3.366   4.416  10.110 -0.6652 -0.4909 -0.0820
  101OSM    H4G10198   3.448   4.358  10.257 -0.3745 -1.6817 -1.8273
  101OSM    C5F10199   3.564   4.500  10.137  0.6118  0.0796  0.0704
  101OSM    H5F10200   3.627   4.415  10.102 -0.7783 -1.4164  1.1054
  101OSM    H5G10201   3.610   4.552  10.224 -0.9141 -0.1334  1.0146
  101OSM    C6F10202   3.542   4.622  10.036 -0.3048 -0.5504 -0.0191
  101OSM    H6F10203   3.501   4.712  10.087  1.3163 -0.2889  0.8533
  101OSM    H6G10204   3.646   4.633   9.999 -0.0327 -0.8522  0.6580
  101OSM    C7F10205   3.451   4.584   9.917  0.2011 -0.7094 -0.0512
  101OSM    H7F10206   3.342   4.599   9.932  0.5261  0.6921  0.9524
  101OSM    H7G10207   3.457   4.475   9.898  0.4244 -0.8594  0.8703
  101OSM    C8F10208   3.506   4.638   9.779 -0.3014  0.2184 -0.4793
  101OSM    H8F10209   3.615   4.620   9.781 -0.5188 -1.0316  2.0315
  101OSM    H8G10210   3.491   4.747   9.787 -1.5794  0.0625 -0.5721
  101OSM    C9F10211   3.444   4.596   9.650  0.0001 -0.0031 -0.3209
  101OSM    H9F10212   3.436   4.487   9.637  0.3253  0.2693 -3.0863
  101OSM   C10F10213   3.367   4.669   9.571 -0.8351 -0.5390 -0.6307
  101OSM   H10F10214   3.331   4.620   9.479  0.0705 -0.3910 -1.0788
  101OSM   C11F10215   3.331   4.820   9.585  0.2796  0.0552 -0.3032
  101OSM   H11F10216   3.371   4.852   9.684 -3.8342 -1.5374  1.9870
  101OSM   H11G10217   3.220   4.827   9.587  0.3010  0.4282 -0.5059
  101OSM   C12F10218   3.404   4.906   9.482 -0.2465 -0.2934 -0.4188
  101OSM   H12F10219   3.510   4.874   9.475 -1.1772 -3.5593 -0.1158
  101OSM   H12G10220   3.406   5.009   9.525 -0.0389  0.6717 -2.6455
  101OSM   C13F10221   3.349   4.893   9.333  0.3579 -0.3622 -0.8993
  101OSM   H13F10222   3.390   4.987   9.291 -2.0879  2.5298  2.8025
  101OSM   H13G10223   3.241   4.921   9.333  0.2466 -0.7790  0.1907
  101OSM   C14F10224   3.398   4.769   9.250 -0.4395  0.1709  0.1750
  101OSM   H14F10225   3.337   4.681   9.280  1.6761 -1.8030 -1.0987
  101OSM   H14G10226   3.505   4.748   9.273 -0.5745  0.1378  0.7991
  101OSM   C15F10227   3.360   4.788   9.101 -0.7980 -0.0266 -0.3307
  101OSM   H15F10228   3.436   4.864   9.072 -1.8348  0.4042 -1.9636
  101OSM   H15G10229   3.258   4.830   9.089  0.1934  3.3027  2.2749
  101OSM   C16F10230   3.376   4.675   8.997 -0.2001  0.7016  0.3114
  101OSM   H16F10231   3.303   4.598   9.028  0.5189 -0.3579 -0.5645
  101OSM   H16G10232   3.479   4.633   8.996 -1.3949 -2.4491  2.0282
  101OSM   C17F10233   3.353   4.715   8.848  0.0860 -0.5624 -0.0944
  101OSM   H17F10234   3.426   4.796   8.827 -0.7608  0.2216 -0.0908
  101OSM   H17G10235   3.260   4.777   8.846  0.4084 -0.0893 -0.4141
  101OSM   C18F10236   3.353   4.597   8.751 -0.4340 -0.9390  0.3097
  101OSM   H18F10237   3.285   4.511   8.769  1.3407 -2.5450 -0.5208
  101OSM   H18G10238   3.453   4.549   8.751  0.9479  1.8205 -0.4442
  101OSM   H18H10239   3.341   4.633   8.646  1.6883  4.1334  1.6518
  102OSM      N10240   5.235   6.134  11.076  0.3009 -0.3766 -0.8082
  102OSM    C1510241   5.321   6.024  11.128 -0.3624  0.4558  0.1190
  102OSM   H15A10242   5.330   5.952  11.048  0.1182  0.3679  0.2471
  102OSM   H15B10243   5.279   5.969  11.211  0.8252 -0.1431  0.3373
  102OSM   H15C10244   5.420   6.057  11.155  0.8680  0.6691 -4.2411
  102OSM    C1410245   5.100   6.085  11.062 -0.1312 -0.2770  0.0452
  102OSM   H14A10246   5.044   6.082  11.154  0.0198 -0.2185  0.1396
  102OSM   H14B10247   5.094   5.982  11.029 -2.2767  0.3717 -1.7322
  102OSM   H14C10248   5.047   6.140  10.985 -1.6293 -3.2705 -1.1479
  102OSM    C1310249   5.239   6.252  11.168  0.7629 -0.5803  0.1321
  102OSM   H13A10250   5.186   6.335  11.124  0.1171  0.2856  2.5122
  102OSM   H13B10251   5.333   6.267  11.218  0.5801 -0.0016  0.3084
  102OSM   H13C10252   5.176   6.221  11.250  0.8848 -3.3463 -0.7626
  102OSM    C1210253   5.283   6.173  10.938  0.6726 -0.1742  0.1511
  102OSM   H12A10254   5.276   6.090  10.870 -0.5999 -2.2435  2.7507
  102OSM   H12B10255   5.389   6.195  10.949  0.6418 -1.0994  2.5180
  102OSM    C1110256   5.218   6.297  10.866  0.3601  0.2850  0.2363
  102OSM   H11A10257   5.282   6.306  10.776  2.2369  0.2630  1.5307
  102OSM   H11B10258   5.247   6.381  10.934  2.6874  1.8636 -2.5862
  102OSM      P10259   4.972   6.383  10.864  0.0298 -0.1996 -0.1164
  102OSM    O1310260   4.857   6.306  10.927  0.1933 -0.1022 -0.2469
  102OSM    O1410261   5.030   6.490  10.942  0.4254 -0.0832  0.0675
  102OSM    O1110262   4.931   6.431  10.720 -0.4409 -0.1466  0.2198
  102OSM    O1210263   5.081   6.275  10.839  0.2489  0.1253 -0.1481
  102OSM    C1S10264   4.972   6.357  10.608  0.2972  0.6229  0.0631
  102OSM    H1S10265   4.935   6.252  10.610 -1.2593  1.1359 -0.6125
  102OSM    H1T10266   5.083   6.356  10.614  0.4481  5.8756  0.7161
  102OSM     NF10267   4.968   6.346  10.369 -0.0843  0.6705  0.6565
  102OSM    HNF10268   5.065   6.360  10.350 -0.5356  4.0620  0.6821
  102OSM    C2S10269   4.924   6.424  10.478 -0.1453 -0.2659 -0.6184
  102OSM    H2S10270   4.813   6.424  10.481 -0.1013 -0.7039  1.9811
  102OSM    C3S10271   4.966   6.574  10.478 -0.7442 -0.6334  0.1853
  102OSM    H3S10272   5.067   6.584  10.524 -1.1531 -0.5823  1.0594
  102OSM     O310273   4.882   6.660  10.555 -0.4187  0.6163 -0.3061
  102OSM    HO310274   4.831   6.604  10.614 -0.2395  1.9074  1.1072
  102OSM    C4S10275   4.961   6.627  10.338  1.0961 -0.6472 -0.3661
  102OSM    H4S10276   4.875   6.590  10.280 -0.1030 -0.1320  1.0830
  102OSM    C5S10277   5.059   6.708  10.284  0.9299 -0.1401  0.1297
  102OSM    H5S10278   5.147   6.729  10.346  1.2760  0.6374 -0.6113
  102OSM    C6S10279   5.064   6.769  10.146 -0.1818 -0.5721  1.0538
  102OSM    H6S10280   5.168   6.781  10.109 -0.7628 -1.6626 -0.9551
  102OSM    H6T10281   5.044   6.878  10.158  1.5917 -0.0411 -0.5979
  102OSM    C7S10282   4.987   6.708  10.026  0.0386  0.1214  0.1939
  102OSM    H7S10283   4.883   6.739  10.053 -0.1888 -0.9509  0.5532
  102OSM    H7T10284   5.003   6.599  10.024 -0.4708  0.0532 -2.4479
  102OSM    C8S10285   5.016   6.754   9.885 -0.2577  0.9060 -0.1327
  102OSM    H8S10286   5.115   6.714   9.855 -2.1347 -3.6535 -0.6415
  102OSM    H8T10287   5.031   6.864   9.885  0.0642  0.8609 -0.7514
  102OSM    C9S10288   4.911   6.703   9.790  0.2314  0.4911 -0.1332
  102OSM    H9S10289   4.807   6.728   9.818  0.2341 -1.0309  1.2765
  102OSM    H9T10290   4.914   6.593   9.803  2.5998  0.3014 -1.7687
  102OSM   C10S10291   4.952   6.729   9.646  0.1255 -0.1197 -0.4853
  102OSM   H10S10292   5.060   6.711   9.627 -0.1532 -1.9058 -0.4160
  102OSM   H10T10293   4.947   6.840   9.634 -1.4855 -0.3990 -2.5544
  102OSM   C11S10294   4.872   6.640   9.552 -0.4897 -0.0189  0.7311
  102OSM   H11S10295   4.767   6.671   9.570 -1.5352 -2.0948 -1.4563
  102OSM   H11T10296   4.882   6.535   9.589 -0.8188  0.8762  3.4832
  102OSM   C12S10297   4.922   6.654   9.412 -0.1835  0.3683  1.5964
  102OSM   H12S10298   4.883   6.564   9.360 -0.9754  0.3182  2.2706
  102OSM   H12T10299   5.031   6.648   9.392 -0.6947 -0.3047 -1.2097
  102OSM   C13S10300   4.859   6.772   9.341  0.3346 -0.4439 -0.2389
  102OSM   H13S10301   4.900   6.870   9.374 -0.5165  0.3197 -1.4281
  102OSM   H13T10302   4.754   6.781   9.377  0.7074  0.8189  0.5834
  102OSM   C14S10303   4.849   6.760   9.191  0.8672 -0.4936 -0.0886
  102OSM   H14S10304   4.779   6.684   9.151 -0.5202 -0.4376  2.1303
  102OSM   H14T10305   4.950   6.723   9.163  0.1951 -1.6254 -1.0885
  102OSM   C15S10306   4.812   6.891   9.129 -0.3332  0.5677  0.1682
  102OSM   H15S10307   4.884   6.973   9.153  0.1040  0.7139 -1.5541
  102OSM   H15T10308   4.717   6.924   9.174 -1.9193 -0.5562 -2.2696
  102OSM   C16S10309   4.803   6.886   8.977 -0.3596  0.0175 -0.0953
  102OSM   H16S10310   4.765   6.785   8.950  0.0743 -0.3428  0.6125
  102OSM   H16T10311   4.905   6.892   8.932 -0.4911 -0.3975 -0.4572
  102OSM   C17S10312   4.701   6.981   8.910 -0.1728 -0.7531 -0.0161
  102OSM   H17S10313   4.750   7.080   8.905 -0.0099 -0.6208  3.2150
  102OSM   H17T10314   4.610   6.992   8.972 -1.1257  1.8890 -1.7955
  102OSM   C18S10315   4.654   6.921   8.773  0.3259  0.6206 -0.6001
  102OSM   H18S10316   4.569   6.979   8.730 -0.6554  0.5704  1.2063
  102OSM   H18T10317   4.622   6.817   8.794  0.3682  0.9116  1.0282
  102OSM   H18U10318   4.737   6.923   8.699 -0.1522  1.5480 -1.1177
  102OSM    C1F10319   4.904   6.238  10.315 -0.9240 -0.0256  0.3867
  102OSM     OF10320   4.793   6.204  10.352 -0.4973 -0.2541 -0.3540
  102OSM    C2F10321   4.977   6.168  10.195 -0.0070  0.3104  0.6138
  102OSM    H2F10322   5.087   6.179  10.182 -0.3506  0.2738 -2.5897
  102OSM    H2G10323   4.934   6.218  10.106  2.2690  0.8816 -0.1983
  102OSM    C3F10324   4.958   6.019  10.192  0.5120  0.2401 -0.5118
  102OSM    H3F10325   4.849   5.998  10.192  0.3014  1.2798  1.0199
  102OSM    H3G10326   4.985   5.986  10.295  3.2651  3.0824 -0.2660
  102OSM    C4F10327   5.037   5.951  10.079  0.2224  0.1918  0.2042
  102OSM    H4F10328   5.005   5.992   9.981 -0.6435 -1.4395 -0.2283
  102OSM    H4G10329   5.012   5.843  10.071  0.3226  0.2313 -0.7341
  102OSM    C5F10330   5.189   5.956  10.101 -0.2327  0.2552  0.9591
  102OSM    H5F10331   5.216   5.903  10.194 -0.4206  0.6602  1.2463
  102OSM    H5G10332   5.223   6.060  10.120 -2.5779  1.2758 -0.1418
  102OSM    C6F10333   5.266   5.888   9.984 -0.1461  0.1769 -0.0061
  102OSM    H6F10334   5.301   5.965   9.912  2.1469 -0.9639 -0.1650
  102OSM    H6G10335   5.197   5.822   9.925  3.6260 -0.4903 -3.9585
  102OSM    C7F10336   5.386   5.801  10.026 -0.5266 -0.0169  0.1332
  102OSM    H7F10337   5.405   5.761   9.924 -0.1811  0.8419 -0.1482
  102OSM    H7G10338   5.359   5.718  10.094  1.3437  0.2196  1.1817
  102OSM    C8F10339   5.505   5.874  10.075  0.7445 -0.2315 -0.4562
  102OSM    H8F10340   5.481   5.942  10.160  2.6858  4.9848 -3.7751
  102OSM    H8G10341   5.529   5.943   9.990  2.0334 -1.1901 -0.8898
  102OSM    C9F10342   5.625   5.782  10.095 -0.1054  0.1885  0.0707
  102OSM    H9F10343   5.607   5.706  10.173  0.0366 -0.3333 -0.4008
  102OSM   C10F10344   5.745   5.793  10.030  0.0823  0.4727 -0.2899
  102OSM   H10F10345   5.802   5.700  10.037 -0.8814 -0.0602  0.6296
  102OSM   C11F10346   5.798   5.882   9.913 -0.2139 -0.8260 -0.4272
  102OSM   H11F10347   5.908   5.897   9.922 -0.2620 -0.9453  0.4092
  102OSM   H11G10348   5.751   5.982   9.908 -1.3848 -1.3667 -0.3992
  102OSM   C12F10349   5.766   5.802   9.785  0.3957 -0.2747  0.0534
  102OSM   H12F10350   5.664   5.757   9.791  1.0701 -1.5276  2.6308
  102OSM   H12G10351   5.825   5.708   9.783 -0.7330 -1.0429  1.7009
  102OSM   C13F10352   5.778   5.888   9.659 -0.5471 -0.4698  0.2112
  102OSM   H13F10353   5.884   5.903   9.629 -1.0416 -1.5081 -2.1138
  102OSM   H13G10354   5.745   5.992   9.678  0.5075 -0.2056  0.6609
  102OSM   C14F10355   5.698   5.829   9.543 -0.5020  0.1102 -0.2890
  102OSM   H14F10356   5.603   5.784   9.578 -0.7314  0.1138 -0.9119
  102OSM   H14G10357   5.756   5.754   9.485  0.1337  0.6602 -0.3834
  102OSM   C15F10358   5.684   5.936   9.433  0.4284 -0.4374 -0.5956
  102OSM   H15F10359   5.784   5.980   9.413 -0.3102  1.5663  0.0457
  102OSM   H15G10360   5.631   6.022   9.478  2.1370  0.7805 -0.8643
  102OSM   C16F10361   5.612   5.877   9.310  0.0188 -0.3655 -0.5248
  102OSM   H16F10362   5.511   5.844   9.339  0.4494 -1.0958  0.1436
  102OSM   H16G10363   5.663   5.784   9.277 -0.2378 -1.3900  1.9229
  102OSM   C17F10364   5.600   5.988   9.203  0.2685  0.0433  0.2534
  102OSM   H17F10365   5.702   6.029   9.187 -0.3898  1.2736 -0.9078
  102OSM   H17G10366   5.534   6.063   9.252  2.0239  0.2274  2.4135
  102OSM   C18F10367   5.530   5.940   9.076  0.4988  0.2599 -0.9714
  102OSM   H18F10368   5.569   5.847   9.031  3.1437  0.7574  0.1798
  102OSM   H18G10369   5.538   6.023   9.002  1.8724  0.6095 -0.4557
  102OSM   H18H10370   5.420   5.937   9.092  0.4981  1.8982 -0.5030
  103OSM      N10371   3.285   2.820  10.990  0.5674  0.1788 -0.8054
  103OSM    C1510372   3.318   2.954  10.938  0.0419 -0.0137 -0.2027
  103OSM   H15A10373   3.407   2.960  10.878 -1.1572  2.3186 -1.8183
  103OSM   H15B10374   3.333   3.024  11.019  0.4569 -0.5307  0.1774
  103OSM   H15C10375   3.230   3.000  10.894 -0.8937 -2.4759 -0.9924
  103OSM    C1410376   3.403   2.768  11.065  1.0157 -0.2745  0.2656
  103OSM   H14A10377   3.380   2.666  11.092 -2.9876  0.6791  0.7119
  103OSM   H14B10378   3.412   2.825  11.156  0.4806 -0.6362  0.5462
  103OSM   H14C10379   3.492   2.765  11.003  1.9924  1.3283  1.5341
  103OSM    C1310380   3.168   2.837  11.088  0.2033 -0.4991 -0.2803
  103OSM   H13A10381   3.144   2.747  11.143 -1.5177 -0.5175 -1.0236
  103OSM   H13B10382   3.083   2.850  11.023  0.8820  1.2226 -0.8401
  103OSM   H13C10383   3.188   2.914  11.161 -0.8293 -0.3325 -0.1609
  103OSM    C1210384   3.254   2.721  10.872  0.0113  0.0738  0.9537
  103OSM   H12A10385   3.349   2.707  10.824 -1.5215 -1.6978 -1.6507
  103OSM   H12B10386   3.185   2.769  10.805  0.6389 -1.0055 -0.4890
  103OSM    C1110387   3.191   2.588  10.909  0.4101 -0.4847  0.3417
  103OSM   H11A10388   3.146   2.548  10.816 -0.9911  0.8394  0.4274
  103OSM   H11B10389   3.101   2.615  10.969 -0.5203 -2.5218 -0.1164
  103OSM      P10390   3.371   2.403  10.912  0.1674 -0.1890  0.0059
  103OSM    O1310391   3.475   2.346  11.003  0.6285 -0.7614 -0.4145
  103OSM    O1410392   3.280   2.307  10.846  0.6499 -0.4271 -0.4875
  103OSM    O1110393   3.438   2.495  10.799  0.2572  0.3890  0.3342
  103OSM    O1210394   3.279   2.508  10.987  0.3831  0.2228 -0.2181
  103OSM    C1S10395   3.565   2.465  10.730 -0.4085  0.3646  0.4056
  103OSM    H1S10396   3.624   2.396  10.793 -0.1808  0.7008  0.5553
  103OSM    H1T10397   3.624   2.558  10.720  0.3656 -0.1640  0.0212
  103OSM     NF10398   3.671   2.369  10.524  0.1874 -0.3712  0.2223
  103OSM    HNF10399   3.736   2.428  10.477  0.5648 -1.9981 -1.3384
  103OSM    C2S10400   3.551   2.412  10.584 -0.1888 -0.0876  1.6431
  103OSM    H2S10401   3.477   2.329  10.585  0.8962 -1.2889 -3.2772
  103OSM    C3S10402   3.492   2.530  10.497 -1.2637 -0.5148  0.9568
  103OSM    H3S10403   3.569   2.610  10.485 -1.3635 -0.3865  1.1686
  103OSM     O310404   3.382   2.596  10.557 -0.0676  0.1170  0.6806
  103OSM    HO310405   3.384   2.552  10.642 -0.2028 -1.1137  0.0706
  103OSM    C4S10406   3.447   2.489  10.356 -0.0538  0.6391 -0.6472
  103OSM    H4S10407   3.380   2.402  10.351  0.2463  0.2201  1.8633
  103OSM    C5S10408   3.482   2.550  10.242  0.1713 -0.0689 -0.6126
  103OSM    H5S10409   3.541   2.642  10.250 -0.2591  0.0462  1.5283
  103OSM    C6S10410   3.433   2.510  10.104  0.7472  0.2574  0.2371
  103OSM    H6S10411   3.363   2.424  10.110  0.1648  0.7027 -0.0464
  103OSM    H6T10412   3.524   2.500  10.041  1.3308 -3.0292  1.5075
  103OSM    C7S10413   3.351   2.635  10.037 -0.3923 -0.3336 -0.2364
  103OSM    H7S10414   3.420   2.722  10.037 -0.4438 -0.2811  1.2857
  103OSM    H7T10415   3.279   2.664  10.117 -0.2936 -0.0287 -0.2582
  103OSM    C8S10416   3.265   2.604   9.912 -0.7973 -0.3788  0.6770
  103OSM    H8S10417   3.196   2.683   9.874  1.5153  0.2668 -2.3789
  103OSM    H8T10418   3.210   2.510   9.935 -1.1652 -0.1529  0.7349
  103OSM    C9S10419   3.360   2.576   9.792  0.4801 -1.4920  0.3788
  103OSM    H9S10420   3.406   2.475   9.799  1.9230 -0.9256 -0.8308
  103OSM    H9T10421   3.438   2.654   9.802  0.1977 -0.8950 -1.7642
  103OSM   C10S10422   3.290   2.601   9.659 -0.1624  0.2058  0.3981
  103OSM   H10S10423   3.279   2.709   9.638  0.7452  0.3158  0.4932
  103OSM   H10T10424   3.185   2.565   9.663  0.2473 -0.9276  1.5140
  103OSM   C11S10425   3.363   2.528   9.551 -0.0212 -0.5405 -0.6454
  103OSM   H11S10426   3.353   2.418   9.563 -1.2020 -0.3547  0.1446
  103OSM   H11T10427   3.468   2.556   9.575 -1.6960  4.8198  1.3011
  103OSM   C12S10428   3.313   2.561   9.417 -0.4846 -0.7985  0.4656
  103OSM   H12S10429   3.350   2.658   9.377 -1.1950 -0.5805  0.3321
  103OSM   H12T10430   3.204   2.540   9.420 -0.5681 -0.8716 -1.9134
  103OSM   C13S10431   3.377   2.463   9.320  0.0289  0.4523  0.1642
  103OSM   H13S10432   3.357   2.359   9.354  1.6454 -0.2051 -0.8486
  103OSM   H13T10433   3.487   2.474   9.327  0.2764 -1.6397 -0.3144
  103OSM   C14S10434   3.330   2.467   9.177  0.3413  0.2346  0.2687
  103OSM   H14S10435   3.219   2.470   9.174  0.3769 -0.1367 -2.0953
  103OSM   H14T10436   3.347   2.375   9.116 -2.0789 -0.2793  0.3119
  103OSM   C15S10437   3.382   2.589   9.097  0.1120  0.2590 -1.0233
  103OSM   H15S10438   3.481   2.620   9.137  0.1633 -0.1500 -0.8266
  103OSM   H15T10439   3.316   2.671   9.133 -0.8611 -1.3984  1.0775
  103OSM   C16S10440   3.376   2.573   8.947  0.5519 -1.2329  0.1298
  103OSM   H16S10441   3.270   2.575   8.914  0.6005  2.6624 -0.1283
  103OSM   H16T10442   3.437   2.487   8.914  2.3026  0.4255 -1.1132
  103OSM   C17S10443   3.449   2.694   8.879 -0.9674 -0.6806 -0.0072
  103OSM   H17S10444   3.554   2.700   8.914 -1.3063  3.5029  0.5210
  103OSM   H17T10445   3.408   2.790   8.916 -1.4743 -0.4809 -1.0749
  103OSM   C18S10446   3.444   2.700   8.729  0.1640  0.4239  0.2879
  103OSM   H18S10447   3.501   2.786   8.689  3.4668 -1.8984 -0.1764
  103OSM   H18T10448   3.336   2.698   8.703  0.5101  0.9066 -1.2421
  103OSM   H18U10449   3.493   2.612   8.683 -0.0187 -0.6996  2.1734
  103OSM    C1F10450   3.712   2.249  10.564 -0.8258 -0.4723  0.2901
  103OSM     OF10451   3.633   2.170  10.620  0.4216  0.1005  0.6549
  103OSM    C2F10452   3.852   2.213  10.530  0.5990 -0.5634  0.6578
  103OSM    H2F10453   3.895   2.159  10.618  1.6356 -0.5139  0.1804
  103OSM    H2G10454   3.922   2.295  10.505  1.9295 -1.1856  2.2150
  103OSM    C3F10455   3.847   2.104  10.411  0.1408  0.2613 -0.8039
  103OSM    H3F10456   3.757   2.040  10.417 -0.2318  0.7984 -0.6361
  103OSM    H3G10457   3.934   2.036  10.426 -0.2657  0.4491  2.9020
  103OSM    C4F10458   3.855   2.167  10.273 -0.0294 -0.5486 -0.6388
  103OSM    H4F10459   3.787   2.255  10.265 -0.9210 -1.3957 -2.5838
  103OSM    H4G10460   3.844   2.086  10.197 -0.9686 -0.2019 -0.8801
  103OSM    C5F10461   3.997   2.230  10.238  0.8296  0.3985  0.2288
  103OSM    H5F10462   4.076   2.157  10.265  2.5129  1.3578 -1.9863
  103OSM    H5G10463   4.012   2.311  10.313 -0.2741  1.3698 -0.5905
  103OSM    C6F10464   4.005   2.289  10.095 -0.7018  1.0263 -0.5019
  103OSM    H6F10465   3.945   2.383  10.093  0.0910  1.5831  0.8999
  103OSM    H6G10466   3.976   2.216  10.016 -1.1316  0.9335 -0.2591
  103OSM    C7F10467   4.157   2.327  10.064  0.3724  0.4312 -0.5498
  103OSM    H7F10468   4.195   2.369  10.160  1.1194  1.2236 -1.1754
  103OSM    H7G10469   4.158   2.402   9.982  2.6492 -1.0042 -1.8849
  103OSM    C8F10470   4.230   2.192  10.022  0.0056 -1.1086  0.4261
  103OSM    H8F10471   4.179   2.164   9.927  1.3184 -1.6313 -0.1285
  103OSM    H8G10472   4.209   2.114  10.099 -2.2986 -1.1164 -0.1652
  103OSM    C9F10473   4.380   2.214  10.003  0.0717 -0.2849 -0.3313
  103OSM    H9F10474   4.442   2.216  10.095  0.1663 -0.9312 -0.3771
  103OSM   C10F10475   4.448   2.233   9.891 -0.7540 -0.1196 -0.4399
  103OSM   H10F10476   4.556   2.251   9.888 -0.6877 -0.5277 -0.4504
  103OSM   C11F10477   4.400   2.240   9.752  0.2393 -0.7629 -0.0865
  103OSM   H11F10478   4.299   2.198   9.733  0.9579 -2.1655 -0.9554
  103OSM   H11G10479   4.471   2.176   9.695 -0.8947 -0.1580 -2.2160
  103OSM   C12F10480   4.415   2.375   9.696 -0.5103 -0.0621 -0.4146
  103OSM   H12F10481   4.521   2.410   9.687 -1.1869  1.7741 -1.6874
  103OSM   H12G10482   4.359   2.448   9.758  1.8406 -0.3407  2.1186
  103OSM   C13F10483   4.353   2.386   9.559  0.6582 -0.8486  0.1233
  103OSM   H13F10484   4.352   2.491   9.522 -0.3610 -0.2247  1.9130
  103OSM   H13G10485   4.252   2.340   9.556  1.5752 -2.8853 -1.2115
  103OSM   C14F10486   4.430   2.314   9.440  0.2230 -0.3435 -0.0077
  103OSM   H14F10487   4.444   2.206   9.462 -2.6389 -0.6693  0.4766
  103OSM   H14G10488   4.530   2.362   9.439 -1.0577  2.5443  2.8484
  103OSM   C15F10489   4.359   2.314   9.301 -0.0684 -0.0500  0.6773
  103OSM   H15F10490   4.427   2.280   9.220 -2.1841  0.3020 -1.2917
  103OSM   H15G10491   4.318   2.411   9.265 -2.0919 -1.8900 -2.2079
  103OSM   C16F10492   4.241   2.219   9.313  0.0596  0.0756 -0.1328
  103OSM   H16F10493   4.168   2.260   9.386  0.5688  4.0375 -1.7144
  103OSM   H16G10494   4.283   2.120   9.341  1.2996  1.3969  2.7827
  103OSM   C17F10495   4.171   2.194   9.182 -0.1826 -0.2787 -0.6065
  103OSM   H17F10496   4.242   2.184   9.097  0.2372 -0.5096 -0.2261
  103OSM   H17G10497   4.110   2.278   9.143 -1.1655 -0.9321 -0.5143
  103OSM   C18F10498   4.088   2.060   9.181 -0.8929 -0.4493  0.6945
  103OSM   H18F10499   4.014   2.059   9.098 -2.0156 -2.5402  1.6994
  103OSM   H18G10500   4.021   2.044   9.267 -2.1511  1.9771  0.1986
  103OSM   H18H10501   4.171   1.987   9.169  0.3913  0.7920  1.7209
  104OSM      N10502   5.652   1.292  11.234 -0.2440 -0.0409 -0.3472
  104OSM    C1510503   5.643   1.168  11.326 -0.5097  0.3812 -0.1843
  104OSM   H15A10504   5.702   1.181  11.415 -0.0884  2.4549 -0.7225
  104OSM   H15B10505   5.679   1.083  11.270 -1.8345  0.1088 -0.6355
  104OSM   H15C10506   5.542   1.156  11.362 -1.2375  2.0316 -1.5749
  104OSM    C1410507   5.591   1.414  11.290  0.0182  0.2632  0.6184
  104OSM   H14A10508   5.608   1.508  11.239  1.5138  0.1840  0.9380
  104OSM   H14B10509   5.627   1.426  11.391  0.2022 -0.6253  0.6567
  104OSM   H14C10510   5.484   1.413  11.305 -0.3989 -2.4489 -2.0847
  104OSM    C1310511   5.794   1.314  11.210 -0.0642  0.1262  0.0670
  104OSM   H13A10512   5.806   1.388  11.132  1.4798 -1.8011 -1.5750
  104OSM   H13B10513   5.840   1.221  11.182 -1.5149 -0.8653  0.9555
  104OSM   H13C10514   5.838   1.356  11.300 -1.1986 -0.2564  0.8102
  104OSM    C1210515   5.596   1.252  11.102  0.0904 -0.4995  0.7862
  104OSM   H12A10516   5.491   1.231  11.112 -0.1711 -0.1752 -1.2109
  104OSM   H12B10517   5.625   1.152  11.070  1.0703 -0.3583  1.2061
  104OSM    C1110518   5.611   1.362  10.987 -0.5679 -0.6347 -0.0457
  104OSM   H11A10519   5.584   1.313  10.891  0.6680 -1.8099  0.1922
  104OSM   H11B10520   5.719   1.388  10.980 -0.8908  0.6773 -0.1253
  104OSM      P10521   5.548   1.608  10.934 -0.1403  0.0638  0.5762
  104OSM    O1310522   5.420   1.678  10.924  0.4981  0.5798  0.0850
  104OSM    O1410523   5.652   1.678  11.017  0.0687 -0.7089 -0.2384
  104OSM    O1110524   5.599   1.571  10.786  0.2256  0.2678 -0.2523
  104OSM    O1210525   5.521   1.472  11.007  0.1408  0.5334 -0.4548
  104OSM    C1S10526   5.496   1.525  10.693 -0.2197  0.4543  0.1834
  104OSM    H1S10527   5.396   1.571  10.704 -1.4300 -1.6795 -1.5961
  104OSM    H1T10528   5.490   1.415  10.702 -1.5735  0.6101  1.2766
  104OSM     NF10529   5.435   1.546  10.448  0.2026  0.6255  0.0844
  104OSM    HNF10530   5.458   1.488  10.370 -1.5875  1.6576 -1.2590
  104OSM    C2S10531   5.545   1.556  10.547 -0.6829 -0.1590  0.0489
  104OSM    H2S10532   5.582   1.660  10.555 -1.1154 -0.1114  1.4171
  104OSM    C3S10533   5.671   1.463  10.523  0.6506  0.8540 -1.0852
  104OSM    H3S10534   5.640   1.356  10.521 -3.0732  1.8652 -0.9716
  104OSM     O310535   5.758   1.457  10.635 -0.0216 -0.3119 -0.1270
  104OSM    HO310536   5.713   1.505  10.705  0.3012  2.1904 -1.5887
  104OSM    C4S10537   5.745   1.509  10.398 -0.4235  0.3607  0.1369
  104OSM    H4S10538   5.723   1.452  10.307 -0.4225 -0.7345  0.8062
  104OSM    C5S10539   5.841   1.605  10.396  0.4612 -0.8924 -0.7216
  104OSM    H5S10540   5.864   1.655  10.492  1.1850  0.2517 -1.4777
  104OSM    C6S10541   5.916   1.653  10.266 -0.0115 -0.3482  0.2507
  104OSM    H6S10542   6.021   1.620  10.279  1.4499  4.3388  1.2697
  104OSM    H6T10543   5.911   1.763  10.250 -1.1722 -0.0559  2.4420
  104OSM    C7S10544   5.867   1.590  10.129 -0.3843 -0.0494  0.3267
  104OSM    H7S10545   5.758   1.607  10.116 -0.3706 -0.4233 -0.3210
  104OSM    H7T10546   5.886   1.481  10.118 -2.1441 -0.4530  1.1113
  104OSM    C8S10547   5.928   1.659  10.006  0.2427 -0.5410  0.4225
  104OSM    H8S10548   6.039   1.656  10.013  0.3046 -0.8050 -0.6903
  104OSM    H8T10549   5.893   1.764  10.015 -0.6409 -0.6859 -1.3175
  104OSM    C9S10550   5.889   1.601   9.872 -0.4624  0.4540  0.2265
  104OSM    H9S10551   5.782   1.570   9.861 -0.2355 -0.2060 -0.1487
  104OSM    H9T10552   5.935   1.501   9.858  0.6274  1.2014 -1.6848
  104OSM   C10S10553   5.944   1.679   9.748  0.3250  0.4575 -0.5229
  104OSM   H10S10554   6.053   1.661   9.743 -0.0575 -2.2330  0.1308
  104OSM   H10T10555   5.920   1.787   9.760 -3.7223 -0.5067  0.8912
  104OSM   C11S10556   5.874   1.631   9.621 -0.2961  0.3132 -0.1178
  104OSM   H11S10557   5.763   1.630   9.628 -0.4277  0.6427 -2.0079
  104OSM   H11T10558   5.918   1.532   9.597  1.4954  1.0650 -0.0143
  104OSM   C12S10559   5.904   1.719   9.505  0.0378 -0.0078  0.2753
  104OSM   H12S10560   6.011   1.710   9.475  0.3006  1.5358  0.7341
  104OSM   H12T10561   5.888   1.827   9.525  0.3359  0.3646 -1.4262
  104OSM   C13S10562   5.811   1.677   9.381  1.0347  0.4273 -0.2451
  104OSM   H13S10563   5.710   1.706   9.419 -0.0898 -1.3750 -1.7410
  104OSM   H13T10564   5.813   1.566   9.371 -1.2643  0.5269 -2.2075
  104OSM   C14S10565   5.833   1.757   9.246  0.1771 -0.5734 -0.4582
  104OSM   H14S10566   5.858   1.863   9.268  0.3610 -0.4589 -1.1954
  104OSM   H14T10567   5.736   1.757   9.193 -0.3569  2.2852  0.4276
  104OSM   C15S10568   5.939   1.692   9.154 -0.1745 -0.9401  0.3045
  104OSM   H15S10569   5.890   1.599   9.117 -0.9297 -0.3771 -0.1106
  104OSM   H15T10570   6.028   1.669   9.218  0.8396  1.2109 -0.2987
  104OSM   C16S10571   5.972   1.780   9.031  0.6808  0.5316 -0.5209
  104OSM   H16S10572   6.020   1.869   9.078  2.7185 -1.7848  1.9706
  104OSM   H16T10573   5.881   1.803   8.971  0.8150  0.2227 -0.8447
  104OSM   C17S10574   6.081   1.708   8.945  0.1960  0.2968  0.2540
  104OSM   H17S10575   6.042   1.604   8.938  0.5015  0.1273  1.0035
  104OSM   H17T10576   6.181   1.691   8.992  0.2491 -0.8451 -0.2528
  104OSM   C18S10577   6.088   1.765   8.810  0.2083  0.1681  0.2989
  104OSM   H18S10578   5.989   1.755   8.761  1.1533  1.5406 -1.9706
  104OSM   H18T10579   6.154   1.702   8.747 -1.2895 -0.3529 -0.8006
  104OSM   H18U10580   6.129   1.868   8.814 -3.4939  1.7459 -0.2797
  104OSM    C1F10581   5.324   1.620  10.434  0.6467  0.4928 -0.0656
  104OSM     OF10582   5.261   1.673  10.527  0.1763 -0.0418  0.1108
  104OSM    C2F10583   5.274   1.621  10.294  0.4714 -0.3293  0.0781
  104OSM    H2F10584   5.240   1.521  10.260  0.8281 -0.7582  0.9907
  104OSM    H2G10585   5.361   1.639  10.226 -1.2403  0.6298 -1.9096
  104OSM    C3F10586   5.155   1.723  10.279  0.2568  0.0542  0.5538
  104OSM    H3F10587   5.185   1.817  10.331  0.1618  1.1761 -1.3479
  104OSM    H3G10588   5.067   1.681  10.331 -1.1641  0.5109 -1.4131
  104OSM    C4F10589   5.129   1.749  10.133 -0.0957 -0.2040 -1.0181
  104OSM    H4F10590   5.103   1.657  10.076 -0.3206 -1.2953  0.8047
  104OSM    H4G10591   5.216   1.801  10.088 -0.6363  1.3092 -0.3290
  104OSM    C5F10592   5.017   1.854  10.118 -0.0497  0.1599  0.2598
  104OSM    H5F10593   5.041   1.951  10.167  2.7638 -0.7491  0.7558
  104OSM    H5G10594   4.929   1.811  10.171 -0.5482  2.4618  1.3583
  104OSM    C6F10595   4.988   1.884   9.972  0.6731 -0.1809 -0.8989
  104OSM    H6F10596   4.956   1.790   9.922  1.0885 -1.1048  0.5648
  104OSM    H6G10597   5.079   1.916   9.918  0.5907 -1.3240 -1.7342
  104OSM    C7F10598   4.877   1.988   9.942  0.2576 -1.1599  0.1260
  104OSM    H7F10599   4.915   2.078   9.995 -0.4925 -0.0512 -1.1759
  104OSM    H7G10600   4.778   1.959   9.984  0.2635  0.6306  1.4443
  104OSM    C8F10601   4.885   2.013   9.783 -0.1906 -0.1162  0.0879
  104OSM    H8F10602   4.856   1.917   9.734  2.9979 -1.1463  0.1305
  104OSM    H8G10603   4.986   2.045   9.750 -0.7823  2.0360  0.3342
  104OSM    C9F10604   4.785   2.119   9.734  0.3706  0.1295 -0.5772
  104OSM    H9F10605   4.696   2.138   9.796  0.4331  1.8201 -0.9893
  104OSM   C10F10606   4.796   2.202   9.632  0.6451 -0.9615  0.8781
  104OSM   H10F10607   4.724   2.285   9.630  2.8336  0.9694 -0.1147
  104OSM   C11F10608   4.909   2.217   9.539 -0.8145 -0.1567 -0.0378
  104OSM   H11F10609   4.983   2.137   9.557 -0.8776 -0.0302  0.8028
  104OSM   H11G10610   4.949   2.319   9.555 -0.4155 -0.2864 -0.2188
  104OSM   C12F10611   4.888   2.204   9.387 -0.4938  0.6153 -0.3407
  104OSM   H12F10612   4.980   2.225   9.328 -0.4533  0.1714 -0.4397
  104OSM   H12G10613   4.827   2.292   9.356  0.7753  1.2586 -1.0757
  104OSM   C13F10614   4.819   2.076   9.334  0.0016  0.1025  0.6116
  104OSM   H13F10615   4.711   2.082   9.360 -0.5125 -3.3335 -0.4363
  104OSM   H13G10616   4.855   1.982   9.382 -0.3549 -0.0959  0.4980
  104OSM   C14F10617   4.830   2.059   9.178  0.0651 -0.9670  0.2333
  104OSM   H14F10618   4.785   2.150   9.132  0.8695 -1.9280 -2.5543
  104OSM   H14G10619   4.772   1.967   9.157 -2.0524  0.9052 -2.4457
  104OSM   C15F10620   4.972   2.042   9.118 -0.5610  0.2332  0.2080
  104OSM   H15F10621   5.022   1.958   9.170  2.2096  1.8592  0.2517
  104OSM   H15G10622   5.043   2.126   9.135  1.7010 -0.8937 -3.0977
  104OSM   C16F10623   4.944   2.029   8.969 -0.1385  0.4292 -0.0826
  104OSM   H16F10624   4.892   2.119   8.930 -1.5778  0.8158  2.6525
  104OSM   H16G10625   4.864   1.953   8.954  0.1572  0.0927  0.0216
  104OSM   C17F10626   5.069   1.991   8.881 -0.2956 -0.2401  0.0292
  104OSM   H17F10627   5.015   1.951   8.792 -0.1819  2.5453 -1.3645
  104OSM   H17G10628   5.115   1.901   8.926 -1.4034 -1.1063 -0.5316
  104OSM   C18F10629   5.176   2.100   8.861 -0.1107 -0.5300  0.0288
  104OSM   H18F10630   5.185   2.154   8.958 -0.2126  1.2972 -0.9698
  104OSM   H18G10631   5.145   2.166   8.778  0.2084  0.4568  0.6853
  104OSM   H18H10632   5.270   2.053   8.825  1.0585  1.2203  0.7664
  105OSM      N10633   2.140   4.319  11.131  0.4075 -0.4154  0.5838
  105OSM    C1510634   1.990   4.287  11.134 -0.1265 -0.7253 -1.0766
  105OSM   H15A10635   1.958   4.281  11.032 -0.3964  0.9657 -1.0985
  105OSM   H15B10636   1.940   4.368  11.186 -0.0392 -0.9891 -0.5732
  105OSM   H15C10637   1.975   4.191  11.182 -0.7759 -0.1354 -0.0734
  105OSM    C1410638   2.203   4.323  11.267 -0.6122  0.1975  0.3315
  105OSM   H14A10639   2.155   4.399  11.327 -0.2345 -0.1762  1.1113
  105OSM   H14B10640   2.310   4.337  11.270 -0.3307 -1.6402 -0.3694
  105OSM   H14C10641   2.182   4.230  11.317 -0.1771 -0.5845 -0.9331
  105OSM    C1310642   2.217   4.208  11.059 -0.1268 -0.2760  0.3691
  105OSM   H13A10643   2.187   4.201  10.956  2.1416 -1.1805 -0.2475
  105OSM   H13B10644   2.201   4.116  11.113 -0.6521 -0.4414 -0.0623
  105OSM   H13C10645   2.323   4.228  11.059  0.2812 -2.1890  2.5511
  105OSM    C1210646   2.161   4.460  11.068 -0.4920  0.1154 -0.0880
  105OSM   H12A10647   2.265   4.485  11.082  0.1015 -0.7642 -2.5388
  105OSM   H12B10648   2.116   4.533  11.133 -1.8998 -0.3382 -0.5416
  105OSM    C1110649   2.131   4.481  10.917  0.1149 -0.7823 -0.1006
  105OSM   H11A10650   2.151   4.588  10.895  0.9820 -0.5662  1.6663
  105OSM   H11B10651   2.020   4.484  10.914 -0.0448 -0.5205  3.8447
  105OSM      P10652   2.326   4.395  10.747 -0.0401 -0.3051  0.2028
  105OSM    O1310653   2.367   4.538  10.753  0.0230  0.1211  0.4081
  105OSM    O1410654   2.422   4.290  10.793 -0.3181 -0.3094  0.1073
  105OSM    O1110655   2.279   4.364  10.598 -0.1086 -0.5154 -0.4165
  105OSM    O1210656   2.187   4.387  10.822  0.3282 -0.1653  0.6866
  105OSM    C1S10657   2.153   4.414  10.541 -0.3685  0.4852  0.5762
  105OSM    H1S10658   2.150   4.524  10.556 -1.0823  0.5221  0.2229
  105OSM    H1T10659   2.061   4.378  10.593  0.9441  0.5043  2.9540
  105OSM     NF10660   2.013   4.427  10.344 -0.2862 -0.4635 -0.0616
  105OSM    HNF10661   1.948   4.353  10.329  1.0242 -1.7255  0.3208
  105OSM    C2S10662   2.142   4.386  10.387 -0.1711 -0.2664  0.0357
  105OSM    H2S10663   2.213   4.442  10.323  0.8393  0.1307  1.4784
  105OSM    C3S10664   2.160   4.230  10.365  0.4679  0.0856  0.3143
  105OSM    H3S10665   2.074   4.174  10.406 -0.3024 -1.3611 -3.0955
  105OSM     O310666   2.278   4.165  10.410 -0.2863  0.0921 -0.2007
  105OSM    HO310667   2.315   4.227  10.474  1.2804  2.3458 -3.1722
  105OSM    C4S10668   2.132   4.197  10.219 -0.5382 -0.0369  1.0294
  105OSM    H4S10669   2.029   4.165  10.199 -0.3822  0.9249 -1.5995
  105OSM    C5S10670   2.219   4.189  10.121  0.1748  0.0865  0.3057
  105OSM    H5S10671   2.328   4.198  10.131  0.4549 -1.0916 -1.5531
  105OSM    C6S10672   2.175   4.151   9.977 -0.1931 -0.6221  0.2287
  105OSM    H6S10673   2.069   4.135   9.949  0.0734 -0.1598 -1.0615
  105OSM    H6T10674   2.219   4.055   9.942  0.8541 -0.4194  0.9742
  105OSM    C7S10675   2.213   4.266   9.880 -0.3049 -0.3905 -0.6078
  105OSM    H7S10676   2.314   4.304   9.905 -0.6480  0.5045 -0.5638
  105OSM    H7T10677   2.155   4.354   9.918  1.2887  0.6232 -0.4697
  105OSM    C8S10678   2.180   4.234   9.735  0.5652  0.0543 -0.0956
  105OSM    H8S10679   2.074   4.201   9.725  0.3902  0.9536 -1.2269
  105OSM    H8T10680   2.241   4.143   9.714  0.3116 -0.4768  1.4158
  105OSM    C9S10681   2.205   4.353   9.647 -0.5927 -0.1116  0.3116
  105OSM    H9S10682   2.314   4.361   9.627 -0.4794 -0.8839  0.5973
  105OSM    H9T10683   2.164   4.441   9.701 -1.7597  1.1608 -2.5472
  105OSM   C10S10684   2.123   4.316   9.516 -0.7143  0.3749  0.6085
  105OSM   H10S10685   2.018   4.284   9.534 -0.7106 -1.8355 -2.7943
  105OSM   H10T10686   2.184   4.237   9.467  0.6081  0.4387  2.1231
  105OSM   C11S10687   2.127   4.422   9.414  0.5803  0.1834  0.0854
  105OSM   H11S10688   2.235   4.448   9.404  1.0381 -1.5738  0.2186
  105OSM   H11T10689   2.077   4.511   9.457  0.3514  0.4024 -0.6290
  105OSM   C12S10690   2.059   4.388   9.280  0.1672  0.3195 -0.0036
  105OSM   H12S10691   1.949   4.391   9.295 -0.1490 -2.5868 -1.3377
  105OSM   H12T10692   2.086   4.284   9.252 -0.4462  0.6307 -1.7836
  105OSM   C13S10693   2.092   4.489   9.163  0.5173 -0.4082  0.5133
  105OSM   H13S10694   2.192   4.458   9.127  0.3345 -0.2234 -0.1693
  105OSM   H13T10695   2.085   4.587   9.214  0.0211  0.3174 -0.9119
  105OSM   C14S10696   1.992   4.478   9.050 -0.3142  0.1930  0.0712
  105OSM   H14S10697   1.890   4.477   9.093 -0.3020 -2.0728  0.1265
  105OSM   H14T10698   1.995   4.375   9.010  0.7056  1.0242 -2.0677
  105OSM   C15S10699   2.021   4.598   8.959  0.1359  0.2689 -0.3426
  105OSM   H15S10700   2.125   4.636   8.963 -0.6381  2.2982  1.3831
  105OSM   H15T10701   1.960   4.683   8.996  0.8292  0.0336  1.4020
  105OSM   C16S10702   1.972   4.585   8.817 -0.0533  0.9121  0.2295
  105OSM   H16S10703   1.861   4.575   8.818 -0.1191  1.4722 -0.8545
  105OSM   H16T10704   2.009   4.505   8.749 -1.2897  0.3674  0.1876
  105OSM   C17S10705   1.986   4.715   8.739 -0.8190  0.6797 -0.4321
  105OSM   H17S10706   2.094   4.738   8.745 -0.4114 -1.5507  1.5511
  105OSM   H17T10707   1.936   4.800   8.790  0.9675  0.9741  0.8650
  105OSM   C18S10708   1.939   4.699   8.592  0.1150 -0.1036 -0.2503
  105OSM   H18S10709   1.959   4.795   8.542  1.2038  1.5076  3.0972
  105OSM   H18T10710   1.830   4.678   8.604 -0.4946  0.1265 -4.7795
  105OSM   H18U10711   1.996   4.610   8.558  0.1877  0.3799 -1.3958
  105OSM    C1F10712   1.980   4.559  10.347 -0.3056  0.0439 -0.0447
  105OSM     OF10713   2.061   4.650  10.376  0.0562  0.3314 -0.1991
  105OSM    C2F10714   1.829   4.581  10.322 -0.7456 -0.2314  0.0361
  105OSM    H2F10715   1.775   4.590  10.420 -0.7928 -3.9775  0.4470
  105OSM    H2G10716   1.799   4.497  10.256  2.1027 -0.1073 -1.4851
  105OSM    C3F10717   1.796   4.716  10.250  0.2761 -0.0632 -0.7402
  105OSM    H3F10718   1.822   4.810  10.303 -1.7879  0.2122 -0.2028
  105OSM    H3G10719   1.685   4.722  10.249  0.2223 -0.1991 -4.6323
  105OSM    C4F10720   1.846   4.727  10.102 -0.0376  0.0404  0.3320
  105OSM    H4F10721   1.861   4.624  10.062  0.8372 -0.8242  2.7801
  105OSM    H4G10722   1.952   4.759  10.101  0.3796 -1.2986  0.5421
  105OSM    C5F10723   1.750   4.799  10.011 -0.5667 -0.1975 -0.1641
  105OSM    H5F10724   1.747   4.900  10.058 -0.4011 -0.8775  1.3467
  105OSM    H5G10725   1.647   4.758  10.020 -0.1255 -0.9801  1.5779
  105OSM    C6F10726   1.820   4.809   9.879  0.0714  0.4821 -0.2547
  105OSM    H6F10727   1.929   4.814   9.900 -0.0256  0.5123  0.2402
  105OSM    H6G10728   1.805   4.908   9.829  1.0434  1.8394  2.0465
  105OSM    C7F10729   1.791   4.693   9.786 -0.3370  0.1115  0.0768
  105OSM    H7F10730   1.682   4.689   9.765 -0.2671 -1.5238 -0.0343
  105OSM    H7G10731   1.819   4.597   9.833 -3.2554 -0.4474  0.7975
  105OSM    C8F10732   1.849   4.704   9.651 -0.1542 -0.5238  0.1616
  105OSM    H8F10733   1.959   4.710   9.662 -0.1982  3.1951 -0.9503
  105OSM    H8G10734   1.828   4.805   9.609 -0.0022 -0.8924 -0.8187
  105OSM    C9F10735   1.825   4.596   9.547  0.8044 -1.0197  0.7853
  105OSM    H9F10736   1.871   4.500   9.574  0.2631 -0.7370  2.8030
  105OSM   C10F10737   1.774   4.612   9.423  0.6818 -0.1743  0.2826
  105OSM   H10F10738   1.769   4.522   9.359  0.5354  0.5614 -0.7572
  105OSM   C11F10739   1.738   4.746   9.367  0.4279  0.1878  0.5777
  105OSM   H11F10740   1.834   4.800   9.350  1.9146 -2.0496  1.6300
  105OSM   H11G10741   1.672   4.803   9.436 -1.2285 -2.5197  1.3017
  105OSM   C12F10742   1.664   4.732   9.230  0.5995  0.1721  0.0554
  105OSM   H12F10743   1.563   4.689   9.246 -0.2660  2.1896  0.0608
  105OSM   H12G10744   1.728   4.675   9.159 -0.1588  0.4831 -0.8933
  105OSM   C13F10745   1.639   4.869   9.172 -0.1052 -0.0495 -0.0228
  105OSM   H13F10746   1.727   4.935   9.158 -0.2816  0.1011 -0.4304
  105OSM   H13G10747   1.568   4.935   9.227 -0.7707  0.4674 -1.4853
  105OSM   C14F10748   1.577   4.858   9.031 -0.3032 -0.5393  0.1606
  105OSM   H14F10749   1.652   4.827   8.955 -0.4204  0.2043 -0.2668
  105OSM   H14G10750   1.555   4.962   8.996  0.4571 -0.6908 -0.7903
  105OSM   C15F10751   1.461   4.763   9.001 -0.4279 -0.5090 -0.2223
  105OSM   H15F10752   1.386   4.766   9.083  0.6340  2.0944  0.6960
  105OSM   H15G10753   1.513   4.665   9.015  1.1742  0.4816  1.0065
  105OSM   C16F10754   1.400   4.786   8.862  0.5160  0.4470 -0.0023
  105OSM   H16F10755   1.334   4.699   8.842 -1.0921  1.3483  1.2890
  105OSM   H16G10756   1.478   4.797   8.784  0.6379 -0.3154  0.0092
  105OSM   C17F10757   1.305   4.908   8.866  0.0960 -0.1286  0.6345
  105OSM   H17F10758   1.381   4.989   8.861  1.1172 -1.1665 -1.0780
  105OSM   H17G10759   1.244   4.917   8.959  0.8492 -0.8914  1.2128
  105OSM   C18F10760   1.211   4.910   8.744 -0.7929  0.2730 -0.1056
  105OSM   H18F10761   1.145   4.999   8.745 -1.4139 -0.1648 -0.8337
  105OSM   H18G10762   1.150   4.817   8.743 -1.2379  0.5619 -0.2778
  105OSM   H18H10763   1.264   4.911   8.647  0.0514  1.8223  0.3474
  106OSM      N10764   0.528   3.738  10.786 -0.1429  0.0968  0.3282
  106OSM    C1510765   0.454   3.773  10.666 -0.6488  0.0752 -0.1364
  106OSM   H15A10766   0.381   3.850  10.689 -0.3705  0.0238  0.9458
  106OSM   H15B10767   0.401   3.686  10.631 -1.4929  0.4587  0.1785
  106OSM   H15C10768   0.528   3.806  10.594 -0.9275 -1.3402 -1.0971
  106OSM    C1410769   0.438   3.705  10.895 -0.3507  0.5348  0.1298
  106OSM   H14A10770   0.373   3.787  10.923 -0.1147  0.6742  0.2656
  106OSM   H14B10771   0.491   3.671  10.982 -0.5822 -0.6889 -0.1990
  106OSM   H14C10772   0.372   3.622  10.874 -0.2019  0.5004 -0.2033
  106OSM    C1310773   0.601   3.616  10.749  0.8161  0.1739 -0.0640
  106OSM   H13A10774   0.539   3.528  10.739  1.3419 -0.6576  3.4817
  106OSM   H13B10775   0.694   3.596  10.800  1.8302  0.3722 -1.7830
  106OSM   H13C10776   0.654   3.629  10.656  1.9492  1.7598  0.7802
  106OSM    C1210777   0.625   3.844  10.831 -0.0725  0.6503 -0.8488
  106OSM   H12A10778   0.677   3.812  10.920  0.3475  0.3912 -1.1857
  106OSM   H12B10779   0.572   3.935  10.855  1.3085  0.9685  1.1369
  106OSM    C1110780   0.731   3.883  10.732 -0.4443  0.0099 -0.2810
  106OSM   H11A10781   0.799   3.798  10.709 -1.7660 -0.8008 -1.2414
  106OSM   H11B10782   0.798   3.957  10.780 -1.2287 -1.2903  2.9529
  106OSM      P10783   0.674   4.095  10.601 -0.0395 -0.4280 -0.5753
  106OSM    O1310784   0.578   4.125  10.492 -0.2230 -0.2704  0.2106
  106OSM    O1410785   0.660   4.165  10.732 -0.0086  0.2869  0.2802
  106OSM    O1110786   0.816   4.131  10.538 -0.5512  0.5313  0.1361
  106OSM    O1210787   0.675   3.932  10.615  0.0934  0.4305  0.4313
  106OSM    C1S10788   0.878   4.070  10.427  0.4481 -0.1999 -0.6496
  106OSM    H1S10789   0.843   3.967  10.403 -0.0855 -0.6118  1.7661
  106OSM    H1T10790   0.985   4.061  10.452  0.4835  2.3772  0.2737
  106OSM     NF10791   0.918   4.103  10.179 -0.7858  0.6661 -0.4518
  106OSM    HNF10792   1.016   4.122  10.177 -0.1414 -2.2561  0.5404
  106OSM    C2S10793   0.859   4.165  10.293  0.0203  0.0188  0.1473
  106OSM    H2S10794   0.751   4.179  10.271  0.2311  3.6899  1.1188
  106OSM    C3S10795   0.900   4.311  10.317 -0.2119 -0.1768  0.8445
  106OSM    H3S10796   1.008   4.315  10.341 -0.2493  1.0061  0.8442
  106OSM     O310797   0.844   4.367  10.438  0.3955 -0.2546  0.3455
  106OSM    HO310798   0.820   4.288  10.486  2.5125 -1.0916  0.0896
  106OSM    C4S10799   0.867   4.396  10.210  0.0672 -0.5691  0.0207
  106OSM    H4S10800   0.763   4.422  10.185  0.7837  0.1112 -2.3608
  106OSM    C5S10801   0.966   4.462  10.143  1.3362 -0.1077 -0.0751
  106OSM    H5S10802   1.070   4.452  10.176  0.4014  0.8252  3.2984
  106OSM    C6S10803   0.955   4.557  10.031 -0.6275  0.3275 -0.2932
  106OSM    H6S10804   1.010   4.650  10.055 -0.7118 -0.0082  1.2798
  106OSM    H6T10805   0.847   4.585  10.029 -0.6505  0.4577  1.6402
  106OSM    C7S10806   0.997   4.500   9.892  0.5408  0.0488  0.2933
  106OSM    H7S10807   1.086   4.439   9.917  0.7773  0.2142 -0.1305
  106OSM    H7T10808   1.023   4.590   9.833 -0.4455  0.4451  0.4409
  106OSM    C8S10809   0.876   4.415   9.838 -0.6659 -0.7867  0.9988
  106OSM    H8S10810   0.783   4.475   9.847  0.0628  0.4954  0.0475
  106OSM    H8T10811   0.864   4.321   9.897 -2.2732 -0.6928  0.8525
  106OSM    C9S10812   0.902   4.388   9.692  0.6471  0.3011  0.5926
  106OSM    H9S10813   1.000   4.342   9.670  0.5717  0.7147 -0.7143
  106OSM    H9T10814   0.893   4.483   9.634 -1.5228 -0.8766 -1.0792
  106OSM   C10S10815   0.800   4.285   9.647 -0.6380  0.3643 -0.1898
  106OSM   H10S10816   0.697   4.315   9.675 -0.3812  0.0889  1.0589
  106OSM   H10T10817   0.827   4.192   9.702  2.4814  1.0795 -0.4340
  106OSM   C11S10818   0.803   4.274   9.488  0.6827 -0.8393 -1.0682
  106OSM   H11S10819   0.796   4.378   9.450  0.2309 -0.1548  0.8242
  106OSM   H11T10820   0.714   4.212   9.463 -0.6753  0.8044 -0.3984
  106OSM   C12S10821   0.919   4.183   9.444  0.1388 -0.0600 -0.1373
  106OSM   H12S10822   0.903   4.086   9.495  2.9086  0.4364  1.7872
  106OSM   H12T10823   1.011   4.237   9.476  0.6165 -0.6782 -0.4726
  106OSM   C13S10824   0.927   4.168   9.289 -0.2886  0.6392 -0.1845
  106OSM   H13S10825   0.861   4.082   9.266 -1.0392  0.9974  0.5871
  106OSM   H13T10826   1.025   4.124   9.262  0.2639  1.8973 -0.2836
  106OSM   C14S10827   0.909   4.301   9.206 -0.0499 -0.0851 -0.4513
  106OSM   H14S10828   0.973   4.382   9.248 -0.5896 -0.0566  0.3304
  106OSM   H14T10829   0.804   4.338   9.209 -0.0596 -0.1663  0.4901
  106OSM   C15S10830   0.948   4.277   9.064  0.3191  0.0219  0.0168
  106OSM   H15S10831   1.055   4.245   9.061  0.6650  1.2680 -1.4276
  106OSM   H15T10832   0.950   4.379   9.020  0.2158 -0.6175 -1.4831
  106OSM   C16S10833   0.845   4.193   8.981 -0.4586 -0.3431 -0.2291
  106OSM   H16S10834   0.745   4.243   8.983  0.5408  1.7387 -0.6511
  106OSM   H16T10835   0.833   4.093   9.026 -0.2933 -0.2673 -0.0160
  106OSM   C17S10836   0.884   4.167   8.835  0.4606 -0.1288  0.2129
  106OSM   H17S10837   0.940   4.074   8.809 -0.4171 -1.0188  1.4214
  106OSM   H17T10838   0.948   4.252   8.805  0.5673  0.7927  2.9509
  106OSM   C18S10839   0.764   4.161   8.740  0.0956  0.3264  0.5983
  106OSM   H18S10840   0.796   4.147   8.635  1.6614  0.3636  1.0655
  106OSM   H18T10841   0.709   4.256   8.753  0.7154  1.1044 -2.2587
  106OSM   H18U10842   0.693   4.081   8.771  0.6072 -0.0797  0.7290
  106OSM    C1F10843   0.873   3.982  10.137 -0.6628 -0.0361  0.3430
  106OSM     OF10844   0.766   3.933  10.173 -0.9243 -1.1845  0.0464
  106OSM    C2F10845   0.956   3.907  10.042 -0.9592 -0.0570 -0.1323
  106OSM    H2F10846   0.907   3.819   9.995 -0.9560  0.1430 -0.5194
  106OSM    H2G10847   1.050   3.877  10.093 -0.3474  0.1013 -1.1345
  106OSM    C3F10848   1.008   3.995   9.920  0.2222  0.2660  0.3117
  106OSM    H3F10849   1.084   4.070   9.949  1.8100 -1.0718 -0.3408
  106OSM    H3G10850   0.923   4.058   9.886  0.0989 -0.1519 -0.1615
  106OSM    C4F10851   1.069   3.912   9.800  0.3257 -0.4630  0.5103
  106OSM    H4F10852   1.118   3.827   9.851 -1.3491 -0.9509  1.3669
  106OSM    H4G10853   1.134   3.986   9.749  0.6169 -1.0540  0.0172
  106OSM    C5F10854   0.959   3.866   9.707 -0.0164 -0.1337 -0.0479
  106OSM    H5F10855   0.881   3.944   9.696 -0.3692 -0.3375  0.9917
  106OSM    H5G10856   0.907   3.774   9.743 -0.3283 -0.8025 -2.0998
  106OSM    C6F10857   1.004   3.838   9.564  0.0276 -0.0574 -0.3566
  106OSM    H6F10858   1.099   3.782   9.563  1.8727  2.9666 -2.4447
  106OSM    H6G10859   1.029   3.939   9.525  1.5084 -0.6933 -1.0869
  106OSM    C7F10860   0.909   3.769   9.469 -0.1282  0.4262  0.4943
  106OSM    H7F10861   0.834   3.845   9.439 -1.4980 -0.6300  1.1932
  106OSM    H7G10862   0.854   3.685   9.516 -0.5358  0.4823  0.1232
  106OSM    C8F10863   0.985   3.703   9.348  0.4875 -0.5343  0.1061
  106OSM    H8F10864   0.909   3.665   9.276 -1.8412  1.5121  1.4179
  106OSM    H8G10865   1.048   3.622   9.390  0.1867 -0.6262  0.3774
  106OSM    C9F10866   1.075   3.804   9.273  0.2297 -0.0261 -0.8707
  106OSM    H9F10867   1.081   3.903   9.321  2.6939 -0.5118 -0.0770
  106OSM   C10F10868   1.142   3.785   9.160 -0.5405  1.0006 -0.2201
  106OSM   H10F10869   1.200   3.869   9.119  1.7392  0.0082  0.9038
  106OSM   C11F10870   1.135   3.661   9.076 -0.2332  0.8449 -0.0390
  106OSM   H11F10871   1.078   3.672   8.981  0.0661  3.0315  0.0010
  106OSM   H11G10872   1.072   3.586   9.129  0.0688  0.1682 -0.6263
  106OSM   C12F10873   1.272   3.597   9.028 -0.1890  0.7775  1.2485
  106OSM   H12F10874   1.340   3.608   9.115 -0.3121 -0.2171  1.4807
  106OSM   H12G10875   1.321   3.660   8.951 -0.9159 -0.3462 -0.1716
  106OSM   C13F10876   1.258   3.449   8.985 -0.4191 -0.0934  0.4123
  106OSM   H13F10877   1.179   3.441   8.908 -0.7946 -2.7041  1.0305
  106OSM   H13G10878   1.231   3.387   9.073  0.2073 -0.4257  0.3726
  106OSM   C14F10879   1.386   3.381   8.933  0.5055 -0.1800 -0.1947
  106OSM   H14F10880   1.442   3.365   9.028  0.0139  0.3887  0.1951
  106OSM   H14G10881   1.425   3.462   8.867  0.5532  2.6633  3.1423
  106OSM   C15F10882   1.369   3.251   8.856  0.6823  0.2876 -0.0879
  106OSM   H15F10883   1.468   3.202   8.848  0.1794 -0.5322 -1.5370
  106OSM   H15G10884   1.337   3.272   8.752  0.7550 -0.3010 -0.2322
  106OSM   C16F10885   1.244   3.159   8.913  0.2149  0.1360 -0.1392
  106OSM   H16F10886   1.144   3.204   8.896 -0.0645 -0.4169  0.0172
  106OSM   H16G10887   1.256   3.164   9.023  0.6595 -3.2481  0.0285
  106OSM   C17F10888   1.245   3.013   8.862 -0.6169 -0.3297  0.1562
  106OSM   H17F10889   1.173   2.944   8.911 -0.2165 -0.4579  0.5782
  106OSM   H17G10890   1.340   2.964   8.895 -0.5231 -0.4751 -0.3232
  106OSM   C18F10891   1.228   3.002   8.712  0.2911 -0.1547 -0.3107
  106OSM   H18F10892   1.312   3.059   8.667 -0.3921  1.6039  0.6044
  106OSM   H18G10893   1.134   3.038   8.666  0.1970 -0.7169 -0.5607
  106OSM   H18H10894   1.234   2.895   8.682  3.0306 -0.2381  0.3805
  107OSM      N10895   3.563   1.243  10.794 -0.0840  0.2020 -0.4459
  107OSM    C1510896   3.714   1.221  10.811  0.0619 -0.4038 -0.1015
  107OSM   H15A10897   3.750   1.161  10.728  0.6600 -0.9990  0.5766
  107OSM   H15B10898   3.736   1.172  10.905 -2.3594 -1.6440 -0.1642
  107OSM   H15C10899   3.763   1.317  10.804 -1.0900  0.2830  1.1597
  107OSM    C1410900   3.495   1.116  10.752 -0.3006 -0.5848  0.3737
  107OSM   H14A10901   3.539   1.031  10.802  2.1576 -0.3086 -1.2554
  107OSM   H14B10902   3.501   1.109  10.645  2.7463 -1.3424  0.5225
  107OSM   H14C10903   3.392   1.131  10.780  0.5928  0.7743  3.1828
  107OSM    C1310904   3.501   1.277  10.922 -0.5145  0.4204 -0.5932
  107OSM   H13A10905   3.537   1.215  11.003 -0.4983  0.1277 -0.8212
  107OSM   H13B10906   3.393   1.273  10.920 -0.5692  1.6386 -0.5238
  107OSM   H13C10907   3.523   1.377  10.956 -1.2633  0.5568 -0.4973
  107OSM    C1210908   3.532   1.363  10.701  0.5801 -0.2900  0.1207
  107OSM   H12A10909   3.573   1.337  10.605 -1.6149  1.3325 -1.2990
  107OSM   H12B10910   3.575   1.458  10.730  0.0161 -0.1843  0.6132
  107OSM    C1110911   3.383   1.399  10.680  0.0460  0.5530 -0.3131
  107OSM   H11A10912   3.335   1.309  10.637 -0.7140  1.3495 -1.1736
  107OSM   H11B10913   3.379   1.471  10.596 -0.7620  0.3394 -0.4596
  107OSM      P10914   3.158   1.471  10.762 -0.1228  0.0585 -0.4596
  107OSM    O1310915   3.091   1.341  10.761  0.6757  0.3365  0.5120
  107OSM    O1410916   3.102   1.568  10.860 -0.0762 -0.5589  0.2903
  107OSM    O1110917   3.150   1.538  10.616  0.5123  0.1617  0.1518
  107OSM    O1210918   3.318   1.464  10.792 -0.1505 -0.1443 -0.2330
  107OSM    C1S10919   3.155   1.675  10.598  0.1985  0.2127 -0.3351
  107OSM    H1S10920   3.241   1.725  10.647  1.2204 -2.0694  0.2489
  107OSM    H1T10921   3.062   1.725  10.633 -0.0562  1.0344 -2.1024
  107OSM     NF10922   3.206   1.841  10.432 -0.1079  0.6820 -0.5329
  107OSM    HNF10923   3.138   1.908  10.403 -1.3282  0.0170  0.7698
  107OSM    C2S10924   3.163   1.705  10.447 -0.6203  0.1908  0.0165
  107OSM    H2S10925   3.243   1.647  10.397  0.3872 -1.5188  3.4269
  107OSM    C3S10926   3.031   1.676  10.368 -0.8131 -0.0815  0.4551
  107OSM    H3S10927   2.948   1.745  10.393  1.3580  3.1844 -0.9464
  107OSM     O310928   2.981   1.547  10.402  0.2752 -0.2263 -0.3444
  107OSM    HO310929   3.053   1.511  10.455 -1.1868 -1.3978  0.8687
  107OSM    C4S10930   3.047   1.676  10.219 -0.0859 -0.5559  0.7859
  107OSM    H4S10931   3.101   1.586  10.188 -0.0656 -0.6276  1.0315
  107OSM    C5S10932   3.041   1.789  10.140 -0.0591 -0.2860 -0.0738
  107OSM    H5S10933   3.015   1.887  10.181 -1.3912 -0.1486 -1.2039
  107OSM    C6S10934   3.071   1.781   9.986  0.2246 -0.5132 -0.1914
  107OSM    H6S10935   3.095   1.675   9.963  1.9765 -0.2152  0.2077
  107OSM    H6T10936   3.162   1.840   9.962  0.3861 -1.0456 -0.8802
  107OSM    C7S10937   2.955   1.839   9.894 -0.2945 -0.1985  0.6642
  107OSM    H7S10938   2.969   1.949   9.888 -0.6521 -0.3130 -3.1927
  107OSM    H7T10939   2.852   1.821   9.934 -0.3501 -0.8201  0.2364
  107OSM    C8S10940   2.962   1.792   9.747  0.1196  0.0477  0.4137
  107OSM    H8S10941   2.961   1.681   9.746  1.2860  0.0273  0.7115
  107OSM    H8T10942   3.063   1.814   9.708  1.1682 -1.2866  2.3012
  107OSM    C9S10943   2.850   1.857   9.656  0.4501 -0.0109 -1.0364
  107OSM    H9S10944   2.859   1.968   9.652  1.7712 -0.1066 -0.7836
  107OSM    H9T10945   2.756   1.825   9.706  0.3913  1.0728 -0.4390
  107OSM   C10S10946   2.874   1.812   9.506  0.8027 -0.2899 -0.1651
  107OSM   H10S10947   2.785   1.842   9.447  1.1014 -1.0157 -1.0171
  107OSM   H10T10948   2.878   1.701   9.513  0.5682 -0.2938 -0.0941
  107OSM   C11S10949   3.008   1.858   9.437 -0.0261 -0.3206  0.1507
  107OSM   H11S10950   3.095   1.812   9.489  0.6145 -0.8065 -1.3283
  107OSM   H11T10951   3.019   1.968   9.443 -0.8794 -0.2666  0.8423
  107OSM   C12S10952   3.006   1.803   9.295 -0.1260  0.0273 -0.3759
  107OSM   H12S10953   2.919   1.857   9.252 -0.6137  0.0152  0.5856
  107OSM   H12T10954   3.004   1.692   9.291  1.1071 -0.1795  2.9520
  107OSM   C13S10955   3.125   1.849   9.211  0.3663  0.1493  0.3049
  107OSM   H13S10956   3.214   1.851   9.277  0.0840 -0.8407  0.7299
  107OSM   H13T10957   3.104   1.949   9.169 -2.4102 -0.0403  1.1871
  107OSM   C14S10958   3.169   1.754   9.087 -0.1318 -0.2735  0.1631
  107OSM   H14S10959   3.079   1.732   9.026  0.9470 -0.4522 -1.3838
  107OSM   H14T10960   3.202   1.652   9.115 -2.3358 -2.1746 -3.8155
  107OSM   C15S10961   3.274   1.827   9.006 -0.7170 -0.2327 -0.7646
  107OSM   H15S10962   3.363   1.846   9.068 -0.5377  1.5166 -1.5166
  107OSM   H15T10963   3.233   1.917   8.954  1.8857  0.6245 -1.4042
  107OSM   C16S10964   3.328   1.734   8.905  0.4786 -0.4958  0.0088
  107OSM   H16S10965   3.241   1.685   8.856 -0.0341 -0.5208  0.9441
  107OSM   H16T10966   3.363   1.645   8.962  2.2175 -0.3102 -0.7403
  107OSM   C17S10967   3.438   1.792   8.811  0.4033 -0.1151  0.2680
  107OSM   H17S10968   3.502   1.859   8.873 -0.9794  1.3099  0.1989
  107OSM   H17T10969   3.400   1.850   8.725  0.5044  0.8540  0.8611
  107OSM   C18S10970   3.526   1.679   8.749  0.2332  0.6447  0.4620
  107OSM   H18S10971   3.607   1.706   8.679  0.6632  1.7154  1.3477
  107OSM   H18T10972   3.452   1.616   8.695  1.2319  0.0614 -0.2542
  107OSM   H18U10973   3.564   1.615   8.832  0.0680 -0.0846 -0.0156
  107OSM    C1F10974   3.322   1.897  10.465  0.1977  0.1633 -0.3104
  107OSM     OF10975   3.417   1.834  10.509 -0.7539 -0.4297  0.0637
  107OSM    C2F10976   3.333   2.047  10.452 -0.1083 -0.0458 -0.1009
  107OSM    H2F10977   3.371   2.080  10.551  0.0181 -0.2896 -0.0673
  107OSM    H2G10978   3.232   2.091  10.441 -0.0064  0.2833  0.2791
  107OSM    C3F10979   3.439   2.075  10.344 -0.8995 -0.4903  0.0916
  107OSM    H3F10980   3.533   2.018  10.361  0.3420  1.3088 -0.6508
  107OSM    H3G10981   3.473   2.180  10.348 -0.0954 -0.7330 -0.2460
  107OSM    C4F10982   3.394   2.036  10.198 -0.1962 -0.2460 -0.5753
  107OSM    H4F10983   3.309   2.096  10.158  0.5726 -0.2704 -2.3132
  107OSM    H4G10984   3.362   1.931  10.186 -0.2598 -0.0173 -2.8062
  107OSM    C5F10985   3.507   2.058  10.094  0.3432  0.9580 -0.1012
  107OSM    H5F10986   3.571   1.967  10.100 -1.7229 -0.3765  3.8032
  107OSM    H5G10987   3.565   2.140  10.140  1.4681  1.4461 -2.3431
  107OSM    C6F10988   3.457   2.088   9.948  0.3228 -0.3238  0.2028
  107OSM    H6F10989   3.404   2.185   9.940  0.1351 -0.3474  1.1565
  107OSM    H6G10990   3.379   2.012   9.928  1.1679 -1.0449 -0.4185
  107OSM    C7F10991   3.570   2.074   9.844  0.9381 -0.7302 -0.2100
  107OSM    H7F10992   3.596   1.968   9.819 -0.2573 -1.4134  1.3929
  107OSM    H7G10993   3.657   2.112   9.902 -0.5456  2.0407  0.2858
  107OSM    C8F10994   3.548   2.147   9.706  0.1768 -0.0043 -0.3353
  107OSM    H8F10995   3.649   2.152   9.660 -0.8684  2.8817 -2.4597
  107OSM    H8G10996   3.529   2.254   9.729  0.2023 -0.0459 -0.1110
  107OSM    C9F10997   3.436   2.085   9.618  0.0538 -0.5760  0.3650
  107OSM    H9F10998   3.337   2.095   9.664 -0.7403  0.8511 -1.5963
  107OSM   C10F10999   3.457   2.043   9.493 -0.1781 -0.3434  0.0688
  107OSM   H10F11000   3.379   1.991   9.436  1.2700 -2.4198 -0.0522
  107OSM   C11F11001   3.590   2.044   9.413  0.0165  0.3973  0.8981
  107OSM   H11F11002   3.639   1.945   9.414 -2.9153 -1.1531 -1.0456
  107OSM   H11G11003   3.655   2.122   9.457  2.4779 -0.8733 -0.4016
  107OSM   C12F11004   3.582   2.101   9.275  0.6672  0.1927  0.4729
  107OSM   H12F11005   3.545   2.206   9.281  1.0051  0.3533 -0.2523
  107OSM   H12G11006   3.511   2.050   9.205  2.9018 -1.1175 -0.8944
  107OSM   C13F11007   3.706   2.104   9.201 -0.6176 -0.7501  0.0303
  107OSM   H13F11008   3.723   2.004   9.156  1.3149 -0.3875 -0.1021
  107OSM   H13G11009   3.790   2.127   9.271  0.0412  0.2566 -1.0787
  107OSM   C14F11010   3.709   2.210   9.093 -0.1934  0.8071 -0.0092
  107OSM   H14F11011   3.615   2.196   9.036 -0.4043 -1.5644  0.8630
  107OSM   H14G11012   3.794   2.199   9.023  0.9879  0.0025  1.5018
  107OSM   C15F11013   3.710   2.355   9.150 -0.1757 -0.0233  0.3133
  107OSM   H15F11014   3.743   2.352   9.256 -0.4305 -2.5102  0.3487
  107OSM   H15G11015   3.611   2.404   9.150  0.9798  2.3785  0.5216
  107OSM   C16F11016   3.814   2.452   9.082 -0.0133  0.8510  0.2895
  107OSM   H16F11017   3.787   2.466   8.975 -0.8071 -1.1846  0.1912
  107OSM   H16G11018   3.904   2.388   9.089  0.5162  1.7288  1.6304
  107OSM   C17F11019   3.828   2.590   9.155  0.6105  0.4682  0.4505
  107OSM   H17F11020   3.726   2.633   9.156  0.2087 -0.4633 -0.0183
  107OSM   H17G11021   3.901   2.656   9.102 -1.3155  1.2153 -1.3279
  107OSM   C18F11022   3.893   2.590   9.294  0.0793  0.4420 -0.5579
  107OSM   H18F11023   3.956   2.679   9.314 -0.6749  0.8117  0.2226
  107OSM   H18G11024   3.969   2.510   9.290 -0.3340  0.0652 -0.9423
  107OSM   H18H11025   3.821   2.567   9.376  0.8514 -2.0029 -0.5395
  108OSM      N11026   0.825   3.013  10.909 -0.0483  0.6528 -0.5644
  108OSM    C1511027   0.949   3.092  10.872 -0.5296 -0.4300  0.1242
  108OSM   H15A11028   0.974   3.163  10.950 -0.2368 -2.7147  2.1570
  108OSM   H15B11029   0.925   3.148  10.783  3.4120  1.7291  0.2987
  108OSM   H15C11030   1.036   3.029  10.858  0.4461  1.1729 -1.1456
  108OSM    C1411031   0.866   2.912  11.018 -0.0229  0.0450  0.0593
  108OSM   H14A11032   0.925   2.959  11.095 -0.3253  0.6117 -0.0558
  108OSM   H14B11033   0.931   2.838  10.973  2.5278  1.2295  1.6950
  108OSM   H14C11034   0.786   2.858  11.067 -0.3736 -1.7234 -2.3615
  108OSM    C1311035   0.733   3.112  10.972  0.1178 -0.5832 -0.5044
  108OSM   H13A11036   0.678   3.062  11.050  0.4576  0.9845  0.7601
  108OSM   H13B11037   0.666   3.160  10.902 -0.1276 -0.7583 -0.3864
  108OSM   H13C11038   0.789   3.188  11.024 -0.1525 -1.3329  0.9125
  108OSM    C1211039   0.777   2.936  10.787  0.5536 -0.0683  0.3235
  108OSM   H12A11040   0.731   2.844  10.820  0.6895  0.1572  1.1698
  108OSM   H12B11041   0.868   2.897  10.744  1.0778  1.4151  0.0383
  108OSM    C1111042   0.688   3.009  10.684  0.1305  0.3190 -0.3060
  108OSM   H11A11043   0.603   3.059  10.736 -1.5989 -1.8641 -0.9965
  108OSM   H11B11044   0.644   2.928  10.623 -0.1846 -1.5650  2.3163
  108OSM      P11045   0.857   3.055  10.493 -0.3220  0.2710 -0.3750
  108OSM    O1311046   0.949   3.167  10.455  0.6430 -0.1495  0.2546
  108OSM    O1411047   0.920   2.927  10.523  0.4118  0.3137 -0.5632
  108OSM    O1111048   0.753   3.031  10.375  0.0059 -0.4674 -0.3400
  108OSM    O1211049   0.766   3.101  10.615 -0.2599  0.5820  0.2777
  108OSM    C1S11050   0.623   3.089  10.381 -0.2395 -0.4167 -0.6545
  108OSM    H1S11051   0.619   3.191  10.425  1.0509 -1.3634  1.7286
  108OSM    H1T11052   0.564   3.031  10.456  1.8977  2.0396  3.1106
  108OSM     NF11053   0.425   3.175  10.273  0.4630 -0.0400 -0.1994
  108OSM    HNF11054   0.344   3.128  10.309  0.4112  0.5584  0.4742
  108OSM    C2S11055   0.544   3.096  10.250  1.0402  0.1023  0.1878
  108OSM    H2S11056   0.596   3.153  10.171 -0.4894  1.4813  0.1412
  108OSM    C3S11057   0.517   2.952  10.196  0.3333 -0.0741 -0.2729
  108OSM    H3S11058   0.445   2.915  10.272 -0.9548  1.5821 -0.6449
  108OSM     O311059   0.632   2.865  10.184 -0.2591 -0.1813 -0.0472
  108OSM    HO311060   0.695   2.925  10.225  0.5065 -0.6086 -0.5976
  108OSM    C4S11061   0.442   2.957  10.068 -0.2765 -0.4100 -0.4803
  108OSM    H4S11062   0.367   2.877  10.067  1.6506 -2.2532 -1.7970
  108OSM    C5S11063   0.465   3.025   9.955 -0.6120  0.0228 -0.2474
  108OSM    H5S11064   0.559   3.081   9.947 -0.1969 -0.8036 -1.3317
  108OSM    C6S11065   0.389   3.002   9.824 -0.1779 -0.5601  0.4531
  108OSM    H6S11066   0.332   3.095   9.802  0.6866 -0.0371  0.3931
  108OSM    H6T11067   0.318   2.919   9.842 -0.1732 -0.8561 -0.9108
  108OSM    C7S11068   0.473   2.960   9.703 -0.2851 -0.5575  0.2070
  108OSM    H7S11069   0.539   2.873   9.720  0.5922  0.1228  0.2885
  108OSM    H7T11070   0.530   3.049   9.669 -0.0305 -0.9240 -0.3245
  108OSM    C8S11071   0.379   2.927   9.590 -0.3012  0.2993 -0.0532
  108OSM    H8S11072   0.319   3.018   9.568  1.1327  0.6016 -2.9059
  108OSM    H8T11073   0.316   2.837   9.608 -2.2262  1.9015  1.5239
  108OSM    C9S11074   0.464   2.885   9.461  0.0221  0.2710 -0.2083
  108OSM    H9S11075   0.512   2.793   9.501  1.0744  0.0246 -2.0013
  108OSM    H9T11076   0.530   2.972   9.441  0.8837  0.1986  2.1458
  108OSM   C10S11077   0.366   2.871   9.348  0.1148  0.3295 -0.4731
  108OSM   H10S11078   0.308   2.966   9.349  0.1749  0.3624  0.0884
  108OSM   H10T11079   0.300   2.784   9.370  0.3285  0.3114  0.1053
  108OSM   C11S11080   0.420   2.857   9.210 -0.3371  0.2648  0.4592
  108OSM   H11S11081   0.493   2.773   9.206  0.7111  1.1795  0.3190
  108OSM   H11T11082   0.479   2.946   9.179  0.8668  0.4802  3.2186
  108OSM   C12S11083   0.317   2.821   9.096  0.2791  0.2239 -0.3192
  108OSM   H12S11084   0.232   2.891   9.111  0.7082  0.6374  0.2259
  108OSM   H12T11085   0.288   2.721   9.133  0.6451  0.7547  1.4555
  108OSM   C13S11086   0.371   2.814   8.952 -0.0825 -0.0183  0.3012
  108OSM   H13S11087   0.463   2.876   8.940  0.1655  0.1373  2.7775
  108OSM   H13T11088   0.300   2.858   8.879  1.0829 -0.5672 -1.1915
  108OSM   C14S11089   0.409   2.670   8.905 -0.5497  0.0527 -0.5137
  108OSM   H14S11090   0.438   2.617   8.998  2.4441  1.8003 -0.3977
  108OSM   H14T11091   0.500   2.679   8.842 -1.0453  1.9774 -0.9907
  108OSM   C15S11092   0.300   2.593   8.836  0.5503 -0.1072  0.8063
  108OSM   H15S11093   0.200   2.610   8.881  0.1148  1.5189 -0.7054
  108OSM   H15T11094   0.322   2.485   8.838  2.5860  0.2370 -1.6356
  108OSM   C16S11095   0.286   2.627   8.685 -0.2080 -0.2009 -0.8563
  108OSM   H16S11096   0.382   2.636   8.630  0.1109  0.2117 -0.2341
  108OSM   H16T11097   0.242   2.729   8.684  0.7881  0.2473  0.7919
  108OSM   C17S11098   0.191   2.536   8.604 -0.1786 -0.9550  0.0133
  108OSM   H17S11099   0.132   2.592   8.529 -0.1948  1.1031  1.5109
  108OSM   H17T11100   0.123   2.489   8.679 -0.0654 -1.3799 -0.1455
  108OSM   C18S11101   0.274   2.432   8.528 -0.7801  0.1924  1.0595
  108OSM   H18S11102   0.221   2.370   8.452  1.2353  1.0717 -1.1345
  108OSM   H18T11103   0.334   2.370   8.598 -1.1325 -2.0502 -0.5539
  108OSM   H18U11104   0.353   2.490   8.475 -0.2756 -1.1052  0.3663
  108OSM    C1F11105   0.428   3.305  10.289 -0.1457  0.5706 -0.5992
  108OSM     OF11106   0.533   3.364  10.271  0.1942  0.7256  0.4833
  108OSM    C2F11107   0.310   3.375  10.341  0.3028  0.4502  0.2891
  108OSM    H2F11108   0.325   3.420  10.441 -1.0003 -0.4375  0.9018
  108OSM    H2G11109   0.230   3.305  10.372  0.0942  0.6900  0.3009
  108OSM    C3F11110   0.268   3.496  10.253 -0.6449  0.2878  0.3220
  108OSM    H3F11111   0.352   3.569  10.243 -2.1464  2.4484  2.7515
  108OSM    H3G11112   0.182   3.542  10.307 -0.7366  0.3886  0.0916
  108OSM    C4F11113   0.249   3.452  10.110 -0.0657 -0.3876 -0.1513
  108OSM    H4F11114   0.200   3.353  10.111  0.2749 -0.5475  0.8431
  108OSM    H4G11115   0.351   3.441  10.067  1.5620  0.2750  3.3464
  108OSM    C5F11116   0.160   3.557  10.029 -0.0059 -0.0283 -0.7735
  108OSM    H5F11117   0.205   3.658  10.021  1.8649 -0.8337 -0.7476
  108OSM    H5G11118   0.067   3.574  10.085  1.0604 -2.2823  1.7968
  108OSM    C6F11119   0.138   3.510   9.884  0.1548 -0.4938 -0.1604
  108OSM    H6F11120   0.075   3.419   9.886  0.6938 -0.8772 -0.4260
  108OSM    H6G11121   0.234   3.475   9.840  0.4056 -2.0950  1.5863
  108OSM    C7F11122   0.063   3.618   9.806  0.1580 -0.0738 -0.2456
  108OSM    H7F11123   0.134   3.703   9.800 -0.2517  0.1147 -2.7786
  108OSM    H7G11124  -0.032   3.646   9.855  0.1597  0.5892 -0.6158
  108OSM    C8F11125   0.037   3.564   9.666  0.2147  0.6241 -0.3528
  108OSM    H8F11126  -0.011   3.643   9.603 -0.1004  0.9596  0.3070
  108OSM    H8G11127  -0.038   3.482   9.664  1.5548 -0.6386  0.7798
  108OSM    C9F11128   0.161   3.531   9.586 -0.5021 -0.5273 -0.4020
  108OSM    H9F11129   0.232   3.615   9.581 -2.2631  0.9837 -0.7400
  108OSM   C10F11130   0.200   3.409   9.555  0.2351 -0.2951  0.1245
  108OSM   H10F11131   0.293   3.399   9.498  0.8247 -0.1487  1.0606
  108OSM   C11F11132   0.129   3.277   9.574  0.0728 -0.1694 -0.7365
  108OSM   H11F11133   0.065   3.292   9.663 -2.6641 -1.5579 -2.4097
  108OSM   H11G11134   0.207   3.205   9.606  1.2121  0.0636 -2.9237
  108OSM   C12F11135   0.055   3.235   9.451 -0.3204  0.4234 -0.3394
  108OSM   H12F11136  -0.037   3.297   9.451  0.0429  0.9630  0.9580
  108OSM   H12G11137   0.028   3.127   9.462  2.0041  0.0485  2.1941
  108OSM   C13F11138   0.140   3.237   9.322  0.8351  1.1595 -0.3179
  108OSM   H13F11139   0.234   3.181   9.339 -0.6762 -0.9258  1.4748
  108OSM   H13G11140   0.168   3.340   9.293  0.5704  1.1901 -0.4674
  108OSM   C14F11141   0.071   3.171   9.199  0.2235 -0.7378 -0.5434
  108OSM   H14F11142  -0.017   3.232   9.172  0.7423  0.4695  0.4385
  108OSM   H14G11143   0.030   3.072   9.227 -4.5436  0.5255 -2.6890
  108OSM   C15F11144   0.167   3.165   9.080  0.6151 -0.5920 -0.2359
  108OSM   H15F11145   0.127   3.099   9.001 -0.2272 -1.4694  0.9012
  108OSM   H15G11146   0.268   3.123   9.103  0.5569 -0.1710  0.8588
  108OSM   C16F11147   0.194   3.303   9.017 -0.3679  0.2367  1.3388
  108OSM   H16F11148   0.245   3.362   9.096  0.9628  0.7179  0.1477
  108OSM   H16G11149   0.101   3.354   8.983 -1.3506 -1.9147  0.7286
  108OSM   C17F11150   0.292   3.296   8.898 -0.0531  0.4750  0.7388
  108OSM   H17F11151   0.376   3.228   8.925 -1.0136 -0.7874  0.5475
  108OSM   H17G11152   0.324   3.400   8.875 -0.6856  0.3522 -0.7365
  108OSM   C18F11153   0.227   3.245   8.769  0.3708 -0.0528 -0.3811
  108OSM   H18F11154   0.137   3.309   8.756 -1.9282 -3.2245 -0.5434
  108OSM   H18G11155   0.198   3.138   8.777  0.3068 -0.0980 -1.1509
  108OSM   H18H11156   0.286   3.246   8.675  0.4299  0.3295 -0.3393
  109OSM      N11157   6.194   0.523  11.088 -0.6495 -0.3514  0.4970
  109OSM    C1511158   6.073   0.534  11.173 -0.4079  0.7247 -0.3370
  109OSM   H15A11159   5.993   0.473  11.133  0.3224  0.3579 -1.2645
  109OSM   H15B11160   6.039   0.637  11.178  1.1215  1.2431 -0.4185
  109OSM   H15C11161   6.099   0.514  11.276  2.7794  0.0062 -1.2479
  109OSM    C1411162   6.314   0.572  11.166  0.1152  0.2776 -0.2784
  109OSM   H14A11163   6.402   0.562  11.105  0.1917 -0.0250 -0.1248
  109OSM   H14B11164   6.328   0.524  11.263 -0.3463  0.2208 -0.2393
  109OSM   H14C11165   6.309   0.677  11.189  1.1115  0.4101 -0.6330
  109OSM    C1311166   6.213   0.378  11.056  0.3130  0.4619 -0.2561
  109OSM   H13A11167   6.135   0.354  10.985 -0.1124 -1.1930  0.7586
  109OSM   H13B11168   6.203   0.313  11.141 -0.1067 -1.4327 -1.7148
  109OSM   H13C11169   6.310   0.357  11.012  1.4168  0.8922  1.9241
  109OSM    C1211170   6.165   0.602  10.967  0.1675 -1.2626 -0.2205
  109OSM   H12A11171   6.061   0.579  10.946 -0.0805  0.1157 -0.5411
  109OSM   H12B11172   6.228   0.571  10.885  0.0431 -2.6264  0.1919
  109OSM    C1111173   6.168   0.759  10.974  0.5838 -0.1868  0.2334
  109OSM   H11A11174   6.147   0.798  10.872  2.0851 -0.2281 -0.1008
  109OSM   H11B11175   6.270   0.791  11.004  1.5875 -1.1415 -2.0552
  109OSM      P11176   6.033   0.965  11.069 -0.6774 -0.4755  0.0478
  109OSM    O1311177   5.903   0.981  11.130 -0.0591 -0.7792  0.2039
  109OSM    O1411178   6.147   1.025  11.141 -0.0574 -0.0424  0.2711
  109OSM    O1111179   6.029   1.012  10.915 -0.4009 -0.3921 -0.2002
  109OSM    O1211180   6.065   0.811  11.057 -0.3368 -0.0659  0.2026
  109OSM    C1S11181   6.012   1.147  10.877 -0.8315 -0.1827  0.6068
  109OSM    H1S11182   6.078   1.217  10.933  0.5636 -0.5528 -0.5241
  109OSM    H1T11183   5.910   1.184  10.900  0.6591  5.0321 -0.3199
  109OSM     NF11184   6.024   1.326  10.712  0.7181 -0.1807 -0.5688
  109OSM    HNF11185   5.942   1.378  10.687 -0.1246 -0.2997  1.7861
  109OSM    C2S11186   6.028   1.178  10.721  0.7901  0.5803  0.3068
  109OSM    H2S11187   6.124   1.136  10.687  0.4900 -1.7622  2.2247
  109OSM    C3S11188   5.913   1.107  10.640 -0.5621  0.3533 -0.5254
  109OSM    H3S11189   5.813   1.151  10.663 -0.7666 -0.3284 -0.1084
  109OSM     O311190   5.908   0.963  10.662  0.6919 -0.4200  0.6108
  109OSM    HO311191   5.959   0.950  10.743  0.5518 -2.7454  0.3719
  109OSM    C4S11192   5.922   1.144  10.493 -0.0415 -0.1933  0.4402
  109OSM    H4S11193   5.903   1.246  10.456 -3.2577 -0.2656  1.7365
  109OSM    C5S11194   5.958   1.061  10.396 -0.1959  0.1151  0.3548
  109OSM    H5S11195   5.997   0.962  10.420  1.5958  0.5426 -0.6946
  109OSM    C6S11196   5.970   1.090  10.250  0.0804  0.1429 -0.1649
  109OSM    H6S11197   6.074   1.122  10.228  0.3016 -0.7294 -0.3880
  109OSM    H6T11198   5.901   1.174  10.224  0.6903  0.2738 -1.4081
  109OSM    C7S11199   5.931   0.981  10.145  0.3343  0.3886 -1.1650
  109OSM    H7S11200   5.820   0.973  10.142  0.3800  0.0371 -2.1119
  109OSM    H7T11201   5.981   0.884  10.162  0.4203  0.8032  1.0727
  109OSM    C8S11202   5.975   1.024  10.010 -0.0954 -0.3516  0.1565
  109OSM    H8S11203   6.085   1.015  10.010 -0.1752 -1.7989  2.1478
  109OSM    H8T11204   5.949   1.131   9.996  2.6160  0.4129  0.7335
  109OSM    C9S11205   5.913   0.939   9.904  0.0560 -0.3306 -0.5846
  109OSM    H9S11206   5.805   0.918   9.916 -0.0071  0.5067  0.4550
  109OSM    H9T11207   5.978   0.849   9.898  0.3430 -0.1631 -0.0675
  109OSM   C10S11208   5.939   0.985   9.751  0.1542  0.1319 -0.1297
  109OSM   H10S11209   6.046   1.003   9.726  0.8305 -1.4517  1.5026
  109OSM   H10T11210   5.898   1.087   9.735 -2.3053 -0.8915 -0.4605
  109OSM   C11S11211   5.875   0.893   9.643 -0.0567  0.2733 -0.2316
  109OSM   H11S11212   5.766   0.889   9.665  0.2659 -3.4907  1.0894
  109OSM   H11T11213   5.917   0.792   9.662 -2.4940 -0.3289  2.3293
  109OSM   C12S11214   5.895   0.938   9.506  0.3767 -0.3166 -0.2870
  109OSM   H12S11215   6.002   0.964   9.491  1.4843 -2.3802  3.3282
  109OSM   H12T11216   5.839   1.033   9.495  0.2315 -0.2560  0.9684
  109OSM   C13S11217   5.863   0.836   9.398  1.0555 -0.6127 -0.6143
  109OSM   H13S11218   5.752   0.831   9.386  0.6348  3.4665  0.9126
  109OSM   H13T11219   5.895   0.734   9.427 -0.7150 -0.2836  2.7610
  109OSM   C14S11220   5.926   0.885   9.273 -0.7663 -1.2028  0.5306
  109OSM   H14S11221   6.033   0.912   9.291  0.1537 -3.6289 -1.0696
  109OSM   H14T11222   5.878   0.982   9.247 -0.3049 -0.7422  1.3615
  109OSM   C15S11223   5.924   0.779   9.164  0.1580  0.4446  1.1276
  109OSM   H15S11224   5.821   0.756   9.131 -1.0044  0.9599  4.2238
  109OSM   H15T11225   5.968   0.684   9.203 -0.9191 -0.1901  0.8120
  109OSM   C16S11226   6.011   0.828   9.050  1.0259 -0.2469 -0.6619
  109OSM   H16S11227   5.960   0.915   9.002 -0.7355 -1.4616 -1.0294
  109OSM   H16T11228   6.012   0.748   8.973 -0.6187 -0.8226 -0.0906
  109OSM   C17S11229   6.154   0.855   9.085 -0.6204  0.4734 -0.1484
  109OSM   H17S11230   6.177   0.775   9.159 -0.0384  1.6471  0.9649
  109OSM   H17T11231   6.164   0.954   9.133 -1.7636  1.0447 -1.0697
  109OSM   C18S11232   6.246   0.851   8.962 -0.6724  0.0039  0.8313
  109OSM   H18S11233   6.237   0.945   8.904  2.1414 -0.8613 -1.1105
  109OSM   H18T11234   6.207   0.778   8.888 -0.6254  0.0138  0.7961
  109OSM   H18U11235   6.353   0.830   8.982 -0.9506 -1.8353  0.5027
  109OSM    C1F11236   6.125   1.405  10.732 -0.4389  0.1046  0.7388
  109OSM     OF11237   6.224   1.353  10.778 -0.0421 -0.1294  0.6354
  109OSM    C2F11238   6.121   1.551  10.684 -0.0786 -0.1901 -0.1401
  109OSM    H2F11239   6.204   1.596  10.743 -0.3252 -1.5648  1.3148
  109OSM    H2G11240   6.022   1.591  10.712 -0.4431 -0.3075 -1.2555
  109OSM    C3F11241   6.153   1.552  10.537  0.5586  0.1489  0.6273
  109OSM    H3F11242   6.119   1.642  10.482 -2.2138 -0.4376  1.2790
  109OSM    H3G11243   6.114   1.461  10.487 -1.5305  1.1250  0.4051
  109OSM    C4F11244   6.304   1.548  10.511  0.0269 -0.2034  0.1456
  109OSM    H4F11245   6.340   1.457  10.564 -2.5246 -1.5932 -0.3950
  109OSM    H4G11246   6.349   1.635  10.562 -0.0693  1.2677 -2.2258
  109OSM    C5F11247   6.338   1.551  10.361  0.1808  1.0981  0.3027
  109OSM    H5F11248   6.449   1.556  10.355  0.5971 -1.0107  4.3710
  109OSM    H5G11249   6.295   1.642  10.314 -0.1733  0.4827 -0.5770
  109OSM    C6F11250   6.285   1.415  10.297 -0.1200 -0.0616 -0.1656
  109OSM    H6F11251   6.175   1.416  10.311 -0.1166  1.0175 -0.1741
  109OSM    H6G11252   6.326   1.327  10.350 -3.1366 -1.9804 -0.9625
  109OSM    C7F11253   6.320   1.416  10.149  0.8356  0.7525  0.0598
  109OSM    H7F11254   6.429   1.428  10.136  1.1818 -1.2774  0.8283
  109OSM    H7G11255   6.264   1.500  10.104 -1.2565 -0.2816  0.6582
  109OSM    C8F11256   6.280   1.293  10.071  0.2462 -0.2551  0.0907
  109OSM    H8F11257   6.170   1.300  10.053  0.0312 -1.1080  1.0177
  109OSM    H8G11258   6.288   1.200  10.132  0.3371 -0.3089 -0.0033
  109OSM    C9F11259   6.352   1.277   9.942  0.5717  0.1932  0.2672
  109OSM    H9F11260   6.462   1.275   9.954  0.6248  2.3758  0.3286
  109OSM   C10F11261   6.304   1.290   9.814  0.8058  0.2297 -0.3221
  109OSM   H10F11262   6.365   1.288   9.722 -1.3006 -2.6078 -1.7682
  109OSM   C11F11263   6.160   1.317   9.780 -1.1992 -0.3391  0.0085
  109OSM   H11F11264   6.138   1.422   9.810  2.1981  1.0027 -1.9495
  109OSM   H11G11265   6.102   1.249   9.845  0.7483 -2.3690 -0.3105
  109OSM   C12F11266   6.113   1.296   9.633  0.0091  0.0224 -0.2453
  109OSM   H12F11267   6.003   1.307   9.626  0.1362  2.4865  1.0522
  109OSM   H12G11268   6.127   1.186   9.625  1.5662  0.1814  0.0344
  109OSM   C13F11269   6.179   1.379   9.522  0.1971  0.0064  0.2862
  109OSM   H13F11270   6.286   1.352   9.513 -0.2973 -1.3952 -1.8026
  109OSM   H13G11271   6.178   1.486   9.553  0.7866  1.3204 -3.9284
  109OSM   C14F11272   6.105   1.377   9.388 -0.0500  0.6478  0.3609
  109OSM   H14F11273   6.141   1.457   9.319 -1.3309  1.4182  0.5674
  109OSM   H14G11274   6.000   1.406   9.411 -1.4065 -3.4945 -0.1318
  109OSM   C15F11275   6.096   1.242   9.316 -0.3074  0.6010 -0.2478
  109OSM   H15F11276   6.039   1.171   9.379 -0.1343 -2.5626 -3.4578
  109OSM   H15G11277   6.194   1.190   9.311 -0.4580  0.3376 -0.4605
  109OSM   C16F11278   6.036   1.234   9.174 -0.4239 -0.1200  0.1241
  109OSM   H16F11279   5.926   1.251   9.176 -0.3534  0.4704 -1.0022
  109OSM   H16G11280   6.048   1.128   9.142 -0.5110  0.3880 -1.5943
  109OSM   C17F11281   6.110   1.301   9.058  0.0649 -0.5602  0.6931
  109OSM   H17F11282   6.216   1.271   9.046 -0.2707 -1.3778 -0.2975
  109OSM   H17G11283   6.112   1.412   9.068 -0.1427 -0.5122  0.2136
  109OSM   C18F11284   6.046   1.270   8.919 -0.7565 -0.6500  0.5600
  109OSM   H18F11285   6.113   1.321   8.846 -0.2063  0.0581  1.5426
  109OSM   H18G11286   5.945   1.317   8.918 -0.5775 -0.2779 -1.5676
  109OSM   H18H11287   6.046   1.163   8.893  4.3462 -0.8775  0.9255
  110OSM      N11288   6.686   6.696  10.939  0.0746 -0.0400 -0.0341
  110OSM    C1511289   6.780   6.602  11.010 -0.0335 -0.7994  0.1759
  110OSM   H15A11290   6.878   6.601  10.963 -0.3888 -0.0081 -0.6006
  110OSM   H15B11291   6.750   6.499  11.020  0.8585 -1.0220  0.6735
  110OSM   H15C11292   6.800   6.639  11.110 -0.6095  0.2202 -0.0751
  110OSM    C1411293   6.641   6.649  10.807 -0.5356 -0.0784 -0.2731
  110OSM   H14A11294   6.723   6.632  10.738 -0.7476  1.3748 -0.9079
  110OSM   H14B11295   6.577   6.714  10.748 -2.2999 -0.8198  0.7983
  110OSM   H14C11296   6.605   6.548  10.813  0.6569 -0.5546 -0.8770
  110OSM    C1311297   6.570   6.711  11.026  0.0475 -0.3460 -0.7251
  110OSM   H13A11298   6.498   6.778  10.982 -0.5843  0.1138  0.9730
  110OSM   H13B11299   6.593   6.764  11.117 -0.4764 -1.1669 -0.1072
  110OSM   H13C11300   6.523   6.618  11.053  4.6879 -2.1557  1.7233
  110OSM    C1211301   6.754   6.838  10.928 -0.3169  0.2152 -0.0994
  110OSM   H12A11302   6.779   6.869  11.028 -0.0282  3.6898 -1.1666
  110OSM   H12B11303   6.689   6.903  10.871 -0.8876 -0.4604 -0.2314
  110OSM    C1111304   6.886   6.848  10.836 -0.5416  0.1710 -0.5449
  110OSM   H11A11305   6.908   6.955  10.822  3.1132 -0.1113  2.2930
  110OSM   H11B11306   6.869   6.815  10.731  0.5143  0.2934 -0.7586
  110OSM      P11307   7.095   6.842  10.988 -0.0039 -0.0587 -0.2059
  110OSM    O1311308   7.032   6.933  11.088 -0.2403 -0.1008 -0.1359
  110OSM    O1411309   7.173   6.734  11.044  0.5071 -0.0397  0.5399
  110OSM    O1111310   7.191   6.932  10.891  0.0821  0.0876  0.4025
  110OSM    O1211311   6.984   6.776  10.903 -1.3228  0.3677  0.2252
  110OSM    C1S11312   7.252   6.855  10.785  0.1327  0.4250  0.5309
  110OSM    H1S11313   7.181   6.797  10.721  1.7577 -1.1212  0.0986
  110OSM    H1T11314   7.317   6.770  10.816 -0.8249  0.1758  1.9018
  110OSM     NF11315   7.392   6.873  10.563  0.3994 -0.2195  0.3940
  110OSM    HNF11316   7.491   6.865  10.558  0.3871  0.0371 -0.3515
  110OSM    C2S11317   7.330   6.945  10.685 -0.6084  0.5620 -0.5792
  110OSM    H2S11318   7.267   7.025  10.642 -1.6197  0.5158  0.8171
  110OSM    C3S11319   7.439   7.017  10.772 -0.6191  0.6911  0.2178
  110OSM    H3S11320   7.497   6.940  10.828 -0.9206 -0.4968 -1.0810
  110OSM     O311321   7.370   7.115  10.861 -0.7232 -0.3331 -0.1006
  110OSM    HO311322   7.295   7.066  10.898  0.0985 -1.6778 -0.1666
  110OSM    C4S11323   7.535   7.095  10.698  0.2943  0.6272 -0.1498
  110OSM    H4S11324   7.493   7.186  10.654 -0.1049  0.5549  0.0844
  110OSM    C5S11325   7.664   7.077  10.687  0.5982 -0.2272  0.3480
  110OSM    H5S11326   7.716   6.992  10.734 -0.1393 -2.0605 -2.0240
  110OSM    C6S11327   7.762   7.157  10.605 -0.3624 -0.0767 -0.6305
  110OSM    H6S11328   7.838   7.085  10.569  2.2929  1.8177  1.0587
  110OSM    H6T11329   7.811   7.227  10.675  0.6531 -0.9169 -0.4908
  110OSM    C7S11330   7.694   7.236  10.484  0.2941 -0.2234 -0.3052
  110OSM    H7S11331   7.775   7.298  10.440 -1.2549  1.1197 -1.2684
  110OSM    H7T11332   7.637   7.317  10.534 -1.9328 -1.0204 -1.4941
  110OSM    C8S11333   7.613   7.159  10.380 -0.9282 -0.2405  0.1280
  110OSM    H8S11334   7.552   7.236  10.328  0.6008  1.8277  1.3684
  110OSM    H8T11335   7.541   7.087  10.425  2.0858 -2.8870  0.9426
  110OSM    C9S11336   7.707   7.090  10.278  0.0897 -0.4037  0.3423
  110OSM    H9S11337   7.735   6.990  10.316  0.6292 -0.1990  0.4899
  110OSM    H9T11338   7.803   7.142  10.256 -0.6689  0.1575 -1.7743
  110OSM   C10S11339   7.655   7.078  10.132  0.2846 -0.7303  0.0223
  110OSM   H10S11340   7.552   7.041  10.153  0.6607 -0.3933  2.6854
  110OSM   H10T11341   7.713   7.005  10.072  0.2022 -1.6404  1.0364
  110OSM   C11S11342   7.636   7.210  10.053  0.3640 -0.8402  0.1996
  110OSM   H11S11343   7.731   7.246  10.008 -0.3962  0.7089 -0.2132
  110OSM   H11T11344   7.611   7.295  10.120  0.7479 -0.4014 -0.2094
  110OSM   C12S11345   7.529   7.194   9.939  0.5985 -0.6228 -0.9807
  110OSM   H12S11346   7.429   7.170   9.982 -0.0439  1.5235 -1.2032
  110OSM   H12T11347   7.558   7.116   9.866  3.2116 -0.3185 -0.2946
  110OSM   C13S11348   7.499   7.330   9.870 -0.0112 -0.0608 -0.0365
  110OSM   H13S11349   7.497   7.419   9.936  0.8550  1.4287 -1.9630
  110OSM   H13T11350   7.405   7.311   9.814 -1.0615  0.4995  1.5251
  110OSM   C14S11351   7.596   7.357   9.754  0.1513 -0.7553  0.7800
  110OSM   H14S11352   7.651   7.264   9.728  2.7568  0.2257  2.6266
  110OSM   H14T11353   7.666   7.435   9.790 -1.4591  1.8265 -1.5293
  110OSM   C15S11354   7.518   7.417   9.629 -0.2785 -0.0429  0.0901
  110OSM   H15S11355   7.491   7.523   9.647 -0.3431 -0.3697  1.9793
  110OSM   H15T11356   7.419   7.368   9.620 -1.0247  1.5277 -0.4746
  110OSM   C16S11357   7.594   7.401   9.490  0.6860  0.1872  0.6475
  110OSM   H16S11358   7.542   7.332   9.420  0.1825 -0.6434  1.8220
  110OSM   H16T11359   7.694   7.353   9.504  0.6535  0.7003  2.9274
  110OSM   C17S11360   7.593   7.531   9.410 -0.4406  0.9272 -0.2079
  110OSM   H17S11361   7.626   7.622   9.466 -1.8327  0.0687  2.0909
  110OSM   H17T11362   7.487   7.561   9.391 -0.2848  1.8127  0.2501
  110OSM   C18S11363   7.671   7.510   9.282 -0.0814  0.7593  0.4499
  110OSM   H18S11364   7.637   7.410   9.248 -0.5003  0.3548  1.9964
  110OSM   H18T11365   7.780   7.506   9.306  0.7404  1.8782 -2.8670
  110OSM   H18U11366   7.665   7.591   9.206 -1.0871 -0.7551 -1.1049
  110OSM    C1F11367   7.312   6.847  10.457  0.1331  0.2062  0.4557
  110OSM     OF11368   7.202   6.893  10.450  0.1616  0.1745 -0.0489
  110OSM    C2F11369   7.374   6.760  10.357 -0.7164  0.0563  0.3021
  110OSM    H2F11370   7.368   6.656  10.395  1.8201  0.2663  1.3718
  110OSM    H2G11371   7.477   6.788  10.327 -0.4676  0.2824  1.3359
  110OSM    C3F11372   7.302   6.753  10.222 -0.2887  0.5419 -0.2833
  110OSM    H3F11373   7.290   6.847  10.165  2.2808  0.8320 -0.4047
  110OSM    H3G11374   7.198   6.716  10.232 -0.2492  0.7120  0.7696
  110OSM    C4F11375   7.384   6.666  10.123 -0.4657 -0.5904  0.0815
  110OSM    H4F11376   7.395   6.561  10.158 -0.8781 -0.4497  0.6276
  110OSM    H4G11377   7.488   6.703  10.113 -0.9491  1.4215  2.1656
  110OSM    C5F11378   7.308   6.661   9.997  0.4043 -1.1427  0.3258
  110OSM    H5F11379   7.292   6.765   9.961  1.7272 -1.5650 -1.6117
  110OSM    H5G11380   7.209   6.615  10.012  0.3991 -0.4535  2.5091
  110OSM    C6F11381   7.377   6.586   9.881  0.3828 -0.0826  0.0333
  110OSM    H6F11382   7.410   6.485   9.910  0.7447  0.4592  1.5226
  110OSM    H6G11383   7.467   6.635   9.838  1.2694 -1.2679  0.5131
  110OSM    C7F11384   7.269   6.571   9.770  0.5328 -0.2813  0.6883
  110OSM    H7F11385   7.222   6.669   9.750 -2.8398 -1.6256  1.5554
  110OSM    H7G11386   7.188   6.504   9.807  0.5723 -1.7461 -1.7478
  110OSM    C8F11387   7.316   6.503   9.632 -0.5260  0.1176 -0.1088
  110OSM    H8F11388   7.218   6.482   9.585 -1.0059  2.8872 -0.4461
  110OSM    H8G11389   7.356   6.408   9.673  1.8255  1.5417  1.0211
  110OSM    C9F11390   7.415   6.571   9.545 -0.2908 -0.2186 -0.8955
  110OSM    H9F11391   7.518   6.578   9.583 -0.5233 -2.0094  0.1298
  110OSM   C10F11392   7.385   6.634   9.428 -0.1793 -0.8685 -0.9779
  110OSM   H10F11393   7.470   6.684   9.378 -0.0873  1.2390  1.1976
  110OSM   C11F11394   7.242   6.650   9.368  0.3013 -0.6313 -0.0984
  110OSM   H11F11395   7.166   6.681   9.443  1.9574  4.7196 -0.3719
  110OSM   H11G11396   7.205   6.558   9.318  3.2982 -1.4319 -0.9334
  110OSM   C12F11397   7.254   6.770   9.270 -0.0610  0.3076  0.4601
  110OSM   H12F11398   7.349   6.749   9.216 -0.0722  0.4024  0.4052
  110OSM   H12G11399   7.274   6.859   9.333 -0.2982  0.2942  0.5547
  110OSM   C13F11400   7.127   6.796   9.198  0.3472  1.0708  0.2658
  110OSM   H13F11401   7.041   6.796   9.268  1.9366  0.4636  2.2389
  110OSM   H13G11402   7.109   6.715   9.124  2.0149 -0.5041  1.5433
  110OSM   C14F11403   7.120   6.928   9.124  0.2260 -0.3525  0.5809
  110OSM   H14F11404   7.142   7.007   9.199  0.7193 -0.1284  0.1962
  110OSM   H14G11405   7.016   6.942   9.087 -0.0369  0.4853  1.5966
  110OSM   C15F11406   7.220   6.933   9.000  0.2506  0.3305  0.8938
  110OSM   H15F11407   7.185   6.842   8.946  0.9082 -1.1525  2.8986
  110OSM   H15G11408   7.324   6.922   9.037  0.9100  0.0964 -0.9679
  110OSM   C16F11409   7.198   7.056   8.910  0.0975 -0.1140  0.5727
  110OSM   H16F11410   7.229   7.146   8.968 -0.7566  0.0576  0.7712
  110OSM   H16G11411   7.088   7.070   8.899  0.1659 -0.7823 -1.1441
  110OSM   C17F11412   7.264   7.049   8.770  0.1382 -0.0561  0.1728
  110OSM   H17F11413   7.206   6.963   8.730  0.5502 -0.1252 -0.2886
  110OSM   H17G11414   7.368   7.009   8.775 -0.6699 -2.3437 -0.6455
  110OSM   C18F11415   7.258   7.182   8.688 -0.3902  0.8556 -0.5022
  110OSM   H18F11416   7.278   7.152   8.582  0.1170 -2.1843  0.4071
  110OSM   H18G11417   7.333   7.255   8.727  1.3373 -1.4647  0.5809
  110OSM   H18H11418   7.157   7.226   8.679 -0.0151  1.8163 -0.1461
  111OSM      N11419   1.109   4.136  10.795 -0.0266  0.3711 -0.2542
  111OSM    C1511420   1.068   3.994  10.829 -0.4700 -0.3631 -0.7665
  111OSM   H15A11421   1.014   3.950  10.747  0.4689  1.9634 -2.6856
  111OSM   H15B11422   1.003   3.997  10.915 -0.2675 -1.7533 -0.5425
  111OSM   H15C11423   1.148   3.925  10.854 -1.4573 -1.4454 -0.5015
  111OSM    C1411424   1.007   4.243  10.831 -0.1013  0.0309 -0.6135
  111OSM   H14A11425   0.933   4.244  10.752  0.3600  0.0258 -1.0544
  111OSM   H14B11426   1.058   4.338  10.829  0.5023 -0.2679  0.4932
  111OSM   H14C11427   0.962   4.231  10.928 -0.2009 -1.0788 -0.7844
  111OSM    C1311428   1.231   4.168  10.877  0.1670  0.0554 -0.1972
  111OSM   H13A11429   1.304   4.092  10.855 -1.6038 -0.8853 -3.1413
  111OSM   H13B11430   1.207   4.186  10.981 -0.4474  1.2055 -0.5308
  111OSM   H13C11431   1.274   4.258  10.836 -3.0444  1.4866 -0.5516
  111OSM    C1211432   1.144   4.145  10.648  0.1745 -0.5009 -0.6955
  111OSM   H12A11433   1.066   4.099  10.590  0.5603  0.5622 -2.0806
  111OSM   H12B11434   1.228   4.085  10.614  1.4212  0.9358 -0.2093
  111OSM    C1111435   1.192   4.291  10.599  0.0549  0.2016  0.3216
  111OSM   H11A11436   1.095   4.346  10.605 -0.9933 -1.7088  1.4003
  111OSM   H11B11437   1.214   4.291  10.490 -0.3410 -0.7484  0.2344
  111OSM      P11438   1.441   4.319  10.623  0.1189 -0.1521 -0.0250
  111OSM    O1311439   1.554   4.366  10.709  0.2908 -0.4756  0.2998
  111OSM    O1411440   1.455   4.173  10.604 -0.3081 -0.2077 -0.7252
  111OSM    O1111441   1.448   4.395  10.485 -0.0993 -0.3070 -0.7372
  111OSM    O1211442   1.295   4.351  10.674 -0.6240  0.2545  0.2193
  111OSM    C1S11443   1.416   4.533  10.490 -0.2765  0.0367  0.8182
  111OSM    H1S11444   1.484   4.595  10.553 -0.5634  1.9592 -0.7073
  111OSM    H1T11445   1.310   4.552  10.519 -0.3749  1.1909 -0.2385
  111OSM     NF11446   1.408   4.743  10.350  0.0614 -0.3844 -0.6713
  111OSM    HNF11447   1.320   4.767  10.310 -0.2961 -1.5001 -0.5846
  111OSM    C2S11448   1.433   4.595  10.349  0.9175  0.1627  0.4252
  111OSM    H2S11449   1.538   4.572  10.319  0.3851 -2.4572  0.4795
  111OSM    C3S11450   1.347   4.528  10.240 -0.2468  0.6933 -0.6605
  111OSM    H3S11451   1.245   4.573  10.246 -0.3778  0.2739  0.2973
  111OSM     O311452   1.315   4.385  10.253  0.1382 -0.4373 -0.2840
  111OSM    HO311453   1.341   4.367  10.344 -2.7952 -0.2478  0.6572
  111OSM    C4S11454   1.409   4.551  10.101 -0.3816  0.2702  0.4697
  111OSM    H4S11455   1.502   4.494  10.086 -1.4875 -1.4660  0.1251
  111OSM    C5S11456   1.363   4.637  10.017 -0.4330 -0.5270 -0.2055
  111OSM    H5S11457   1.279   4.700  10.048 -0.2870 -0.0585 -0.7674
  111OSM    C6S11458   1.436   4.659   9.881  0.6583 -0.7316  0.4240
  111OSM    H6S11459   1.530   4.599   9.877 -0.2653 -2.3701  2.3940
  111OSM    H6T11460   1.473   4.763   9.872  1.3749 -1.0020  0.1608
  111OSM    C7S11461   1.359   4.611   9.755  0.5609 -0.1304 -0.7063
  111OSM    H7S11462   1.270   4.676   9.743  1.7373  2.3433  3.0556
  111OSM    H7T11463   1.318   4.508   9.758 -0.7836  0.4327  0.9008
  111OSM    C8S11464   1.444   4.630   9.628 -0.1481  0.5102  0.3668
  111OSM    H8S11465   1.539   4.573   9.630 -0.1504  0.5262  1.0563
  111OSM    H8T11466   1.473   4.737   9.618 -0.5244  0.3464 -3.2515
  111OSM    C9S11467   1.357   4.585   9.505 -0.2882 -1.1106 -0.3787
  111OSM    H9S11468   1.309   4.487   9.523  2.0405 -2.2105  0.0747
  111OSM    H9T11469   1.429   4.568   9.423  0.5053 -0.1707  0.1003
  111OSM   C10S11470   1.243   4.678   9.465 -0.0243 -0.2971  0.0720
  111OSM   H10S11471   1.292   4.768   9.422  1.8178 -0.8468  0.9898
  111OSM   H10T11472   1.191   4.708   9.558  1.5395  0.2683  0.7809
  111OSM   C11S11473   1.149   4.619   9.364 -0.2912  0.0216  0.1028
  111OSM   H11S11474   1.053   4.582   9.406 -0.2232 -0.2787 -0.0070
  111OSM   H11T11475   1.208   4.550   9.299  1.7235  0.5822  1.3057
  111OSM   C12S11476   1.107   4.728   9.260 -0.2263  0.1661 -0.0797
  111OSM   H12S11477   1.192   4.770   9.204  0.0923  0.4549  0.6150
  111OSM   H12T11478   1.071   4.816   9.318 -2.0429  0.5095 -1.6658
  111OSM   C13S11479   1.005   4.675   9.159 -0.0321  0.2447 -0.3863
  111OSM   H13S11480   0.911   4.639   9.206  0.0363  0.8759  0.2443
  111OSM   H13T11481   1.036   4.582   9.106 -1.7363 -0.4533 -0.2054
  111OSM   C14S11482   0.965   4.760   9.043 -0.3365 -0.2004 -0.0395
  111OSM   H14S11483   1.054   4.790   8.984  0.3063 -1.5799  0.2155
  111OSM   H14T11484   0.908   4.844   9.089  0.0458 -1.1952  2.3251
  111OSM   C15S11485   0.875   4.689   8.939 -0.2680 -0.0362 -0.0727
  111OSM   H15S11486   0.798   4.628   8.991  0.0273 -1.1132 -0.8785
  111OSM   H15T11487   0.933   4.613   8.883 -1.1105 -0.3073 -0.6003
  111OSM   C16S11488   0.813   4.783   8.838  0.3398 -0.4371  0.0546
  111OSM   H16S11489   0.891   4.858   8.812  0.0299  0.1904  0.8858
  111OSM   H16T11490   0.737   4.842   8.895 -1.7547 -3.1578  0.1634
  111OSM   C17S11491   0.767   4.720   8.703 -0.4171 -0.5057  0.7284
  111OSM   H17S11492   0.676   4.657   8.707 -0.1947 -0.7838  1.4954
  111OSM   H17T11493   0.855   4.663   8.666 -0.0941  0.4167  0.0409
  111OSM   C18S11494   0.730   4.836   8.608 -0.1198 -0.3953  0.5645
  111OSM   H18S11495   0.819   4.897   8.580  0.5729 -0.3915  2.7413
  111OSM   H18T11496   0.659   4.899   8.665  1.0314 -0.2490  1.8610
  111OSM   H18U11497   0.681   4.793   8.518  2.6386 -1.3365 -0.5443
  111OSM    C1F11498   1.471   4.837  10.418  0.2384 -0.5631  0.1463
  111OSM     OF11499   1.580   4.817  10.479  0.3026 -0.6545 -0.1051
  111OSM    C2F11500   1.403   4.973  10.410 -0.2838  0.6072  0.3077
  111OSM    H2F11501   1.342   4.977  10.502  0.4418  2.4183  0.7437
  111OSM    H2G11502   1.333   4.980  10.324 -1.8015 -2.8439  1.2048
  111OSM    C3F11503   1.509   5.081  10.421  0.2105  0.7453  0.0867
  111OSM    H3F11504   1.582   5.063  10.503  0.8827 -1.1706 -0.8953
  111OSM    H3G11505   1.452   5.173  10.445  1.6822  2.0272 -1.2597
  111OSM    C4F11506   1.588   5.111  10.290 -0.7695  0.4870  0.0407
  111OSM    H4F11507   1.650   5.022  10.265 -0.4155  0.7025  0.1498
  111OSM    H4G11508   1.653   5.196  10.322 -0.2034 -0.5852  1.8327
  111OSM    C5F11509   1.501   5.161  10.170  0.2087  0.3462 -0.4502
  111OSM    H5F11510   1.429   5.243  10.192  0.8318  0.7914 -0.0379
  111OSM    H5G11511   1.451   5.070  10.132  5.0548 -2.2043 -1.1832
  111OSM    C6F11512   1.588   5.196  10.045  0.0457 -0.6409  0.2915
  111OSM    H6F11513   1.643   5.108  10.008 -2.3219 -1.5703 -1.1523
  111OSM    H6G11514   1.661   5.276  10.070  1.0875 -1.8810  1.2617
  111OSM    C7F11515   1.503   5.251   9.937 -0.1227 -0.3043 -0.2847
  111OSM    H7F11516   1.581   5.290   9.867 -1.3625  0.9631 -0.9763
  111OSM    H7G11517   1.435   5.330   9.975 -0.7828 -1.2811  0.5425
  111OSM    C8F11518   1.417   5.142   9.871  0.5796 -0.4448 -0.0375
  111OSM    H8F11519   1.346   5.207   9.815 -1.2391 -0.4003  2.2561
  111OSM    H8G11520   1.350   5.092   9.943 -1.9439  2.1396 -0.5193
  111OSM    C9F11521   1.488   5.053   9.778  0.2460 -0.5511  0.0011
  111OSM    H9F11522   1.541   4.964   9.816 -1.5861 -1.8393 -0.4272
  111OSM   C10F11523   1.501   5.067   9.647  0.0102 -0.7319  0.1320
  111OSM   H10F11524   1.545   4.982   9.593 -0.2413 -0.7521 -0.0412
  111OSM   C11F11525   1.451   5.183   9.570 -0.4420 -0.5254  0.1260
  111OSM   H11F11526   1.512   5.200   9.478 -2.7626 -4.7969 -2.3810
  111OSM   H11G11527   1.458   5.277   9.627  0.1357  0.6448 -1.8189
  111OSM   C12F11528   1.310   5.177   9.506 -0.9014  0.5074  0.4923
  111OSM   H12F11529   1.300   5.273   9.451 -2.3889  0.1236  0.0750
  111OSM   H12G11530   1.237   5.162   9.589  0.2957 -0.6556  1.3519
  111OSM   C13F11531   1.296   5.064   9.410  0.0432 -0.1904  0.2702
  111OSM   H13F11532   1.203   5.012   9.441 -2.3558  3.5660 -0.3524
  111OSM   H13G11533   1.384   4.997   9.427  2.4602  2.6146 -0.7103
  111OSM   C14F11534   1.288   5.127   9.263  0.3078 -0.6136  0.0987
  111OSM   H14F11535   1.324   5.049   9.193  0.4900  1.3790 -2.1119
  111OSM   H14G11536   1.352   5.217   9.253  0.3982 -0.7641 -0.6356
  111OSM   C15F11537   1.138   5.151   9.218 -0.3561  0.1205 -0.4812
  111OSM   H15F11538   1.107   5.234   9.285 -0.3675 -0.7888  0.6509
  111OSM   H15G11539   1.078   5.062   9.248  1.8568 -0.5458  2.1714
  111OSM   C16F11540   1.117   5.186   9.072  0.2651  0.4135 -0.8412
  111OSM   H16F11541   1.156   5.110   9.000 -1.2679 -0.6449 -0.5947
  111OSM   H16G11542   1.175   5.279   9.051  0.0873  1.6151  3.6295
  111OSM   C17F11543   0.963   5.200   9.047  0.6963 -0.1099 -0.0681
  111OSM   H17F11544   0.930   5.285   9.111 -2.2342 -2.4947  1.7479
  111OSM   H17G11545   0.909   5.104   9.061  1.5753 -0.6508 -0.3358
  111OSM   C18F11546   0.935   5.229   8.895  0.8332 -0.1243 -0.1141
  111OSM   H18F11547   0.974   5.332   8.879  0.2199 -0.0559 -1.2523
  111OSM   H18G11548   0.826   5.225   8.873  0.9209 -1.7484 -0.3180
  111OSM   H18H11549   0.973   5.150   8.827  1.6036 -0.0996  0.2816
  112OSM      N11550   0.447   2.307  10.794  0.0826 -0.1092  0.3495
  112OSM    C1511551   0.350   2.359  10.691 -0.6292  0.0175 -0.5874
  112OSM   H15A11552   0.382   2.438  10.625  3.5515  0.3816  1.7270
  112OSM   H15B11553   0.270   2.402  10.749 -2.0171 -2.7613 -0.3027
  112OSM   H15C11554   0.319   2.286  10.617 -1.6802 -0.0721 -0.0694
  112OSM    C1411555   0.376   2.208  10.878 -0.4009 -0.0904  0.2685
  112OSM   H14A11556   0.322   2.263  10.953 -0.1919 -1.0424  1.1254
  112OSM   H14B11557   0.443   2.143  10.933 -0.9288  0.8668  2.0868
  112OSM   H14C11558   0.303   2.149  10.825 -1.1657 -0.6382  1.8974
  112OSM    C1311559   0.559   2.240  10.718  0.5779  0.4346  0.3193
  112OSM   H13A11560   0.644   2.203  10.775  1.6528 -1.3323 -2.2944
  112OSM   H13B11561   0.596   2.298  10.635  1.0778  0.1872  0.3645
  112OSM   H13C11562   0.518   2.150  10.676 -0.5492  0.7880  0.6617
  112OSM    C1211563   0.511   2.421  10.875  0.3986 -0.1804 -0.2644
  112OSM   H12A11564   0.567   2.481  10.805  0.1269 -1.0041 -1.1894
  112OSM   H12B11565   0.590   2.380  10.936  2.0945 -0.1577 -2.4220
  112OSM    C1111566   0.413   2.510  10.945  0.1222  0.4599 -0.5187
  112OSM   H11A11567   0.444   2.545  11.045  1.6670  1.4068 -1.3220
  112OSM   H11B11568   0.334   2.439  10.981 -0.5706  3.3659  4.0408
  112OSM      P11569   0.455   2.745  10.846 -0.0374  0.2430  0.0747
  112OSM    O1311570   0.379   2.856  10.905 -0.0920  0.2295  0.3346
  112OSM    O1411571   0.596   2.721  10.885  0.4681 -0.2737  0.7272
  112OSM    O1111572   0.455   2.756  10.695 -0.2298 -0.6036 -0.0507
  112OSM    O1211573   0.364   2.614  10.859 -0.5618  0.3707  0.0757
  112OSM    C1S11574   0.330   2.781  10.637 -0.0882 -0.0991  0.2405
  112OSM    H1S11575   0.299   2.886  10.654 -0.0666  0.1545 -1.2207
  112OSM    H1T11576   0.250   2.717  10.681  1.2607 -2.3533 -0.4864
  112OSM     NF11577   0.202   2.790  10.429 -0.6381 -0.5468 -0.1080
  112OSM    HNF11578   0.139   2.715  10.411 -0.9328 -0.3987  0.2986
  112OSM    C2S11579   0.333   2.760  10.482 -0.2952  0.5321  0.6303
  112OSM    H2S11580   0.407   2.836  10.449  0.0439  0.0303  0.2354
  112OSM    C3S11581   0.383   2.611  10.457 -0.3993  0.4463  0.6562
  112OSM    H3S11582   0.306   2.549  10.509 -0.1060 -0.4414  0.0583
  112OSM     O311583   0.499   2.566  10.518 -0.4801  0.1756  0.3966
  112OSM    HO311584   0.510   2.638  10.580  1.2755  1.6929 -1.5973
  112OSM    C4S11585   0.391   2.585  10.314  0.6461  1.0456  0.2594
  112OSM    H4S11586   0.470   2.641  10.262 -1.4666  0.2161 -4.0810
  112OSM    C5S11587   0.328   2.479  10.255 -0.4800  0.0106  0.6838
  112OSM    H5S11588   0.266   2.410  10.313  0.5185  0.3104  2.1222
  112OSM    C6S11589   0.336   2.435  10.110  1.1603  0.0066  0.4659
  112OSM    H6S11590   0.264   2.353  10.087  3.0308 -0.8859 -2.6081
  112OSM    H6T11591   0.439   2.396  10.093  2.0834  0.2022  5.1516
  112OSM    C7S11592   0.316   2.545  10.001 -0.4192 -0.4838 -0.6114
  112OSM    H7S11593   0.373   2.634  10.035 -0.6980 -0.4330 -0.2762
  112OSM    H7T11594   0.209   2.574   9.988 -0.5012 -1.1599 -1.4801
  112OSM    C8S11595   0.348   2.494   9.858 -0.0457  0.0989 -0.2503
  112OSM    H8S11596   0.289   2.402   9.839 -1.0946  0.7071  0.0578
  112OSM    H8T11597   0.456   2.472   9.845  0.1967  1.9114 -1.5136
  112OSM    C9S11598   0.333   2.596   9.748  0.2279 -0.2300 -0.2236
  112OSM    H9S11599   0.420   2.665   9.741  0.4345 -0.4244  0.3849
  112OSM    H9T11600   0.239   2.646   9.780  0.3773 -0.9697  1.4324
  112OSM   C10S11601   0.309   2.527   9.620  0.6502 -1.0205  0.2664
  112OSM   H10S11602   0.313   2.608   9.544  2.5887  0.5061  1.9500
  112OSM   H10T11603   0.212   2.473   9.622  1.5803 -2.8525 -2.1130
  112OSM   C11S11604   0.425   2.432   9.578 -0.4313 -0.1871  0.4586
  112OSM   H11S11605   0.419   2.327   9.613 -2.7607  0.7967  3.1669
  112OSM   H11T11606   0.525   2.479   9.589  0.3124 -1.1034 -1.9079
  112OSM   C12S11607   0.428   2.422   9.419 -0.5916  0.1717 -0.4330
  112OSM   H12S11608   0.509   2.354   9.386  1.0449  1.0167  1.6930
  112OSM   H12T11609   0.448   2.521   9.373 -1.8702  1.9508  2.6567
  112OSM   C13S11610   0.299   2.346   9.368 -0.3039 -0.3526 -0.3987
  112OSM   H13S11611   0.221   2.425   9.361 -0.1071 -0.1887 -0.7656
  112OSM   H13T11612   0.278   2.278   9.453  3.8120  0.4641  1.4374
  112OSM   C14S11613   0.322   2.262   9.244 -0.4709  0.1394  0.4513
  112OSM   H14S11614   0.398   2.188   9.273  1.1867  1.7313  0.2713
  112OSM   H14T11615   0.359   2.319   9.156  1.2411 -3.1651 -1.0462
  112OSM   C15S11616   0.190   2.187   9.221  0.0961 -0.3771  0.2264
  112OSM   H15S11617   0.108   2.261   9.234  0.4714 -0.1177  1.1604
  112OSM   H15T11618   0.191   2.110   9.301 -2.1424  0.8993  1.5342
  112OSM   C16S11619   0.177   2.107   9.092  0.0074 -0.4484 -0.1758
  112OSM   H16S11620   0.079   2.056   9.083 -0.9569  1.3025  0.1310
  112OSM   H16T11621   0.259   2.033   9.082  1.0028  0.6035  0.0951
  112OSM   C17S11622   0.189   2.197   8.968  0.1945  0.0897 -0.5113
  112OSM   H17S11623   0.286   2.248   8.957 -0.1748  0.9913  0.3519
  112OSM   H17T11624   0.126   2.288   8.975 -1.8010 -1.0957 -2.2672
  112OSM   C18S11625   0.151   2.123   8.836 -0.7153 -0.1864  0.9803
  112OSM   H18S11626   0.215   2.153   8.751  2.3025 -1.5090  2.7253
  112OSM   H18T11627   0.047   2.143   8.801 -0.1892 -0.5493 -0.8467
  112OSM   H18U11628   0.169   2.013   8.830 -3.2315 -0.6825  1.8116
  112OSM    C1F11629   0.169   2.918  10.412 -0.0726 -0.3595 -0.2851
  112OSM     OF11630   0.250   3.013  10.415 -0.3607 -0.0878  0.0095
  112OSM    C2F11631   0.021   2.937  10.384  0.3697 -0.1802  0.0466
  112OSM    H2F11632  -0.019   2.926  10.487 -1.3181  1.3422 -0.4283
  112OSM    H2G11633  -0.023   2.864  10.313 -3.6596  1.4009  0.7747
  112OSM    C3F11634  -0.006   3.082  10.327 -0.3031 -0.1752 -0.5167
  112OSM    H3F11635   0.024   3.154  10.406  1.9014 -1.5825 -0.0333
  112OSM    H3G11636  -0.114   3.108  10.323  0.2541  3.1456  3.2101
  112OSM    C4F11637   0.073   3.119  10.201  0.1453 -0.0745  0.1368
  112OSM    H4F11638   0.182   3.135  10.214  0.1726 -0.0239 -0.1455
  112OSM    H4G11639   0.029   3.214  10.164 -1.3335  0.4848  3.1247
  112OSM    C5F11640   0.036   3.028  10.089  0.0593 -0.0113  0.5451
  112OSM    H5F11641  -0.071   3.003  10.101 -0.5520  2.8125  1.2970
  112OSM    H5G11642   0.092   2.932  10.097  1.2269  0.7867  2.2495
  112OSM    C6F11643   0.053   3.093   9.949  0.0356 -0.6706 -0.7878
  112OSM    H6F11644   0.160   3.086   9.920  0.0585 -1.1270 -0.5895
  112OSM    H6G11645   0.023   3.199   9.965 -0.1944 -0.9738  0.8858
  112OSM    C7F11646  -0.041   3.032   9.840 -0.3567  0.2372  0.0129
  112OSM    H7F11647  -0.036   3.098   9.751  3.6543 -0.9046 -0.7135
  112OSM    H7G11648  -0.140   3.045   9.888 -1.1105  0.9627 -1.7020
  112OSM    C8F11649  -0.003   2.892   9.804 -0.4085 -0.1245 -0.2994
  112OSM    H8F11650   0.018   2.843   9.901  1.7279 -0.9754 -1.1400
  112OSM    H8G11651   0.094   2.904   9.751 -1.4245  1.6060 -1.8359
  112OSM    C9F11652  -0.105   2.807   9.741 -0.6494 -0.0125 -0.7127
  112OSM    H9F11653  -0.197   2.808   9.801  0.1520  0.0963  0.5435
  112OSM   C10F11654  -0.105   2.747   9.624  0.0801  1.2639 -1.0554
  112OSM   H10F11655  -0.189   2.691   9.579  0.4468  0.1790 -0.4022
  112OSM   C11F11656   0.017   2.753   9.535 -0.7595  0.4749  0.0802
  112OSM   H11F11657   0.069   2.655   9.532  2.0767  1.9214  0.6215
  112OSM   H11G11658   0.101   2.818   9.567 -1.2926 -0.0271  2.5811
  112OSM   C12F11659  -0.022   2.794   9.397  0.4177  0.6865  0.3410
  112OSM   H12F11660   0.074   2.796   9.340 -0.2742 -0.1562 -0.8838
  112OSM   H12G11661  -0.045   2.900   9.372  1.9644  0.0783 -4.1365
  112OSM   C13F11662  -0.112   2.700   9.315 -1.2082  0.5995 -0.0641
  112OSM   H13F11663  -0.220   2.696   9.341 -1.4782  1.1988 -1.0857
  112OSM   H13G11664  -0.073   2.597   9.330  0.5205  1.4153  1.2215
  112OSM   C14F11665  -0.112   2.721   9.167  0.5411  0.1691  0.5498
  112OSM   H14F11666  -0.012   2.725   9.118  0.3031  1.9829  0.1903
  112OSM   H14G11667  -0.147   2.820   9.131 -1.8772 -1.0805 -0.6106
  112OSM   C15F11668  -0.181   2.594   9.095  0.0858  0.1168 -0.2878
  112OSM   H15F11669  -0.266   2.576   9.164  1.4883  0.8743  1.6753
  112OSM   H15G11670  -0.119   2.502   9.100 -1.1571 -0.9906 -3.7204
  112OSM   C16F11671  -0.244   2.624   8.960 -0.0872  0.2444 -0.1852
  112OSM   H16F11672  -0.169   2.650   8.883  1.1747 -1.3559  0.4908
  112OSM   H16G11673  -0.297   2.720   8.974  0.0031  0.3563 -0.5867
  112OSM   C17F11674  -0.337   2.513   8.906 -0.3383 -0.7822 -0.0640
  112OSM   H17F11675  -0.367   2.553   8.807 -1.4301  1.2799  1.0591
  112OSM   H17G11676  -0.427   2.497   8.970  1.3837 -0.1845  2.5427
  112OSM   C18F11677  -0.268   2.377   8.875 -0.5629 -0.6670  0.6234
  112OSM   H18F11678  -0.194   2.393   8.793 -2.2696  0.3254 -0.7516
  112OSM   H18G11679  -0.343   2.307   8.833 -0.2963  0.3106 -1.6094
  112OSM   H18H11680  -0.220   2.338   8.967 -1.7185 -1.1768  1.0132
  113OSM      N11681   0.253   1.510  11.250  0.0693  0.2081  0.4606
  113OSM    C1511682   0.395   1.460  11.273 -0.4550  0.0618 -0.0341
  113OSM   H15A11683   0.393   1.353  11.268  0.4904 -0.0369  1.4143
  113OSM   H15B11684   0.428   1.485  11.373  5.1633 -0.5024 -1.5842
  113OSM   H15C11685   0.465   1.507  11.206 -1.7379  0.3884 -1.1851
  113OSM    C1411686   0.163   1.410  11.323 -0.0261  0.2421 -0.5334
  113OSM   H14A11687   0.058   1.438  11.323 -0.2124 -0.4187  0.6375
  113OSM   H14B11688   0.204   1.394  11.422 -0.9891  1.1906  0.0210
  113OSM   H14C11689   0.163   1.310  11.281 -3.5184 -0.4890  0.9785
  113OSM    C1311690   0.233   1.644  11.308  0.4913  0.1882  0.3494
  113OSM   H13A11691   0.234   1.642  11.416  1.0362  1.8262  0.3967
  113OSM   H13B11692   0.135   1.677  11.277  1.0596  0.6858 -0.9587
  113OSM   H13C11693   0.310   1.715  11.280 -0.2775  1.7469  2.0554
  113OSM    C1211694   0.228   1.520  11.099  0.1728  0.2723 -0.6125
  113OSM   H12A11695   0.132   1.565  11.080 -0.4535 -1.4266 -1.5147
  113OSM   H12B11696   0.219   1.421  11.058  2.9098 -1.0592  1.7929
  113OSM    C1111697   0.332   1.596  11.013  0.6312  0.0015  0.0460
  113OSM   H11A11698   0.280   1.589  10.914 -0.0916  0.3587  0.3977
  113OSM   H11B11699   0.434   1.551  11.010 -1.0428 -4.2888  2.7867
  113OSM      P11700   0.246   1.848  11.008 -0.3573  0.0216 -0.4526
  113OSM    O1311701   0.107   1.812  11.043 -0.1097 -0.4672 -0.1311
  113OSM    O1411702   0.288   1.977  11.066 -0.8645 -0.5595 -0.1050
  113OSM    O1111703   0.251   1.858  10.852  0.4193 -0.3736 -0.1516
  113OSM    O1211704   0.345   1.735  11.054 -0.5746  0.2815  0.6925
  113OSM    C1S11705   0.365   1.845  10.771 -0.4656 -0.4657  0.0252
  113OSM    H1S11706   0.426   1.758  10.804  0.7962  0.3442 -0.1490
  113OSM    H1T11707   0.430   1.932  10.797 -0.0707 -0.7637  0.0430
  113OSM     NF11708   0.471   1.830  10.550 -0.0979 -0.0160  0.1955
  113OSM    HNF11709   0.512   1.909  10.504  0.1355  0.0312  0.4815
  113OSM    C2S11710   0.339   1.842  10.613 -0.2840  0.3728  0.2411
  113OSM    H2S11711   0.276   1.753  10.590  0.1619  0.0141  0.4190
  113OSM    C3S11712   0.266   1.976  10.575 -0.5123 -0.1664  0.7552
  113OSM    H3S11713   0.343   2.056  10.587  1.2439 -1.6006 -0.7433
  113OSM     O311714   0.158   2.013  10.656  0.3278 -0.1487 -0.0106
  113OSM    HO311715   0.166   1.955  10.732 -0.9884  0.4384  0.6035
  113OSM    C4S11716   0.224   1.966  10.433  0.3793 -0.2701  0.5816
  113OSM    H4S11717   0.146   1.891  10.413  1.0976 -0.7653 -0.4392
  113OSM    C5S11718   0.272   2.039  10.333  0.2946 -0.5806 -0.3536
  113OSM    H5S11719   0.355   2.110  10.344 -1.2676  1.3260 -0.6390
  113OSM    C6S11720   0.217   2.013  10.195  0.7997  0.0953  0.0754
  113OSM    H6S11721   0.149   2.092  10.155 -1.0770 -1.2922  0.4197
  113OSM    H6T11722   0.161   1.916  10.193  0.1927  0.4188 -4.3100
  113OSM    C7S11723   0.327   1.977  10.094  0.2487 -0.1311 -0.7478
  113OSM    H7S11724   0.390   1.900  10.144 -1.6459  0.3259  2.4828
  113OSM    H7T11725   0.387   2.070  10.083  2.6318 -1.3382  1.4116
  113OSM    C8S11726   0.271   1.916   9.963  0.2656  0.4518  0.3863
  113OSM    H8S11727   0.189   1.844   9.984  0.2967  0.9459  2.2812
  113OSM    H8T11728   0.354   1.867   9.908  0.4220  0.4135  0.6565
  113OSM    C9S11729   0.200   2.027   9.881  0.5455  0.8599 -0.3587
  113OSM    H9S11730   0.276   2.101   9.849  2.6250 -0.7777  0.5769
  113OSM    H9T11731   0.113   2.073   9.933  1.5415  3.1679 -0.6798
  113OSM   C10S11732   0.150   1.984   9.740 -0.5844 -0.3994  0.3268
  113OSM   H10S11733   0.234   1.937   9.685 -0.3462 -1.1680  1.3269
  113OSM   H10T11734   0.113   2.062   9.670  0.9316  0.4170  0.4362
  113OSM   C11S11735   0.038   1.884   9.752  0.9280  0.0571  0.5602
  113OSM   H11S11736  -0.042   1.914   9.823 -1.4274 -3.0715 -0.6132
  113OSM   H11T11737   0.065   1.795   9.813  0.2181  0.5558  1.6139
  113OSM   C12S11738  -0.028   1.848   9.614 -0.6111 -0.2793 -0.3683
  113OSM   H12S11739  -0.068   1.938   9.562 -0.4739  0.1703  0.2918
  113OSM   H12T11740  -0.122   1.791   9.632 -0.6379  0.1072  0.7519
  113OSM   C13S11741   0.052   1.767   9.516 -0.1320  0.3462  0.4238
  113OSM   H13S11742   0.084   1.678   9.573 -1.2446 -0.4252 -0.1287
  113OSM   H13T11743   0.140   1.829   9.488  1.6242 -1.6962  1.3294
  113OSM   C14S11744  -0.025   1.734   9.385  0.0622  0.4503 -0.5962
  113OSM   H14S11745  -0.077   1.823   9.342 -1.1121  0.7969  1.4890
  113OSM   H14T11746  -0.103   1.659   9.408  1.9690 -0.4648  3.4048
  113OSM   C15S11747   0.065   1.670   9.276 -0.4896  0.2137 -0.5250
  113OSM   H15S11748  -0.002   1.627   9.198 -0.3985 -2.1805  0.6719
  113OSM   H15T11749   0.114   1.588   9.333  0.1858  1.1212  0.1995
  113OSM   C16S11750   0.172   1.757   9.221  0.4887  0.4544  0.5160
  113OSM   H16S11751   0.248   1.789   9.296  1.2084 -0.4154  0.1729
  113OSM   H16T11752   0.117   1.847   9.186 -0.0427  0.2439  0.8025
  113OSM   C17S11753   0.252   1.698   9.105 -0.2028 -0.1694 -0.5628
  113OSM   H17S11754   0.314   1.614   9.142  0.2608 -0.3691 -1.7537
  113OSM   H17T11755   0.329   1.770   9.071  0.9477 -1.9380 -1.7738
  113OSM   C18S11756   0.156   1.671   8.988 -0.2629  0.1470  1.0600
  113OSM   H18S11757   0.073   1.605   9.019 -0.6704  0.3907  0.5044
  113OSM   H18T11758   0.217   1.634   8.903 -1.8498  2.2330 -1.0922
  113OSM   H18U11759   0.107   1.758   8.939  0.6056  0.6511  1.0660
  113OSM    C1F11760   0.540   1.720  10.550  0.4284  0.0408 -0.1240
  113OSM     OF11761   0.491   1.611  10.582  0.1973  0.0566 -1.3039
  113OSM    C2F11762   0.688   1.739  10.521 -0.4159 -0.5558 -0.2497
  113OSM    H2F11763   0.736   1.672  10.596  0.4257 -1.7979 -1.8616
  113OSM    H2G11764   0.719   1.845  10.532 -2.4288 -0.0195  0.4603
  113OSM    C3F11765   0.720   1.686  10.378 -0.4597  0.0972 -0.0810
  113OSM    H3F11766   0.829   1.705  10.366 -0.3718 -1.1593 -1.3630
  113OSM    H3G11767   0.655   1.729  10.299  0.1097  0.8990 -0.1268
  113OSM    C4F11768   0.722   1.540  10.366 -0.4211  0.0815  0.4974
  113OSM    H4F11769   0.627   1.496  10.403 -0.8070 -0.4105 -1.0663
  113OSM    H4G11770   0.801   1.494  10.430 -1.2016 -0.2702  1.2100
  113OSM    C5F11771   0.758   1.493  10.225  1.0294 -0.5914 -0.0741
  113OSM    H5F11772   0.860   1.525  10.196  1.1713  1.0770  2.1597
  113OSM    H5G11773   0.694   1.551  10.155  0.6109 -1.8426 -0.7365
  113OSM    C6F11774   0.757   1.343  10.209 -0.2249 -0.2527  0.0545
  113OSM    H6F11775   0.655   1.301  10.217 -0.4523 -0.0205 -1.4414
  113OSM    H6G11776   0.826   1.290  10.278 -0.3997 -1.0597 -0.3739
  113OSM    C7F11777   0.799   1.309  10.062  0.4365 -0.2150  0.6483
  113OSM    H7F11778   0.897   1.355  10.037  1.8374 -4.0823 -1.4934
  113OSM    H7G11779   0.719   1.338   9.992  0.5246  0.6088  0.8837
  113OSM    C8F11780   0.818   1.163  10.030  0.6907 -0.3306 -0.8199
  113OSM    H8F11781   0.714   1.126  10.024 -0.5296  2.2739  2.6755
  113OSM    H8G11782   0.876   1.117  10.113 -0.2120  1.3347  0.7651
  113OSM    C9F11783   0.889   1.144   9.897  0.2246  0.1218 -0.5399
  113OSM    H9F11784   0.999   1.152   9.900  0.2938 -1.0012  0.4587
  113OSM   C10F11785   0.837   1.091   9.786 -0.1564 -0.5765 -0.1101
  113OSM   H10F11786   0.902   1.091   9.697  1.5743  2.4294  1.0503
  113OSM   C11F11787   0.687   1.057   9.773  0.7481  0.2248  0.2263
  113OSM   H11F11788   0.630   1.149   9.800 -0.3102 -0.8684  1.8035
  113OSM   H11G11789   0.658   0.969   9.835 -1.3208  1.7547  1.5137
  113OSM   C12F11790   0.649   1.031   9.633 -0.1281  0.0047  0.3626
  113OSM   H12F11791   0.716   0.954   9.590  0.0771 -0.0109  0.7062
  113OSM   H12G11792   0.664   1.134   9.593  0.2679  0.9168  2.7404
  113OSM   C13F11793   0.501   1.002   9.626  0.5399 -0.8873  0.3845
  113OSM   H13F11794   0.448   1.095   9.654  3.5411  1.1663 -0.5173
  113OSM   H13G11795   0.467   0.921   9.694 -1.6285 -1.2217 -1.0720
  113OSM   C14F11796   0.445   0.974   9.487 -0.2827 -0.8579 -1.0825
  113OSM   H14F11797   0.357   0.906   9.488  0.8205 -2.3347  1.9722
  113OSM   H14G11798   0.528   0.924   9.433 -0.4809 -1.6611 -0.6525
  113OSM   C15F11799   0.412   1.110   9.420  0.5264 -0.9789 -0.5645
  113OSM   H15F11800   0.491   1.180   9.454  0.8415 -2.5240  2.0691
  113OSM   H15G11801   0.311   1.146   9.450  1.4534  0.8555  0.4590
  113OSM   C16F11802   0.431   1.107   9.266  0.1227 -0.6248 -0.4192
  113OSM   H16F11803   0.348   1.045   9.227  1.2180 -1.2998 -1.7356
  113OSM   H16G11804   0.522   1.053   9.232 -1.3950 -2.4502 -1.7191
  113OSM   C17F11805   0.406   1.246   9.198  0.5422 -0.3225 -0.2938
  113OSM   H17F11806   0.496   1.307   9.222  0.2261 -0.0017  0.0759
  113OSM   H17G11807   0.321   1.299   9.245  0.3392 -0.0330 -0.9757
  113OSM   C18F11808   0.383   1.247   9.050 -0.0237 -0.2393 -0.2802
  113OSM   H18F11809   0.364   1.350   9.013  0.5797  0.5259  1.4481
  113OSM   H18G11810   0.290   1.193   9.025 -0.7672  0.8311  0.1483
  113OSM   H18H11811   0.479   1.215   9.003  1.7790  0.1443  2.9279
  114OSM      N11812   2.021   0.403  11.747  0.1117 -0.0497 -0.2820
  114OSM    C1511813   2.009   0.253  11.727 -0.4288  0.4159 -0.7690
  114OSM   H15A11814   2.086   0.227  11.656  0.3438 -0.6887  0.4276
  114OSM   H15B11815   1.916   0.225  11.681  0.3735 -0.2145 -2.0606
  114OSM   H15C11816   2.019   0.212  11.827 -3.0949  0.1160 -0.6096
  114OSM    C1411817   1.905   0.444  11.838 -0.2307  0.1931  0.2265
  114OSM   H14A11818   1.921   0.398  11.934  0.5224 -0.6308 -0.2760
  114OSM   H14B11819   1.813   0.402  11.801 -0.7423  1.0212  0.5629
  114OSM   H14C11820   1.896   0.550  11.854  1.0434  0.1244  1.4961
  114OSM    C1311821   2.143   0.440  11.821  0.1804  0.3794  0.0641
  114OSM   H13A11822   2.229   0.403  11.766 -0.5138 -2.6242  0.8782
  114OSM   H13B11823   2.154   0.410  11.924 -1.1272 -2.0259 -0.4524
  114OSM   H13C11824   2.145   0.548  11.819  2.8208  0.3774  0.2903
  114OSM    C1211825   2.017   0.487  11.622 -0.5790 -1.0524  0.0752
  114OSM   H12A11826   2.030   0.591  11.648 -0.1363 -0.6994 -1.5080
  114OSM   H12B11827   1.918   0.482  11.579 -0.1815 -0.8296 -0.8787
  114OSM    C1111828   2.121   0.453  11.514  0.2529 -0.1611  0.2080
  114OSM   H11A11829   2.091   0.505  11.420 -2.3982  0.3280  1.2728
  114OSM   H11B11830   2.111   0.343  11.501 -0.7591 -0.0440 -0.0161
  114OSM      P11831   2.268   0.661  11.558 -0.0128  0.6841  0.1793
  114OSM    O1311832   2.190   0.708  11.672  1.1893 -0.1567 -0.2269
  114OSM    O1411833   2.414   0.680  11.556  0.1655  0.0983  0.1936
  114OSM    O1111834   2.210   0.717  11.426  0.2985  0.9187  0.4337
  114OSM    O1211835   2.248   0.503  11.547  0.1159  0.0417 -0.2466
  114OSM    C1S11836   2.266   0.701  11.298  0.2585  0.5309 -0.1147
  114OSM    H1S11837   2.339   0.618  11.292  0.2019  0.3489  1.4835
  114OSM    H1T11838   2.313   0.798  11.271 -1.6010  1.8632  1.3068
  114OSM     NF11839   2.244   0.659  11.060  0.1303  0.5197  0.7126
  114OSM    HNF11840   2.266   0.741  11.007  0.3770  0.4053  0.6367
  114OSM    C2S11841   2.167   0.680  11.180  0.4488 -0.0773  0.0441
  114OSM    H2S11842   2.105   0.590  11.198 -1.1979  0.8867 -0.6486
  114OSM    C3S11843   2.073   0.808  11.186 -0.0510  0.5148  0.5919
  114OSM    H3S11844   2.144   0.892  11.173 -3.1273  2.9121 -1.5308
  114OSM     O311845   2.006   0.825  11.308 -0.3687  0.5394 -0.3202
  114OSM    HO311846   2.049   0.769  11.373  1.4280  2.4612  0.2123
  114OSM    C4S11847   1.965   0.795  11.074 -0.0272 -0.1732 -0.5857
  114OSM    H4S11848   1.879   0.732  11.103 -0.3716  0.7841  0.5000
  114OSM    C5S11849   1.962   0.872  10.966  0.0299 -0.3799  0.1081
  114OSM    H5S11850   2.043   0.944  10.948  0.7845 -1.1306  0.4585
  114OSM    C6S11851   1.856   0.865  10.856 -0.3037  0.0408  0.2777
  114OSM    H6S11852   1.820   0.970  10.844 -1.9245 -0.6457 -1.0337
  114OSM    H6T11853   1.772   0.800  10.889 -0.6073 -0.6089 -1.6681
  114OSM    C7S11854   1.904   0.827  10.714 -0.2918  0.6149  0.6152
  114OSM    H7S11855   1.971   0.743  10.742 -1.8280 -0.4711  1.1490
  114OSM    H7T11856   1.951   0.911  10.659  0.8661 -1.3136 -1.4009
  114OSM    C8S11857   1.807   0.763  10.611 -0.9913  0.2447 -0.3732
  114OSM    H8S11858   1.714   0.825  10.617 -0.5437  0.9882 -0.9699
  114OSM    H8T11859   1.776   0.658  10.629 -0.9048  0.5720  1.7665
  114OSM    C9S11860   1.874   0.765  10.468 -0.7139  0.1308 -0.1270
  114OSM    H9S11861   1.974   0.716  10.472 -0.6090  0.5037  4.1836
  114OSM    H9T11862   1.885   0.867  10.425  0.1735  0.1602  0.1591
  114OSM   C10S11863   1.787   0.692  10.364  0.1642  0.3418 -0.4711
  114OSM   H10S11864   1.691   0.749  10.366 -0.1626 -0.2092 -0.3558
  114OSM   H10T11865   1.774   0.584  10.386  1.5535  0.6261  1.8580
  114OSM   C11S11866   1.841   0.711  10.228  1.0456 -0.7388  0.0098
  114OSM   H11S11867   1.947   0.678  10.229  1.4208  0.4462  0.8632
  114OSM   H11T11868   1.845   0.817  10.193  0.0421  0.0579  2.2150
  114OSM   C12S11869   1.764   0.624  10.127 -0.5897  0.0367 -0.2513
  114OSM   H12S11870   1.654   0.633  10.142 -0.2497 -0.1305  2.7101
  114OSM   H12T11871   1.794   0.519  10.143 -1.0966 -0.1267 -0.3655
  114OSM   C13S11872   1.802   0.658   9.986  0.3750 -0.4806 -0.0799
  114OSM   H13S11873   1.912   0.641   9.976  0.1766 -1.7783 -0.1139
  114OSM   H13T11874   1.783   0.764   9.957 -1.3464 -1.2815 -1.9988
  114OSM   C14S11875   1.724   0.579   9.885  0.6406  0.3426 -0.8481
  114OSM   H14S11876   1.624   0.626   9.895  0.9601  0.5502  1.5858
  114OSM   H14T11877   1.706   0.471   9.909 -1.5430  1.0259  0.7775
  114OSM   C15S11878   1.772   0.591   9.742  0.0113 -0.9329  0.5812
  114OSM   H15S11879   1.882   0.578   9.736 -0.0137 -1.3001  0.9387
  114OSM   H15T11880   1.754   0.698   9.719 -0.1551 -0.3727  3.1095
  114OSM   C16S11881   1.713   0.507   9.629 -0.5292 -0.2491 -0.1245
  114OSM   H16S11882   1.603   0.522   9.625 -0.7746 -2.0663 -1.0237
  114OSM   H16T11883   1.734   0.398   9.641  0.8237  0.0903  0.6848
  114OSM   C17S11884   1.776   0.542   9.495  0.0994 -0.5300 -0.5208
  114OSM   H17S11885   1.880   0.504   9.490  0.1174 -0.6926  0.7742
  114OSM   H17T11886   1.778   0.651   9.473 -2.3944 -0.0478  1.3875
  114OSM   C18S11887   1.688   0.489   9.375 -0.1555  0.3337  0.0617
  114OSM   H18S11888   1.589   0.541   9.377  0.1065  0.9280 -1.2839
  114OSM   H18T11889   1.682   0.379   9.370  0.0689  0.3562 -0.8111
  114OSM   H18U11890   1.741   0.525   9.284 -0.4012  0.1504 -0.1563
  114OSM    C1F11891   2.311   0.548  11.031  0.8951  0.5618  0.4677
  114OSM     OF11892   2.299   0.442  11.092 -0.2281 -0.1107 -0.4729
  114OSM    C2F11893   2.385   0.568  10.897 -0.4268 -0.4057 -0.1066
  114OSM    H2F11894   2.406   0.466  10.858  0.5337  0.4275 -1.8490
  114OSM    H2G11895   2.486   0.603  10.924 -0.2929 -1.6988  1.1189
  114OSM    C3F11896   2.310   0.649  10.790  0.2387  0.3125  0.2649
  114OSM    H3F11897   2.318   0.758  10.813  0.5073  0.0528  1.4663
  114OSM    H3G11898   2.202   0.623  10.791  0.2438  0.2714 -0.1997
  114OSM    C4F11899   2.379   0.648  10.648  1.1108  0.2302 -0.4103
  114OSM    H4F11900   2.487   0.664  10.666  0.9036 -0.5163  1.5886
  114OSM    H4G11901   2.326   0.722  10.585  1.8776  2.1348  1.1280
  114OSM    C5F11902   2.370   0.502  10.589  1.1466  0.0472  0.6627
  114OSM    H5F11903   2.269   0.463  10.616  0.5472  0.3158 -1.0972
  114OSM    H5G11904   2.445   0.433  10.630 -0.2168 -1.4516  0.6902
  114OSM    C6F11905   2.386   0.502  10.436 -0.2140 -0.4807 -0.0622
  114OSM    H6F11906   2.400   0.397  10.405  1.5586  0.2992 -2.0202
  114OSM    H6G11907   2.485   0.551  10.425 -0.4045 -0.3774 -1.3841
  114OSM    C7F11908   2.269   0.566  10.355  0.2040  0.4863 -1.1767
  114OSM    H7F11909   2.269   0.675  10.379  0.2129  0.3370 -0.5091
  114OSM    H7G11910   2.168   0.525  10.378  1.5336 -1.7915  0.7746
  114OSM    C8F11911   2.290   0.553  10.200 -0.1505  0.4172  0.2254
  114OSM    H8F11912   2.396   0.578  10.181 -0.1350 -0.2786 -0.6547
  114OSM    H8G11913   2.220   0.629  10.159 -0.5831  0.2472  0.6441
  114OSM    C9F11914   2.258   0.409  10.153  0.0750  0.1217 -0.1429
  114OSM    H9F11915   2.241   0.345  10.240 -1.3335 -0.0222 -0.5098
  114OSM   C10F11916   2.221   0.366  10.030  0.4258  0.3902 -0.5639
  114OSM   H10F11917   2.198   0.261  10.008  1.0191 -0.4915  2.8573
  114OSM   C11F11918   2.206   0.451   9.905  0.0094 -0.0102 -0.3940
  114OSM   H11F11919   2.197   0.557   9.937  0.5569 -0.3798  1.0575
  114OSM   H11G11920   2.112   0.419   9.856  0.4320  0.2943 -1.4123
  114OSM   C12F11921   2.323   0.449   9.807 -0.3254 -0.2724 -1.6613
  114OSM   H12F11922   2.341   0.339   9.796  1.6746 -0.1665  0.1879
  114OSM   H12G11923   2.415   0.482   9.860  0.1203 -1.9750 -1.3390
  114OSM   C13F11924   2.314   0.523   9.676  0.4542  0.0402  0.2739
  114OSM   H13F11925   2.388   0.606   9.678 -1.8760  2.1849  0.4302
  114OSM   H13G11926   2.216   0.573   9.686 -0.2317 -1.3357  0.5370
  114OSM   C14F11927   2.329   0.432   9.555 -0.3760 -0.7678 -0.5474
  114OSM   H14F11928   2.249   0.355   9.546 -1.9088  0.7753 -0.3621
  114OSM   H14G11929   2.418   0.368   9.571 -0.0940 -0.2287  0.0437
  114OSM   C15F11930   2.350   0.507   9.419  0.0438 -0.3224  0.2672
  114OSM   H15F11931   2.383   0.429   9.346  1.1962  0.4302 -0.0357
  114OSM   H15G11932   2.426   0.587   9.429 -0.5340  0.1498  0.9163
  114OSM   C16F11933   2.225   0.565   9.348  0.7447  0.5151  0.1073
  114OSM   H16F11934   2.195   0.647   9.417  0.4130 -0.6450  1.3464
  114OSM   H16G11935   2.149   0.486   9.364  0.5304  0.6031 -0.4671
  114OSM   C17F11936   2.261   0.602   9.202  1.2526 -0.4870  0.0632
  114OSM   H17F11937   2.161   0.634   9.166  1.3224  0.1874  0.4765
  114OSM   H17G11938   2.292   0.508   9.151  0.8300 -0.0410 -1.0163
  114OSM   C18F11939   2.349   0.718   9.174  0.6850  0.2577  0.2794
  114OSM   H18F11940   2.455   0.706   9.208  0.1164  1.4471  2.5550
  114OSM   H18G11941   2.301   0.809   9.217 -0.9771 -1.0458  1.2026
  114OSM   H18H11942   2.359   0.747   9.067  2.8523  0.9287  0.6168
  115OSM      N11943   3.378   4.364   6.119 -0.0306 -0.2110 -1.0233
  115OSM    C1511944   3.495   4.285   6.171  0.5227  0.3246 -0.0853
  115OSM   H15A11945   3.535   4.325   6.263  1.3682 -0.7144  0.0115
  115OSM   H15B11946   3.577   4.275   6.101 -0.7869  2.1190 -1.9368
  115OSM   H15C11947   3.473   4.184   6.203 -1.1969  0.2620 -1.4214
  115OSM    C1411948   3.423   4.503   6.081  0.2106 -0.2432 -0.2417
  115OSM   H14A11949   3.343   4.576   6.077  1.0106  0.7322  1.1868
  115OSM   H14B11950   3.478   4.506   5.988  1.7411  0.9802  0.6971
  115OSM   H14C11951   3.491   4.546   6.153 -0.7858  0.2920  0.3871
  115OSM    C1311952   3.331   4.295   5.995 -0.9611 -0.2513  0.5128
  115OSM   H13A11953   3.261   4.367   5.954 -0.2170 -0.5207 -1.2549
  115OSM   H13B11954   3.295   4.194   6.007 -2.4945  0.1680 -0.4061
  115OSM   H13C11955   3.411   4.291   5.923 -2.0770  1.3575 -0.8643
  115OSM    C1211956   3.275   4.375   6.222  0.2885 -0.6560 -0.0389
  115OSM   H12A11957   3.184   4.422   6.188 -1.3469 -2.7161  1.3538
  115OSM   H12B11958   3.313   4.435   6.304 -0.7384  2.7233 -1.9208
  115OSM    C1111959   3.226   4.241   6.286  0.3238 -0.8968  0.0278
  115OSM   H11A11960   3.138   4.266   6.349 -0.4631 -1.6353 -0.7768
  115OSM   H11B11961   3.308   4.211   6.355  1.7201  1.9076 -0.3522
  115OSM      P11962   3.152   3.993   6.240  0.0568 -0.0780  0.4518
  115OSM    O1311963   3.054   3.948   6.134 -0.3283  0.1919 -0.2565
  115OSM    O1411964   3.277   3.920   6.250  0.5164  0.4233 -0.4294
  115OSM    O1111965   3.076   4.013   6.382 -0.2312  0.6252 -0.5751
  115OSM    O1211966   3.185   4.143   6.188 -0.1642 -0.3340 -0.7370
  115OSM    C1S11967   3.136   3.970   6.503  0.9619  0.3695  0.1298
  115OSM    H1S11968   3.239   4.012   6.502  0.7375  0.9855  1.3370
  115OSM    H1T11969   3.149   3.860   6.509 -1.4794  0.1014  1.1240
  115OSM     NF11970   3.135   3.995   6.746 -0.4266 -0.1961  0.0689
  115OSM    HNF11971   3.123   3.916   6.805 -0.8093 -0.6480 -0.5993
  115OSM    C2S11972   3.050   4.000   6.624 -0.3305  0.4389  0.9068
  115OSM    H2S11973   3.019   4.105   6.605  1.0574  0.2135 -2.9863
  115OSM    C3S11974   2.932   3.895   6.622 -0.7950 -0.1719  0.1646
  115OSM    H3S11975   2.968   3.789   6.618  0.9146  0.4144 -0.4106
  115OSM     O311976   2.866   3.880   6.500 -0.1495 -0.5196 -0.1113
  115OSM    HO311977   2.913   3.940   6.442 -1.0018 -0.5272 -0.8103
  115OSM    C4S11978   2.846   3.927   6.735  0.1263  0.6663 -0.3370
  115OSM    H4S11979   2.883   3.874   6.824  0.9817  0.5854 -0.7321
  115OSM    C5S11980   2.725   3.993   6.738 -0.5760 -0.6536 -0.0626
  115OSM    H5S11981   2.694   4.058   6.655 -0.9855  0.4941  0.9800
  115OSM    C6S11982   2.631   4.015   6.852 -0.1071  0.3602 -0.0275
  115OSM    H6S11983   2.536   3.963   6.827  0.8594 -2.9431  2.7018
  115OSM    H6T11984   2.620   4.125   6.864  0.6417  0.5337 -0.9266
  115OSM    C7S11985   2.679   3.974   6.992  0.0238  0.0017 -0.3914
  115OSM    H7S11986   2.611   4.023   7.065  2.1511  0.3449  1.4081
  115OSM    H7T11987   2.781   4.014   7.013 -0.0915 -0.0507  0.2611
  115OSM    C8S11988   2.682   3.820   7.024 -0.0083 -0.1910  0.0740
  115OSM    H8S11989   2.771   3.776   6.974  0.1235  1.4273 -1.1540
  115OSM    H8T11990   2.593   3.778   6.973 -0.3120 -0.4640  0.8167
  115OSM    C9S11991   2.663   3.778   7.175 -0.1115 -0.1154 -0.3028
  115OSM    H9S11992   2.709   3.858   7.236  0.3304  0.4958 -1.4234
  115OSM    H9T11993   2.720   3.685   7.190 -1.5278 -1.1357 -1.1034
  115OSM   C10S11994   2.520   3.761   7.214  0.5821 -0.1953 -0.2106
  115OSM   H10S11995   2.459   3.704   7.141  0.4906  0.1792 -0.4266
  115OSM   H10T11996   2.490   3.869   7.212  2.2913  0.4252  3.2521
  115OSM   C11S11997   2.489   3.699   7.350  0.2103  0.4205 -0.0907
  115OSM   H11S11998   2.542   3.763   7.424 -1.7742  1.4499  0.4792
  115OSM   H11T11999   2.537   3.600   7.362  0.8646  0.8575  0.9440
  115OSM   C12S12000   2.340   3.685   7.382  0.2155 -0.5714 -0.1101
  115OSM   H12S12001   2.292   3.614   7.311  0.0525  1.9682 -2.6555
  115OSM   H12T12002   2.299   3.787   7.365  1.8631 -0.1972 -2.0515
  115OSM   C13S12003   2.318   3.625   7.523 -0.7538  0.1717  0.3089
  115OSM   H13S12004   2.392   3.543   7.520 -0.4715  0.4569 -0.9487
  115OSM   H13T12005   2.213   3.594   7.539 -1.0295  0.9319 -0.0095
  115OSM   C14S12006   2.351   3.730   7.633 -0.1841 -0.0627 -0.0037
  115OSM   H14S12007   2.301   3.828   7.618 -0.4903 -0.3849 -1.1088
  115OSM   H14T12008   2.461   3.744   7.641  0.2549 -0.9754 -3.4556
  115OSM   C15S12009   2.292   3.690   7.768  0.5846 -0.1944  0.5178
  115OSM   H15S12010   2.329   3.588   7.793  0.8709 -1.1477 -3.5083
  115OSM   H15T12011   2.182   3.676   7.770 -0.0075  3.7100 -0.5142
  115OSM   C16S12012   2.321   3.791   7.887 -0.2491 -0.0814 -0.1524
  115OSM   H16S12013   2.273   3.884   7.849 -4.4855 -2.2245 -0.3727
  115OSM   H16T12014   2.431   3.800   7.897 -0.4797  0.9407  1.7252
  115OSM   C17S12015   2.267   3.738   8.018  0.2545 -0.8538 -0.0313
  115OSM   H17S12016   2.160   3.713   8.001 -0.3930  1.8823 -0.1487
  115OSM   H17T12017   2.277   3.819   8.093  0.0352 -0.7428 -0.1198
  115OSM   C18S12018   2.341   3.616   8.074  0.2604  0.2097  0.6226
  115OSM   H18S12019   2.320   3.600   8.182  0.5157  0.5553  0.7250
  115OSM   H18T12020   2.451   3.635   8.076  0.0517  1.5343 -0.0256
  115OSM   H18U12021   2.318   3.525   8.013 -0.4296  1.7063 -1.4023
  115OSM    C1F12022   3.218   4.093   6.794  0.9642 -0.0631  0.1469
  115OSM     OF12023   3.251   4.192   6.724 -0.5532 -0.5040 -0.0714
  115OSM    C2F12024   3.277   4.074   6.930  0.1226 -0.4041 -0.3197
  115OSM    H2F12025   3.301   3.969   6.957  0.2081 -0.5316 -0.8869
  115OSM    H2G12026   3.201   4.102   7.005 -0.4284 -1.2596 -0.5601
  115OSM    C3F12027   3.400   4.166   6.957 -0.1147  0.2469  0.4067
  115OSM    H3F12028   3.366   4.271   6.968  1.7047  0.8435  0.4898
  115OSM    H3G12029   3.461   4.155   6.865 -0.4618 -2.3784  0.4466
  115OSM    C4F12030   3.484   4.134   7.080  0.2871 -0.1308 -0.1957
  115OSM    H4F12031   3.571   4.203   7.079  0.0933  0.1460  1.1514
  115OSM    H4G12032   3.524   4.031   7.072 -0.7948 -0.5437 -0.3930
  115OSM    C5F12033   3.404   4.148   7.213 -0.1483 -0.1911 -0.6087
  115OSM    H5F12034   3.300   4.112   7.203  0.1933 -1.5097  0.4735
  115OSM    H5G12035   3.392   4.251   7.255  1.2513 -0.5026  0.6079
  115OSM    C6F12036   3.474   4.066   7.317 -1.0365  0.2015  0.4006
  115OSM    H6F12037   3.461   3.958   7.295  0.7075  0.1186 -0.2339
  115OSM    H6G12038   3.428   4.083   7.417 -2.8864 -0.3683 -0.3324
  115OSM    C7F12039   3.629   4.086   7.335  0.3077  0.5699 -0.6467
  115OSM    H7F12040   3.683   4.061   7.242  0.6250 -2.3967  0.2730
  115OSM    H7G12041   3.665   4.009   7.407  1.9735  0.7950 -1.2325
  115OSM    C8F12042   3.651   4.219   7.388  0.1224 -0.3614 -0.5812
  115OSM    H8F12043   3.593   4.237   7.480  1.8867  1.7683  0.1633
  115OSM    H8G12044   3.627   4.301   7.317 -1.4127  0.4902  0.8975
  115OSM    C9F12045   3.798   4.243   7.417 -0.4192 -0.9269 -0.7480
  115OSM    H9F12046   3.867   4.267   7.334  0.5124  0.0425  0.2869
  115OSM   C10F12047   3.856   4.242   7.541  0.2291  0.3100  0.3776
  115OSM   H10F12048   3.964   4.263   7.552  0.5722 -0.9109 -0.5609
  115OSM   C11F12049   3.783   4.235   7.667 -0.0337 -0.4712 -0.0712
  115OSM   H11F12050   3.679   4.274   7.660 -0.1748 -0.6270  1.0389
  115OSM   H11G12051   3.833   4.298   7.743 -2.4916 -0.3650  1.5287
  115OSM   C12F12052   3.766   4.089   7.714  0.6281  0.0810  0.4040
  115OSM   H12F12053   3.866   4.040   7.709 -0.4623 -2.1412 -0.4076
  115OSM   H12G12054   3.704   4.038   7.638  2.7250 -0.7399 -0.8179
  115OSM   C13F12055   3.724   4.063   7.857 -0.1982  0.1279  0.2589
  115OSM   H13F12056   3.794   4.103   7.934 -1.3062  2.0007  0.3251
  115OSM   H13G12057   3.719   3.953   7.863 -0.7422  0.0916 -0.7414
  115OSM   C14F12058   3.579   4.110   7.887 -0.1992 -0.2252 -0.7399
  115OSM   H14F12059   3.511   4.056   7.817 -1.3608  0.8614 -0.4758
  115OSM   H14G12060   3.581   4.217   7.857 -0.8835  0.1575  0.5236
  115OSM   C15F12061   3.557   4.086   8.032 -0.5526 -0.0915  0.2065
  115OSM   H15F12062   3.455   4.124   8.055 -1.4193 -2.1155 -0.1517
  115OSM   H15G12063   3.637   4.116   8.102  0.7891  0.0257 -1.3526
  115OSM   C16F12064   3.538   3.940   8.078  0.5901  0.5516  0.2509
  115OSM   H16F12065   3.620   3.880   8.034  0.7977  1.5954 -0.8238
  115OSM   H16G12066   3.447   3.895   8.034  1.4516  0.1224 -1.1327
  115OSM   C17F12067   3.544   3.922   8.229 -0.4403 -0.2815 -0.3750
  115OSM   H17F12068   3.480   3.991   8.287  0.1649  0.7327 -0.9024
  115OSM   H17G12069   3.650   3.941   8.255 -0.7823 -1.1326  1.7622
  115OSM   C18F12070   3.511   3.779   8.267  1.1580  0.1094 -0.0040
  115OSM   H18F12071   3.512   3.782   8.378 -0.1632 -0.8822  0.0475
  115OSM   H18G12072   3.584   3.710   8.220  0.9841  0.8271 -1.3499
  115OSM   H18H12073   3.408   3.752   8.235  0.0158  2.0282  1.8489
  116OSM      N12074   1.726   1.314   6.058 -0.3042 -0.2647 -0.8934
  116OSM    C1512075   1.641   1.196   6.014  0.7402 -0.4914  0.4625
  116OSM   H15A12076   1.539   1.212   6.046  1.3411  0.6263  1.8686
  116OSM   H15B12077   1.675   1.104   6.061  0.1282 -0.2694  1.3528
  116OSM   H15C12078   1.650   1.180   5.908  2.6525 -1.8714  0.8102
  116OSM    C1412079   1.857   1.294   5.997 -0.0456  0.4236  0.3601
  116OSM   H14A12080   1.910   1.202   6.018 -0.6554 -0.2782 -1.1134
  116OSM   H14B12081   1.918   1.377   6.030 -0.4223  1.2616 -1.0240
  116OSM   H14C12082   1.847   1.306   5.890  2.4413 -2.6755 -0.2838
  116OSM    C1312083   1.666   1.445   6.009  0.5735 -0.5077  0.2684
  116OSM   H13A12084   1.662   1.456   5.901  0.8927 -0.1098  0.2922
  116OSM   H13B12085   1.717   1.531   6.051  0.6608  0.2438 -1.3277
  116OSM   H13C12086   1.564   1.445   6.043 -1.2063  1.1531 -4.5309
  116OSM    C1212087   1.744   1.317   6.204 -0.7972 -0.6142 -0.5325
  116OSM   H12A12088   1.799   1.233   6.244 -0.1021  0.3851  0.6131
  116OSM   H12B12089   1.648   1.301   6.250 -0.3202 -0.9066  0.3714
  116OSM    C1112090   1.814   1.430   6.277  0.8792 -0.2790  0.4669
  116OSM   H11A12091   1.789   1.419   6.384  0.3117 -0.6361  0.2998
  116OSM   H11B12092   1.782   1.534   6.251  1.6977 -0.7016 -2.4659
  116OSM      P12093   2.061   1.519   6.242 -0.3167 -0.4036  0.1997
  116OSM    O1312094   2.198   1.460   6.233  0.8584  0.2371  0.0838
  116OSM    O1412095   2.010   1.611   6.142 -0.1182 -0.3988 -0.0484
  116OSM    O1112096   2.049   1.584   6.384  0.7381 -0.1939  0.4364
  116OSM    O1212097   1.954   1.406   6.256 -0.3347  0.2402 -0.7500
  116OSM    C1S12098   2.079   1.500   6.495 -0.6538 -1.2097  0.9018
  116OSM    H1S12099   2.183   1.464   6.490 -0.4397 -0.6005  0.9222
  116OSM    H1T12100   2.036   1.398   6.483 -0.9223 -0.9244 -0.5785
  116OSM     NF12101   2.100   1.487   6.730 -0.3331 -0.1711 -0.4259
  116OSM    HNF12102   2.041   1.414   6.764 -0.0811  0.5929  1.7156
  116OSM    C2S12103   2.040   1.560   6.627  0.1087 -0.3252 -0.3213
  116OSM    H2S12104   2.092   1.657   6.642  0.4329 -0.4609 -0.5556
  116OSM    C3S12105   1.884   1.576   6.645  0.5473 -0.1977  0.0389
  116OSM    H3S12106   1.859   1.468   6.644  2.1415 -0.5768  0.0497
  116OSM     O312107   1.803   1.640   6.538  0.3161 -0.4191 -0.5437
  116OSM    HO312108   1.871   1.654   6.472  0.7503 -0.4006 -0.1014
  116OSM    C4S12109   1.848   1.642   6.779  0.6181 -0.0571  0.5576
  116OSM    H4S12110   1.924   1.717   6.805  2.9565 -2.4336  0.8324
  116OSM    C5S12111   1.745   1.596   6.852  0.1290  0.0616  0.0121
  116OSM    H5S12112   1.687   1.510   6.817 -3.1497  2.7770 -1.5084
  116OSM    C6S12113   1.696   1.652   6.988  0.2036 -0.0316  0.7797
  116OSM    H6S12114   1.730   1.584   7.069  1.0684  1.0571  1.3527
  116OSM    H6T12115   1.585   1.646   6.993  0.0902  0.7598 -0.5933
  116OSM    C7S12116   1.735   1.796   7.022  0.1610 -0.2100 -0.1070
  116OSM    H7S12117   1.690   1.874   6.957 -0.7555 -0.5856  0.0716
  116OSM    H7T12118   1.845   1.809   7.008  0.1885  0.9718  1.0773
  116OSM    C8S12119   1.694   1.834   7.165 -0.4022  0.3916 -0.4929
  116OSM    H8S12120   1.751   1.927   7.184 -1.0928  0.2691  2.4909
  116OSM    H8T12121   1.739   1.762   7.238 -0.2683  1.7883  0.8199
  116OSM    C9S12122   1.550   1.847   7.196  0.5957 -0.0146 -0.0898
  116OSM    H9S12123   1.512   1.755   7.147  0.4842 -0.6646  1.2006
  116OSM    H9T12124   1.504   1.928   7.136 -0.5881 -0.5958  0.0380
  116OSM   C10S12125   1.506   1.847   7.343 -0.6211  0.1529 -0.3597
  116OSM   H10S12126   1.558   1.766   7.400  0.4223  0.1221 -1.3352
  116OSM   H10T12127   1.396   1.833   7.349 -0.2407 -4.3886 -1.9677
  116OSM   C11S12128   1.549   1.968   7.422  0.8031 -1.3730  0.2432
  116OSM   H11S12129   1.538   2.054   7.352 -0.2785  0.2685  2.3636
  116OSM   H11T12130   1.655   1.957   7.452  0.7155 -0.0429  1.1165
  116OSM   C12S12131   1.465   2.002   7.545 -0.4676  0.0489  0.8021
  116OSM   H12S12132   1.473   1.923   7.624 -0.1690 -0.5664  0.1597
  116OSM   H12T12133   1.356   2.003   7.525 -1.3060  1.0236  4.9106
  116OSM   C13S12134   1.505   2.145   7.610  0.3323  0.0093  0.0763
  116OSM   H13S12135   1.449   2.222   7.552 -0.4547 -0.8353 -0.3157
  116OSM   H13T12136   1.612   2.166   7.592  0.1061  2.4231  1.4160
  116OSM   C14S12137   1.470   2.143   7.759 -0.1514 -0.2604 -0.4839
  116OSM   H14S12138   1.549   2.079   7.804  1.5647  3.5249  2.1664
  116OSM   H14T12139   1.371   2.092   7.762 -0.3422  0.1526  0.5071
  116OSM   C15S12140   1.463   2.279   7.824  0.5260 -0.5690  0.1750
  116OSM   H15S12141   1.380   2.340   7.782  1.8745  1.8998  0.9866
  116OSM   H15T12142   1.563   2.326   7.811 -0.0952  0.3080 -1.5589
  116OSM   C16S12143   1.428   2.275   7.972 -1.0788 -0.1170 -0.2698
  116OSM   H16S12144   1.332   2.224   7.992 -0.1965 -1.0748  1.6192
  116OSM   H16T12145   1.423   2.378   8.014  2.3137  0.5159 -1.2868
  116OSM   C17S12146   1.531   2.202   8.053 -0.4745 -0.1854 -0.2696
  116OSM   H17S12147   1.632   2.236   8.023  0.4656 -1.8202  0.9325
  116OSM   H17T12148   1.523   2.092   8.036 -0.3173 -0.1098 -0.8560
  116OSM   C18S12149   1.513   2.217   8.203  0.5520  0.4303 -0.4955
  116OSM   H18S12150   1.579   2.153   8.265 -0.7042  0.0774  0.5069
  116OSM   H18T12151   1.413   2.189   8.243  0.0958 -0.2127 -2.0372
  116OSM   H18U12152   1.537   2.320   8.236 -0.6615  1.0874 -1.6144
  116OSM    C1F12153   2.228   1.470   6.745  0.2552  1.1424 -0.5947
  116OSM     OF12154   2.306   1.532   6.668 -0.4511 -0.8081  0.1901
  116OSM    C2F12155   2.278   1.372   6.845 -0.0162  0.6298  0.8829
  116OSM    H2F12156   2.378   1.332   6.819  0.1613  0.1807  2.1844
  116OSM    H2G12157   2.208   1.286   6.852  1.2593 -0.6973 -1.9449
  116OSM    C3F12158   2.311   1.448   6.987  1.0172 -0.9222  0.5646
  116OSM    H3F12159   2.212   1.492   7.010  0.1208 -1.8224 -1.4540
  116OSM    H3G12160   2.394   1.518   6.962  1.5784 -0.9313  2.3218
  116OSM    C4F12161   2.362   1.368   7.097  0.0706  0.4886 -0.1546
  116OSM    H4F12162   2.463   1.330   7.067 -1.5321 -2.3083 -2.2773
  116OSM    H4G12163   2.292   1.284   7.115  0.7222  0.6801  3.6759
  116OSM    C5F12164   2.378   1.441   7.234 -0.2111 -0.0541  0.2877
  116OSM    H5F12165   2.401   1.362   7.308 -1.1762 -0.1903  0.4488
  116OSM    H5G12166   2.286   1.491   7.271 -0.1272  0.9953 -0.8895
  116OSM    C6F12167   2.486   1.552   7.221 -0.5648 -0.7797  0.0817
  116OSM    H6F12168   2.443   1.635   7.161  1.2835  1.7869  2.1633
  116OSM    H6G12169   2.569   1.522   7.152  1.0374  1.1933  1.0973
  116OSM    C7F12170   2.536   1.605   7.355  0.3365 -0.0976 -0.4342
  116OSM    H7F12171   2.615   1.534   7.387  1.2110  1.5900  1.2090
  116OSM    H7G12172   2.453   1.620   7.428  0.8650  1.4228 -0.1237
  116OSM    C8F12173   2.594   1.745   7.345  0.3220  0.6653  0.2172
  116OSM    H8F12174   2.666   1.751   7.261 -1.5583  0.4275 -1.4404
  116OSM    H8G12175   2.646   1.749   7.443 -0.5966  0.0231  0.7336
  116OSM    C9F12176   2.490   1.855   7.322  0.4025 -0.3243  0.5413
  116OSM    H9F12177   2.455   1.866   7.218 -0.8913  1.5259  1.1439
  116OSM   C10F12178   2.446   1.946   7.409  0.1398 -0.5637 -0.2499
  116OSM   H10F12179   2.369   2.014   7.370 -0.4313 -1.9214 -1.5529
  116OSM   C11F12180   2.484   1.957   7.558 -0.0023 -0.3168  0.4877
  116OSM   H11F12181   2.534   2.053   7.583  0.9282  0.0890 -2.6964
  116OSM   H11G12182   2.552   1.877   7.594  0.6008  1.1182  2.5869
  116OSM   C12F12183   2.366   1.948   7.656  0.6162 -0.5138 -0.7617
  116OSM   H12F12184   2.331   1.843   7.648  1.2137 -0.7649 -0.1522
  116OSM   H12G12185   2.288   2.023   7.632  1.7745  1.3108  0.9658
  116OSM   C13F12186   2.395   1.970   7.808  0.2927  0.0317 -0.7011
  116OSM   H13F12187   2.301   2.008   7.854 -0.3495 -0.1240 -1.8623
  116OSM   H13G12188   2.477   2.044   7.819 -1.1149  1.5110  0.1395
  116OSM   C14F12189   2.438   1.832   7.862 -0.2561 -0.3686  0.7037
  116OSM   H14F12190   2.528   1.803   7.803 -0.8376 -0.6289 -0.0727
  116OSM   H14G12191   2.352   1.766   7.838 -1.1542  0.3448  1.9179
  116OSM   C15F12192   2.466   1.832   8.012 -0.9237  0.6127  0.4426
  116OSM   H15F12193   2.545   1.905   8.039  1.5208 -1.3619 -1.2572
  116OSM   H15G12194   2.499   1.729   8.035  0.8124  1.0121 -0.1754
  116OSM   C16F12195   2.349   1.857   8.109  0.2820  0.1460  0.7482
  116OSM   H16F12196   2.271   1.786   8.074 -0.8192  0.7889  1.8736
  116OSM   H16G12197   2.302   1.956   8.093 -0.4746 -0.2450  0.5657
  116OSM   C17F12198   2.383   1.820   8.253 -0.4657 -0.5465  0.4988
  116OSM   H17F12199   2.405   1.714   8.280  0.4879 -0.9482 -1.7623
  116OSM   H17G12200   2.302   1.859   8.319  0.4110  1.2746  0.5291
  116OSM   C18F12201   2.505   1.898   8.308 -0.1703  0.2172  0.2273
  116OSM   H18F12202   2.594   1.846   8.266 -0.7534 -0.7020  0.1164
  116OSM   H18G12203   2.526   1.892   8.417  0.4642  0.8089  0.1405
  116OSM   H18H12204   2.499   2.004   8.274 -0.5153  0.7127  1.8009
  117OSM      N12205   0.600   4.056   6.138  0.0833  0.5205  0.1072
  117OSM    C1512206   0.513   3.963   6.062  0.0130  0.3554  0.5246
  117OSM   H15A12207   0.473   4.009   5.973 -0.0418 -0.5463  0.0740
  117OSM   H15B12208   0.439   3.931   6.133  2.7546 -1.9064  2.5153
  117OSM   H15C12209   0.569   3.875   6.033 -0.6531 -1.3265  4.1044
  117OSM    C1412210   0.708   4.107   6.048  0.0388  0.1212 -0.3711
  117OSM   H14A12211   0.782   4.175   6.086  0.3876 -1.3499  1.6510
  117OSM   H14B12212   0.662   4.144   5.957 -1.9227 -0.7189  0.2440
  117OSM   H14C12213   0.766   4.027   6.005  0.3984  1.8096 -3.1556
  117OSM    C1312214   0.522   4.166   6.194 -0.0530 -0.6001  0.1142
  117OSM   H13A12215   0.486   4.233   6.118 -1.2344 -1.0092  0.3097
  117OSM   H13B12216   0.577   4.222   6.269 -0.6351 -0.1107  0.1718
  117OSM   H13C12217   0.437   4.118   6.239 -1.4282 -0.0369 -1.8482
  117OSM    C1212218   0.676   3.989   6.249  0.2970  0.5126 -0.3225
  117OSM   H12A12219   0.740   4.060   6.300  0.2593  0.0745  0.3460
  117OSM   H12B12220   0.747   3.916   6.211  3.0283  1.7653  2.1282
  117OSM    C1112221   0.592   3.893   6.346 -0.0183  0.1734 -0.2964
  117OSM   H11A12222   0.497   3.942   6.374  0.4291  0.0243  1.5259
  117OSM   H11B12223   0.663   3.886   6.431  0.7620  1.5153 -0.8298
  117OSM      P12224   0.527   3.644   6.356  0.3855  0.0521  0.5607
  117OSM    O1312225   0.440   3.560   6.271 -0.2252  0.1212  0.4163
  117OSM    O1412226   0.651   3.579   6.393  0.0818 -0.1295 -0.3594
  117OSM    O1112227   0.438   3.691   6.479 -0.3169  0.4831 -0.2490
  117OSM    O1212228   0.564   3.773   6.278  0.3477 -0.1531 -0.6563
  117OSM    C1S12229   0.412   3.597   6.582  0.4030 -0.1336 -0.1035
  117OSM    H1S12230   0.508   3.570   6.631 -0.3548 -2.7466 -0.0046
  117OSM    H1T12231   0.363   3.504   6.546 -0.6981  0.4816 -0.2036
  117OSM     NF12232   0.303   3.566   6.801  0.3012  0.0538  0.0100
  117OSM    HNF12233   0.216   3.518   6.812  0.5942 -0.7901 -1.2429
  117OSM    C2S12234   0.319   3.658   6.691  0.1003  0.3924  0.4228
  117OSM    H2S12235   0.375   3.745   6.730  1.6393 -0.8234  1.0033
  117OSM    C3S12236   0.188   3.719   6.627 -0.0763 -0.3359  0.9728
  117OSM    H3S12237   0.135   3.644   6.564 -1.1628  1.9934 -0.9290
  117OSM     O312238   0.209   3.816   6.527  0.4947  0.1719  0.9048
  117OSM    HO312239   0.298   3.801   6.495 -0.0753 -0.0180 -0.6301
  117OSM    C4S12240   0.098   3.774   6.730 -0.2034 -0.6106 -0.4998
  117OSM    H4S12241   0.024   3.701   6.763  1.6845 -2.0415  0.6595
  117OSM    C5S12242   0.107   3.900   6.774  0.3379 -0.5284  0.3572
  117OSM    H5S12243   0.185   3.970   6.740  0.0562  0.2363  1.2565
  117OSM    C6S12244   0.014   3.947   6.891  0.2899 -0.6642  0.7457
  117OSM    H6S12245  -0.082   3.941   6.836 -1.5276  1.1231  3.5821
  117OSM    H6T12246   0.038   4.053   6.911 -0.3229 -0.4137  0.1421
  117OSM    C7S12247   0.009   3.852   7.015 -0.7121  0.0047 -0.1033
  117OSM    H7S12248   0.001   3.745   6.986 -1.3250 -0.6196  2.2760
  117OSM    H7T12249  -0.080   3.873   7.078 -0.8197  0.3415 -0.3655
  117OSM    C8S12250   0.128   3.858   7.114  0.8421 -0.8393  0.1602
  117OSM    H8S12251   0.142   3.951   7.173  1.4004 -0.2465 -0.8998
  117OSM    H8T12252   0.209   3.836   7.042 -0.2783 -0.6940 -1.1709
  117OSM    C9S12253   0.137   3.734   7.210 -0.7074 -0.0931  0.4744
  117OSM    H9S12254   0.122   3.650   7.138 -0.6722  0.8217 -0.6202
  117OSM    H9T12255   0.056   3.714   7.282 -0.4316 -0.4038  0.7004
  117OSM   C10S12256   0.271   3.727   7.276  0.5628  0.8670 -0.4221
  117OSM   H10S12257   0.311   3.828   7.298  2.2871  0.3963 -1.3011
  117OSM   H10T12258   0.347   3.685   7.207  1.2019  0.4317  0.5323
  117OSM   C11S12259   0.256   3.664   7.415 -0.2594 -0.0838 -1.0068
  117OSM   H11S12260   0.233   3.555   7.414  0.4700 -0.2474 -0.0905
  117OSM   H11T12261   0.175   3.717   7.468 -0.6732 -1.7809  0.1113
  117OSM   C12S12262   0.390   3.674   7.503 -0.3695  0.1165  0.0473
  117OSM   H12S12263   0.415   3.782   7.497 -1.2768  0.2868 -0.9253
  117OSM   H12T12264   0.473   3.627   7.446 -0.6073  1.9794 -1.9081
  117OSM   C13S12265   0.364   3.622   7.645 -0.0340  0.1755  0.0820
  117OSM   H13S12266   0.296   3.535   7.638 -0.8508  0.5557  2.6092
  117OSM   H13T12267   0.311   3.693   7.712 -0.3939 -0.0446  0.0301
  117OSM   C14S12268   0.489   3.582   7.718 -0.1491  0.0652  0.5167
  117OSM   H14S12269   0.555   3.670   7.730 -0.6860  0.7501 -1.3450
  117OSM   H14T12270   0.551   3.510   7.661 -0.5728 -1.0820  1.4721
  117OSM   C15S12271   0.473   3.531   7.862 -0.0195 -0.0647  0.4007
  117OSM   H15S12272   0.530   3.436   7.870  1.0290  0.1636 -3.3930
  117OSM   H15T12273   0.367   3.511   7.889 -0.1368 -1.1936 -0.8087
  117OSM   C16S12274   0.520   3.621   7.981  0.6676 -0.2572 -0.1607
  117OSM   H16S12275   0.482   3.724   7.967 -1.9489 -1.0957  0.2937
  117OSM   H16T12276   0.629   3.624   7.999  0.5526 -0.8885  0.6957
  117OSM   C17S12277   0.456   3.559   8.113  0.0366 -1.4122  0.2388
  117OSM   H17S12278   0.346   3.578   8.110  0.7519  3.5035  1.3027
  117OSM   H17T12279   0.495   3.615   8.201 -0.5027 -1.0093  0.2307
  117OSM   C18S12280   0.478   3.408   8.135 -0.6464 -0.1842  0.4413
  117OSM   H18S12281   0.446   3.375   8.237 -0.8828 -1.2346  0.0378
  117OSM   H18T12282   0.587   3.397   8.118 -0.6929 -0.2929  0.2110
  117OSM   H18U12283   0.422   3.350   8.059  1.1257 -1.0556 -0.2220
  117OSM    C1F12284   0.409   3.543   6.883  0.2692 -0.3803 -0.7613
  117OSM     OF12285   0.509   3.605   6.883 -0.2196  0.0851 -0.4967
  117OSM    C2F12286   0.382   3.442   6.987 -0.0302  0.0976 -0.5743
  117OSM    H2F12287   0.278   3.402   6.979  0.8175 -2.3285  0.2249
  117OSM    H2G12288   0.397   3.483   7.089  2.0310 -5.3152  1.4541
  117OSM    C3F12289   0.475   3.323   6.974 -0.3049  0.0875 -0.0231
  117OSM    H3F12290   0.578   3.361   6.983  0.4870 -2.1249  0.6958
  117OSM    H3G12291   0.468   3.280   6.872 -3.7579 -0.2961  0.2938
  117OSM    C4F12292   0.458   3.195   7.063 -0.4551  1.0541 -0.0500
  117OSM    H4F12293   0.521   3.112   7.024 -1.9214 -0.3216  0.4891
  117OSM    H4G12294   0.351   3.169   7.054 -0.1098  0.8006 -4.6447
  117OSM    C5F12295   0.495   3.230   7.207  0.1586  0.0849 -0.3371
  117OSM    H5F12296   0.469   3.141   7.268 -1.2915  1.3716  0.9956
  117OSM    H5G12297   0.423   3.307   7.243  1.2446  0.3191  1.3783
  117OSM    C6F12298   0.645   3.263   7.228 -0.0524  0.1391  1.2592
  117OSM    H6F12299   0.652   3.373   7.241 -2.0985  0.5610 -0.9837
  117OSM    H6G12300   0.698   3.227   7.138 -1.0350 -0.1265  0.7822
  117OSM    C7F12301   0.708   3.198   7.355  0.0345 -0.4453 -0.3464
  117OSM    H7F12302   0.817   3.184   7.340 -0.2978 -1.3668 -2.0739
  117OSM    H7G12303   0.666   3.098   7.379  0.7534 -0.7848 -0.5036
  117OSM    C8F12304   0.699   3.269   7.492  0.6180  0.1491  0.1414
  117OSM    H8F12305   0.740   3.372   7.491 -0.4183  0.5676 -0.5184
  117OSM    H8G12306   0.760   3.209   7.562  0.1470  1.0905  1.3759
  117OSM    C9F12307   0.553   3.278   7.534  0.2761  0.5550  0.5255
  117OSM    H9F12308   0.508   3.377   7.521  0.9311  0.6159 -1.4672
  117OSM   C10F12309   0.487   3.169   7.582  0.9209  1.0646  0.3619
  117OSM   H10F12310   0.379   3.187   7.598  0.3949 -1.3431 -0.2417
  117OSM   C11F12311   0.544   3.035   7.618  0.1687  0.2137 -0.6093
  117OSM   H11F12312   0.650   3.038   7.585  0.5939 -1.4903  0.5177
  117OSM   H11G12313   0.486   2.950   7.575 -0.5536  0.7633 -0.7322
  117OSM   C12F12314   0.539   3.009   7.771 -0.2626  1.0576  0.0760
  117OSM   H12F12315   0.568   2.902   7.785 -1.1856  0.9111  0.9510
  117OSM   H12G12316   0.436   3.008   7.814 -0.3337  3.1802  0.0117
  117OSM   C13F12317   0.642   3.096   7.841  0.3826 -0.0842 -0.0913
  117OSM   H13F12318   0.625   3.201   7.810  0.5878 -0.9912 -3.5139
  117OSM   H13G12319   0.743   3.068   7.803 -0.2578  0.6744 -2.4765
  117OSM   C14F12320   0.632   3.085   7.991  0.7685  0.6946 -0.4708
  117OSM   H14F12321   0.541   3.142   8.021 -0.4908 -1.1586 -0.6896
  117OSM   H14G12322   0.717   3.120   8.053  1.7305  0.4328 -1.6182
  117OSM   C15F12323   0.603   2.946   8.048  0.7114  0.4120  0.8052
  117OSM   H15F12324   0.655   2.864   7.993 -1.4781 -1.7798  1.8960
  117OSM   H15G12325   0.503   2.911   8.015  0.7599  2.0042 -1.1435
  117OSM   C16F12326   0.608   2.925   8.197 -0.3485 -0.0987  0.2678
  117OSM   H16F12327   0.549   3.005   8.248  1.1431  1.1193  0.1046
  117OSM   H16G12328   0.714   2.932   8.227  0.0437 -0.4746 -1.0171
  117OSM   C17F12329   0.550   2.785   8.231  0.7347  0.4678  0.0812
  117OSM   H17F12330   0.452   2.776   8.180  1.8742 -0.9132 -1.9270
  117OSM   H17G12331   0.615   2.710   8.181  0.4897  1.0028 -1.0542
  117OSM   C18F12332   0.544   2.745   8.375  0.4508  0.6795 -0.9658
  117OSM   H18F12333   0.529   2.637   8.392  2.9165  0.1856 -1.8024
  117OSM   H18G12334   0.472   2.815   8.424 -1.9187 -2.7251  0.5513
  117OSM   H18H12335   0.638   2.766   8.430  0.0910  0.1803 -0.1483
  118OSM      N12336   2.968   5.499   5.941  0.5031  0.0983 -0.5912
  118OSM    C1512337   3.013   5.577   6.063  0.4485 -0.8759 -0.0656
  118OSM   H15A12338   3.119   5.570   6.084  0.5081 -0.6919 -0.3209
  118OSM   H15B12339   2.965   5.538   6.152 -2.0820  2.2011  0.0091
  118OSM   H15C12340   2.990   5.682   6.058 -1.3439 -1.2705 -0.4427
  118OSM    C1412341   3.054   5.574   5.833 -0.2762  0.4556 -0.2999
  118OSM   H14A12342   3.034   5.535   5.734 -2.1186  0.5805 -0.0029
  118OSM   H14B12343   3.158   5.564   5.859 -0.7006 -0.1074  1.2624
  118OSM   H14C12344   3.031   5.680   5.834 -0.3479  0.4426 -0.7219
  118OSM    C1312345   3.018   5.352   5.945  0.1010  0.3926 -0.2323
  118OSM   H13A12346   3.124   5.350   5.963  0.1149  0.5436 -0.2993
  118OSM   H13B12347   2.989   5.299   5.855 -0.2026  0.8027 -0.3757
  118OSM   H13C12348   2.967   5.298   6.023 -1.3071 -2.0048 -2.6991
  118OSM    C1212349   2.820   5.508   5.925 -0.3012 -0.2274 -0.2300
  118OSM   H12A12350   2.783   5.474   5.829  0.0908  0.8576 -0.7755
  118OSM   H12B12351   2.796   5.613   5.931  0.2428 -0.0449 -1.1011
  118OSM    C1112352   2.736   5.425   6.029 -0.2385  0.2993 -0.1845
  118OSM   H11A12353   2.761   5.318   6.012  3.2738  0.9943  0.3446
  118OSM   H11B12354   2.627   5.429   6.008 -0.3366  0.0793  0.2680
  118OSM      P12355   2.708   5.601   6.220  0.2686  0.1047  0.3444
  118OSM    O1312356   2.736   5.708   6.118  0.2517 -0.0670 -0.6284
  118OSM    O1412357   2.568   5.593   6.269 -0.0994 -0.2575 -0.0616
  118OSM    O1112358   2.803   5.623   6.345 -0.4637  0.3902 -0.2322
  118OSM    O1212359   2.752   5.462   6.163  0.2930 -0.0775  0.5893
  118OSM    C1S12360   2.839   5.500   6.420 -0.3510 -0.7759  0.2307
  118OSM    H1S12361   2.893   5.429   6.354 -0.0562 -0.3853  0.0513
  118OSM    H1T12362   2.746   5.446   6.449 -1.2520  0.5752 -0.0643
  118OSM     NF12363   2.981   5.435   6.602  0.1470  0.1501 -0.2451
  118OSM    HNF12364   2.953   5.406   6.693 -2.5392 -0.7581 -1.3170
  118OSM    C2S12365   2.917   5.546   6.542 -0.4132 -0.1594  0.2171
  118OSM    H2S12366   3.002   5.611   6.512  0.1005 -1.6056 -1.5457
  118OSM    C3S12367   2.817   5.622   6.643  0.3260 -0.4451 -0.0500
  118OSM    H3S12368   2.732   5.551   6.650  0.4324 -0.4966  0.7406
  118OSM     O312369   2.744   5.735   6.592  0.3171 -0.4809 -0.0780
  118OSM    HO312370   2.735   5.716   6.499 -0.0294 -1.3185  0.1292
  118OSM    C4S12371   2.887   5.661   6.768 -0.8361 -0.0821 -0.0156
  118OSM    H4S12372   2.886   5.587   6.850  1.3800 -0.3215 -0.1787
  118OSM    C5S12373   2.951   5.781   6.789 -0.6047  0.1585 -0.2418
  118OSM    H5S12374   2.953   5.856   6.709  0.2025 -0.0378 -0.4095
  118OSM    C6S12375   3.022   5.829   6.917 -0.1852  0.2405  0.3940
  118OSM    H6S12376   2.997   5.936   6.934 -0.5221 -0.3606  4.1116
  118OSM    H6T12377   3.133   5.826   6.912  0.0885  3.1209  3.2516
  118OSM    C7S12378   3.004   5.756   7.052  0.0254 -0.3979  0.3639
  118OSM    H7S12379   3.009   5.645   7.044 -2.3890 -0.4715 -0.5825
  118OSM    H7T12380   2.900   5.762   7.091  0.2282 -0.8149  0.9795
  118OSM    C8S12381   3.089   5.804   7.163  0.0157 -0.3184  1.0088
  118OSM    H8S12382   3.136   5.900   7.133 -2.1487  0.8330  1.2168
  118OSM    H8T12383   3.177   5.735   7.167  0.3313  0.1762  2.8540
  118OSM    C9S12384   3.025   5.801   7.308 -0.9234 -0.1705  0.7623
  118OSM    H9S12385   3.104   5.767   7.378 -0.4319 -0.2730  0.1608
  118OSM    H9T12386   2.938   5.732   7.314 -0.5477 -0.9654 -2.1238
  118OSM   C10S12387   2.979   5.943   7.361  0.6568  0.3204  0.1612
  118OSM   H10S12388   2.887   5.968   7.304  0.7591 -2.6446 -1.3888
  118OSM   H10T12389   3.062   6.013   7.341  0.9112  0.2003  0.7769
  118OSM   C11S12390   2.952   5.940   7.514 -0.8398  0.7007 -0.2938
  118OSM   H11S12391   2.900   5.846   7.543  3.2836 -0.8894  2.3420
  118OSM   H11T12392   2.871   6.014   7.531 -1.3070  0.7805 -2.7378
  118OSM   C12S12393   3.087   5.966   7.588 -0.2889 -0.0619 -0.3093
  118OSM   H12S12394   3.134   6.059   7.549  2.1416 -1.3247 -0.4992
  118OSM   H12T12395   3.161   5.884   7.575  1.6172  1.4431  0.7463
  118OSM   C13S12396   3.062   5.975   7.738  0.6536 -0.0139 -0.7399
  118OSM   H13S12397   2.972   5.918   7.767  1.1724 -0.7215 -0.5033
  118OSM   H13T12398   3.035   6.080   7.761  0.0503 -0.4550  0.5990
  118OSM   C14S12399   3.194   5.948   7.822 -0.0045  0.6397 -0.0033
  118OSM   H14S12400   3.282   5.988   7.768 -2.2271  0.3184 -4.1227
  118OSM   H14T12401   3.200   5.837   7.832 -1.8623  0.6266  1.2711
  118OSM   C15S12402   3.194   5.996   7.971  0.1368  0.2188  0.9882
  118OSM   H15S12403   3.105   5.966   8.030 -1.2532  1.1302 -0.5768
  118OSM   H15T12404   3.204   6.106   7.971 -0.2463  0.2568  2.4679
  118OSM   C16S12405   3.313   5.935   8.050 -0.3379 -0.3199  0.5399
  118OSM   H16S12406   3.297   5.826   8.060 -1.7750 -0.2262 -0.5757
  118OSM   H16T12407   3.303   5.986   8.148  3.7592 -0.9927  1.4040
  118OSM   C17S12408   3.447   5.960   7.971  0.5089  0.6043 -0.2914
  118OSM   H17S12409   3.456   6.070   7.958  2.4287  0.3705 -1.2373
  118OSM   H17T12410   3.446   5.913   7.870  0.2595 -0.3037  0.1251
  118OSM   C18S12411   3.571   5.905   8.046 -0.0191 -0.2502 -0.7879
  118OSM   H18S12412   3.566   5.796   8.029 -2.0147 -0.3131  0.1633
  118OSM   H18T12413   3.575   5.950   8.147 -1.9446  1.3149 -1.3758
  118OSM   H18U12414   3.664   5.933   7.991 -0.5304 -0.4627 -1.7814
  118OSM    C1F12415   3.079   5.366   6.535  0.4792 -0.1622 -1.0171
  118OSM     OF12416   3.124   5.404   6.426  0.0384  0.5468  0.4837
  118OSM    C2F12417   3.145   5.254   6.607  0.0700 -0.2727 -0.4446
  118OSM    H2F12418   3.253   5.278   6.604  0.2680 -1.0908 -0.0182
  118OSM    H2G12419   3.139   5.158   6.551 -2.0480 -0.6224  0.3321
  118OSM    C3F12420   3.098   5.233   6.754 -0.0600 -0.2916  0.9805
  118OSM    H3F12421   2.997   5.186   6.760  0.1749 -0.8102  0.9572
  118OSM    H3G12422   3.092   5.329   6.808 -0.9664 -0.8688  1.9296
  118OSM    C4F12423   3.200   5.139   6.838 -0.1912 -0.4482 -0.4459
  118OSM    H4F12424   3.297   5.191   6.827 -1.3288  1.9232  0.5565
  118OSM    H4G12425   3.191   5.035   6.798 -2.9457 -0.4690  0.1142
  118OSM    C5F12426   3.163   5.143   6.991  0.0759  0.5020 -0.3566
  118OSM    H5F12427   3.071   5.081   6.999  0.6324  0.0082  2.6105
  118OSM    H5G12428   3.152   5.251   7.014  0.8302  0.6029 -0.4651
  118OSM    C6F12429   3.276   5.094   7.082 -0.1903  0.1015  0.3316
  118OSM    H6F12430   3.374   5.125   7.040 -1.9906  1.0448 -3.3785
  118OSM    H6G12431   3.281   4.983   7.077  0.7192  0.1565 -0.0266
  118OSM    C7F12432   3.243   5.138   7.226  0.3022  0.3156  0.6387
  118OSM    H7F12433   3.158   5.080   7.267 -0.9308  2.0475  0.6162
  118OSM    H7G12434   3.198   5.238   7.207 -2.2080 -0.8724  0.0630
  118OSM    C8F12435   3.353   5.153   7.326  0.4651  0.1845 -0.0674
  118OSM    H8F12436   3.324   5.216   7.413 -0.9265 -0.4107 -0.0831
  118OSM    H8G12437   3.433   5.214   7.279  1.4155 -1.1054 -0.1463
  118OSM    C9F12438   3.411   5.023   7.368 -0.5059 -0.2542  0.0651
  118OSM    H9F12439   3.446   4.964   7.282  1.2045 -1.7043  1.7207
  118OSM   C10F12440   3.455   4.990   7.486  0.2551 -0.8009  0.6013
  118OSM   H10F12441   3.494   4.891   7.514  2.9010 -0.1615 -0.6425
  118OSM   C11F12442   3.438   5.079   7.609 -0.0791  0.1118 -0.4876
  118OSM   H11F12443   3.337   5.054   7.648  0.3620 -0.1150  0.5240
  118OSM   H11G12444   3.442   5.186   7.579  0.7642 -0.4387 -2.4155
  118OSM   C12F12445   3.541   5.047   7.714 -0.4176 -0.0577 -0.4164
  118OSM   H12F12446   3.641   5.060   7.667  0.1930  0.8948  1.1255
  118OSM   H12G12447   3.530   4.938   7.732  2.7817 -0.4055 -0.3863
  118OSM   C13F12448   3.520   5.116   7.846  0.2349  0.0102 -0.6344
  118OSM   H13F12449   3.412   5.141   7.860 -0.3007 -1.1155 -2.6810
  118OSM   H13G12450   3.576   5.212   7.854 -0.9593  0.7403 -0.9190
  118OSM   C14F12451   3.573   5.023   7.962  0.0324  0.0379  0.7536
  118OSM   H14F12452   3.538   4.922   7.932  0.1604  1.0140 -2.8694
  118OSM   H14G12453   3.534   5.059   8.059 -2.4680  0.0986 -0.2580
  118OSM   C15F12454   3.727   5.033   7.970  0.3343  0.2011 -0.5748
  118OSM   H15F12455   3.734   5.138   8.004  1.8402  0.2295 -0.9115
  118OSM   H15G12456   3.775   5.012   7.872 -0.5343  1.3628 -1.2513
  118OSM   C16F12457   3.782   4.950   8.093 -0.0251  0.4386  0.4561
  118OSM   H16F12458   3.820   4.853   8.055 -1.5262 -0.0450  0.1709
  118OSM   H16G12459   3.696   4.922   8.158 -0.6650  1.1009 -0.0908
  118OSM   C17F12460   3.881   5.022   8.187 -0.1840 -0.2308  0.0659
  118OSM   H17F12461   3.928   4.946   8.255 -0.9734 -0.2613  0.5818
  118OSM   H17G12462   3.818   5.088   8.250  1.9051  1.2492  0.6484
  118OSM   C18F12463   3.979   5.109   8.117 -0.0266 -0.0224  0.2082
  118OSM   H18F12464   4.064   5.135   8.183  0.0544 -2.9474  1.3386
  118OSM   H18G12465   3.936   5.199   8.069 -0.9390  0.2466  1.5096
  118OSM   H18H12466   4.030   5.047   8.041  1.4811  0.1547  1.0607
  119OSM      N12467   4.958   4.678   6.164 -0.1798  0.2830  0.5691
  119OSM    C1512468   5.061   4.779   6.112 -0.5755  0.4273  0.2716
  119OSM   H15A12469   5.030   4.881   6.129  0.3352  1.0562 -1.6959
  119OSM   H15B12470   5.050   4.771   6.005 -0.0889 -1.3734  0.3505
  119OSM   H15C12471   5.166   4.760   6.126 -0.4334  2.2271  1.9314
  119OSM    C1412472   4.974   4.553   6.082  0.0587  0.8524 -0.9205
  119OSM   H14A12473   4.900   4.477   6.101  0.7529 -0.1113 -1.9841
  119OSM   H14B12474   5.067   4.500   6.102 -0.7126  0.1634  0.9338
  119OSM   H14C12475   4.971   4.572   5.976 -1.0282 -0.0602 -1.0573
  119OSM    C1312476   4.985   4.634   6.303 -0.3271 -0.0199  0.1464
  119OSM   H13A12477   4.914   4.557   6.329 -2.0882  2.6880  4.0957
  119OSM   H13B12478   4.966   4.721   6.365  1.9320  1.1262 -0.7099
  119OSM   H13C12479   5.085   4.597   6.318  0.1775  1.5390  0.7928
  119OSM    C1212480   4.816   4.734   6.145  0.6648  0.9661  0.4331
  119OSM   H12A12481   4.807   4.826   6.201 -2.1605  0.4542  0.8747
  119OSM   H12B12482   4.744   4.678   6.202  1.2531  0.4311  0.6584
  119OSM    C1112483   4.767   4.761   6.001 -0.9157 -0.3151 -0.3882
  119OSM   H11A12484   4.656   4.771   6.002 -0.7669  1.4888  1.7230
  119OSM   H11B12485   4.800   4.681   5.931 -0.1307  1.0543 -1.6140
  119OSM      P12486   4.771   5.020   5.982 -0.1052  0.2058  0.0606
  119OSM    O1312487   4.883   5.112   5.989 -0.7008 -0.4457 -0.4856
  119OSM    O1412488   4.659   5.052   5.895  0.4782  0.7387 -0.0236
  119OSM    O1112489   4.708   5.007   6.121  0.4525  0.0424  0.2480
  119OSM    O1212490   4.820   4.883   5.942 -0.5234 -0.0016 -0.3047
  119OSM    C1S12491   4.582   5.044   6.173  0.3954  0.2463 -0.0182
  119OSM    H1S12492   4.515   4.976   6.116  0.8878  0.5223 -0.9306
  119OSM    H1T12493   4.548   5.147   6.152  0.4687  0.0280 -1.2644
  119OSM     NF12494   4.434   5.073   6.359  0.1529 -0.7827 -0.2013
  119OSM    HNF12495   4.414   5.168   6.380  0.7358 -0.6611 -0.1672
  119OSM    C2S12496   4.574   5.047   6.332  0.3140 -0.0543 -0.4622
  119OSM    H2S12497   4.592   4.942   6.361  2.3828  1.1817  3.1124
  119OSM    C3S12498   4.673   5.150   6.381 -0.1280 -0.5676 -0.4510
  119OSM    H3S12499   4.665   5.254   6.344  1.4711 -0.0795  0.5493
  119OSM     O312500   4.807   5.111   6.345 -0.4330  0.1227 -0.4560
  119OSM    HO312501   4.780   5.057   6.270 -0.8433 -2.4830  1.5092
  119OSM    C4S12502   4.665   5.166   6.530  0.1898  0.0161  0.5274
  119OSM    H4S12503   4.688   5.081   6.596 -0.3827 -0.1274  0.5478
  119OSM    C5S12504   4.643   5.285   6.586  0.0486  0.7768 -0.0233
  119OSM    H5S12505   4.604   5.360   6.516 -0.9251  0.6400  0.3598
  119OSM    C6S12506   4.647   5.318   6.737  0.6827  0.4798 -0.4157
  119OSM    H6S12507   4.754   5.322   6.768  0.9252  3.0284 -1.4513
  119OSM    H6T12508   4.584   5.238   6.781  0.6179  0.0147 -1.3341
  119OSM    C7S12509   4.600   5.459   6.780  0.4844 -0.2215 -0.6872
  119OSM    H7S12510   4.500   5.483   6.736  0.2346 -0.5989 -0.3339
  119OSM    H7T12511   4.662   5.540   6.735 -0.7409  0.0128 -2.0092
  119OSM    C8S12512   4.601   5.486   6.930 -0.5253 -0.9432 -0.3418
  119OSM    H8S12513   4.706   5.509   6.958 -0.3164  1.4446 -2.8675
  119OSM    H8T12514   4.552   5.405   6.988  1.5067 -2.5849 -0.8087
  119OSM    C9S12515   4.538   5.627   6.973  0.3470  0.7665  0.3297
  119OSM    H9S12516   4.454   5.653   6.905  1.3589 -0.7441 -1.5659
  119OSM    H9T12517   4.608   5.711   6.959 -2.0111  2.2863 -3.1711
  119OSM   C10S12518   4.473   5.623   7.113  0.0345 -0.3430  0.2051
  119OSM   H10S12519   4.394   5.544   7.111 -1.5892  1.2563 -0.4672
  119OSM   H10T12520   4.419   5.719   7.131  0.1082 -0.2164 -0.2589
  119OSM   C11S12521   4.574   5.588   7.231  0.5065  0.3255  0.4624
  119OSM   H11S12522   4.647   5.672   7.229  0.5826  0.2329 -0.8800
  119OSM   H11T12523   4.615   5.490   7.200 -0.6480  0.0044 -0.0666
  119OSM   C12S12524   4.502   5.586   7.367  0.5266 -0.3434 -0.0043
  119OSM   H12S12525   4.439   5.494   7.360  0.6559 -0.2781 -2.8635
  119OSM   H12T12526   4.431   5.670   7.383 -2.3661 -2.9863  1.6449
  119OSM   C13S12527   4.602   5.558   7.479 -0.2034 -0.0323 -0.3162
  119OSM   H13S12528   4.649   5.653   7.515 -1.0891  1.0296 -1.8663
  119OSM   H13T12529   4.693   5.502   7.447 -0.5315 -0.1692 -1.0203
  119OSM   C14S12530   4.554   5.494   7.608 -0.1501 -0.2306 -0.2118
  119OSM   H14S12531   4.623   5.529   7.687 -1.4600  0.0602  0.8215
  119OSM   H14T12532   4.559   5.383   7.614 -0.3481 -0.2266  0.0234
  119OSM   C15S12533   4.412   5.541   7.652  0.6962 -0.1655 -0.0327
  119OSM   H15S12534   4.343   5.503   7.574 -0.6081 -0.2662  1.1538
  119OSM   H15T12535   4.411   5.652   7.655  0.1823 -0.2050  2.4489
  119OSM   C16S12536   4.379   5.482   7.790  0.0015 -0.9935  0.7558
  119OSM   H16S12537   4.431   5.547   7.863 -0.3668 -2.3877  2.3064
  119OSM   H16T12538   4.415   5.377   7.788 -0.9726 -1.3280 -1.8204
  119OSM   C17S12539   4.229   5.483   7.836  0.4372 -0.5474  0.2739
  119OSM   H17S12540   4.176   5.422   7.759  0.9274 -0.8002  0.1344
  119OSM   H17T12541   4.194   5.588   7.832  1.7896 -0.0509  1.0255
  119OSM   C18S12542   4.199   5.417   7.972 -0.6063  0.2627 -0.3784
  119OSM   H18S12543   4.228   5.311   7.961 -2.7332 -0.2503 -1.3461
  119OSM   H18T12544   4.092   5.436   7.997 -0.3254  0.2379  0.8923
  119OSM   H18U12545   4.269   5.456   8.049 -0.2667  0.7364 -0.9242
  119OSM    C1F12546   4.334   4.991   6.337  0.1918  1.2376  0.8187
  119OSM     OF12547   4.356   4.872   6.316 -0.1458 -0.4059  0.1301
  119OSM    C2F12548   4.192   5.050   6.339  0.5775 -0.1105 -0.0827
  119OSM    H2F12549   4.167   5.056   6.231  2.4241  3.1117 -0.3839
  119OSM    H2G12550   4.196   5.152   6.383  0.2307 -0.0877 -0.1021
  119OSM    C3F12551   4.083   4.972   6.412 -0.1447 -0.6939  0.1046
  119OSM    H3F12552   4.067   4.874   6.362  0.8417 -0.1699 -1.2530
  119OSM    H3G12553   3.984   5.023   6.418  1.0761  2.0202 -1.7030
  119OSM    C4F12554   4.124   4.923   6.556 -0.4567 -0.2162 -0.4556
  119OSM    H4F12555   4.208   4.850   6.548  1.7461  1.9558  1.8156
  119OSM    H4G12556   4.037   4.868   6.597 -0.6067  0.7692  0.5579
  119OSM    C5F12557   4.160   5.041   6.648 -0.4504  0.3122  0.5184
  119OSM    H5F12558   4.071   5.099   6.680  1.1564  1.5323  2.9598
  119OSM    H5G12559   4.240   5.095   6.592 -1.1824 -0.0282 -0.8828
  119OSM    C6F12560   4.216   4.983   6.780  0.3142  0.2434 -0.4188
  119OSM    H6F12561   4.285   4.901   6.750  0.3331  0.3809 -0.7593
  119OSM    H6G12562   4.139   4.942   6.848 -1.4764  1.7811 -1.4706
  119OSM    C7F12563   4.295   5.095   6.857  0.5254 -0.4104 -0.6307
  119OSM    H7F12564   4.237   5.184   6.889  2.3162 -0.3753  2.6823
  119OSM    H7G12565   4.363   5.134   6.779  0.6159 -0.8849 -0.7926
  119OSM    C8F12566   4.379   5.041   6.971 -0.2035 -0.4911  0.1577
  119OSM    H8F12567   4.452   5.113   7.013 -1.1584 -0.3215  1.5553
  119OSM    H8G12568   4.442   4.957   6.933  1.5143  1.6118 -1.7606
  119OSM    C9F12569   4.294   4.986   7.085  0.3771 -0.1262  0.6662
  119OSM    H9F12570   4.218   4.911   7.058  0.7182  0.5366 -2.2608
  119OSM   C10F12571   4.322   4.999   7.219  0.0086  0.3047 -0.4105
  119OSM   H10F12572   4.250   4.975   7.299  1.5334  2.3641  1.6034
  119OSM   C11F12573   4.432   5.084   7.282 -0.2347 -1.0388  0.6706
  119OSM   H11F12574   4.452   5.182   7.235 -1.3657 -1.0683  0.1053
  119OSM   H11G12575   4.530   5.032   7.277 -0.3639 -1.1539 -0.6336
  119OSM   C12F12576   4.418   5.116   7.439  0.0592  0.6320 -0.1345
  119OSM   H12F12577   4.313   5.144   7.463 -0.1919 -1.4776  1.3886
  119OSM   H12G12578   4.470   5.210   7.467 -1.8740  1.4253  0.9112
  119OSM   C13F12579   4.470   4.999   7.530 -0.1204 -0.3245 -0.2838
  119OSM   H13F12580   4.579   4.993   7.506  0.0117 -0.0487  0.2359
  119OSM   H13G12581   4.414   4.904   7.512  1.3784 -1.6201  1.6457
  119OSM   C14F12582   4.444   5.033   7.673 -0.1569  0.0032 -0.7730
  119OSM   H14F12583   4.339   5.029   7.708  0.1711 -0.9587  0.1749
  119OSM   H14G12584   4.478   5.138   7.687 -1.1553  0.5537 -2.3847
  119OSM   C15F12585   4.527   4.953   7.783 -0.3732  1.2738  0.2759
  119OSM   H15F12586   4.635   4.950   7.757 -0.4212  0.0048  0.1745
  119OSM   H15G12587   4.481   4.853   7.770  1.6552  0.5151 -1.4114
  119OSM   C16F12588   4.511   5.009   7.916  0.0822  0.3015  0.3648
  119OSM   H16F12589   4.406   5.007   7.951  0.4960  0.8100  1.6847
  119OSM   H16G12590   4.559   5.109   7.924 -0.0375  0.4836 -1.0657
  119OSM   C17F12591   4.579   4.932   8.019 -0.5204  0.2826 -0.4371
  119OSM   H17F12592   4.688   4.932   7.995 -0.3526 -2.9610  0.0130
  119OSM   H17G12593   4.542   4.827   8.030  0.5017 -0.0566 -0.1065
  119OSM   C18F12594   4.571   4.992   8.158 -0.6133 -0.3652  0.1450
  119OSM   H18F12595   4.477   5.006   8.216  0.0620  0.0782  1.1365
  119OSM   H18G12596   4.631   5.083   8.175 -0.6433 -0.4074  0.4841
  119OSM   H18H12597   4.620   4.911   8.217 -0.6875 -0.5453 -0.0394
  120OSM      N12598   2.044   2.580   6.625  0.4025  0.2795  0.3532
  120OSM    C1512599   1.960   2.696   6.582 -0.1813  0.0875  0.0826
  120OSM   H15A12600   1.877   2.726   6.643 -0.3463  2.2091 -1.1106
  120OSM   H15B12601   1.913   2.677   6.486 -0.0750  2.9531 -0.5826
  120OSM   H15C12602   2.023   2.784   6.582  2.2521 -1.5821 -0.4590
  120OSM    C1412603   2.162   2.585   6.529  0.0180 -0.8747 -0.0436
  120OSM   H14A12604   2.143   2.555   6.427  1.5519 -3.0686  0.2835
  120OSM   H14B12605   2.246   2.522   6.554  0.4356 -0.1302  0.4693
  120OSM   H14C12606   2.194   2.688   6.534 -0.6548 -0.6156 -0.8744
  120OSM    C1312607   2.099   2.607   6.763  0.1672 -0.6576  1.0866
  120OSM   H13A12608   2.158   2.698   6.763  0.0723 -0.5894  0.2143
  120OSM   H13B12609   2.162   2.531   6.807  1.5899  0.1284  0.4804
  120OSM   H13C12610   2.009   2.621   6.821  0.2877  0.0391  1.1126
  120OSM    C1212611   1.977   2.447   6.621  0.7126 -0.7458 -0.2354
  120OSM   H12A12612   1.883   2.458   6.673  2.0257  0.7684  1.9164
  120OSM   H12B12613   2.032   2.378   6.683  0.4133 -0.2127  0.6360
  120OSM    C1112614   1.942   2.370   6.494 -0.1736 -0.1320 -0.2545
  120OSM   H11A12615   1.881   2.444   6.438  1.0367 -1.1170 -2.9424
  120OSM   H11B12616   1.873   2.283   6.497 -0.3667  0.0144 -0.4392
  120OSM      P12617   2.133   2.207   6.422 -0.3165 -0.3738  0.6756
  120OSM    O1312618   2.068   2.122   6.319  0.7122 -0.1047  0.0598
  120OSM    O1412619   2.277   2.223   6.409 -0.4995  0.2787 -0.5062
  120OSM    O1112620   2.109   2.153   6.563  0.0328  0.3021 -0.6512
  120OSM    O1212621   2.064   2.346   6.419  0.0609 -0.5175 -0.3331
  120OSM    C1S12622   2.195   2.180   6.672  0.1914 -0.6434 -0.4149
  120OSM    H1S12623   2.200   2.288   6.695  0.5522 -0.6024 -0.6750
  120OSM    H1T12624   2.296   2.141   6.644  0.6122  2.0112 -2.8185
  120OSM     NF12625   2.239   2.149   6.905  0.3809  0.2290 -0.4342
  120OSM    HNF12626   2.300   2.072   6.925  3.3215  2.4767 -0.3414
  120OSM    C2S12627   2.147   2.116   6.806  0.6107  0.3491 -0.3157
  120OSM    H2S12628   2.060   2.176   6.840  1.8519  3.3817 -2.2745
  120OSM    C3S12629   2.118   1.971   6.784  0.2995  0.7812 -0.2268
  120OSM    H3S12630   2.208   1.918   6.744 -2.1054 -3.0613 -0.7956
  120OSM     O312631   2.021   1.934   6.692  0.1693 -0.5527  0.2999
  120OSM    HO312632   2.021   2.007   6.630  1.8982 -2.0471 -1.5319
  120OSM    C4S12633   2.088   1.905   6.921  0.2912 -0.0857 -0.2125
  120OSM    H4S12634   2.028   1.967   6.991  0.8302 -0.1044  0.2728
  120OSM    C5S12635   2.135   1.792   6.975  0.6663  0.4941  0.1406
  120OSM    H5S12636   2.197   1.722   6.917  1.4251  0.6686  0.7378
  120OSM    C6S12637   2.114   1.737   7.112  0.1481  0.3717  0.1991
  120OSM    H6S12638   2.213   1.691   7.135 -0.6489 -0.8446  1.2827
  120OSM    H6T12639   2.039   1.655   7.108  0.3651  0.2415 -2.0343
  120OSM    C7S12640   2.074   1.826   7.226 -1.0133 -0.3368  0.1184
  120OSM    H7S12641   1.969   1.863   7.224 -1.1572 -0.5866  1.9167
  120OSM    H7T12642   2.144   1.912   7.230  0.5981 -1.5778 -0.6403
  120OSM    C8S12643   2.086   1.748   7.360  0.1010  0.8413  0.2720
  120OSM    H8S12644   2.194   1.728   7.375 -0.1266  1.0572  2.4584
  120OSM    H8T12645   2.038   1.648   7.353 -1.5428  1.6687 -0.7432
  120OSM    C9S12646   2.022   1.828   7.474 -0.2488  0.3071  0.3258
  120OSM    H9S12647   1.915   1.819   7.447 -0.2462  0.9827  0.0651
  120OSM    H9T12648   2.063   1.931   7.478  2.7126 -0.8092  0.0674
  120OSM   C10S12649   2.041   1.776   7.616 -0.1617  0.0100 -0.7043
  120OSM   H10S12650   2.146   1.742   7.611  0.2615  0.8096  1.9491
  120OSM   H10T12651   1.985   1.681   7.626  3.1055 -2.0235 -1.0056
  120OSM   C11S12652   1.997   1.866   7.724  0.0323  0.8305  0.5276
  120OSM   H11S12653   1.900   1.909   7.690  0.0989 -0.0028 -0.7420
  120OSM   H11T12654   2.065   1.952   7.738  0.4485  0.2759  2.0160
  120OSM   C12S12655   1.969   1.809   7.863  0.0326 -0.7565 -0.6509
  120OSM   H12S12656   2.048   1.736   7.893  1.1926 -0.0303 -1.8659
  120OSM   H12T12657   1.873   1.755   7.845 -0.7322 -0.1298  1.4872
  120OSM   C13S12658   1.946   1.921   7.972  0.3818  0.4172 -0.1580
  120OSM   H13S12659   1.854   1.974   7.938  0.3203  0.3370 -0.1189
  120OSM   H13T12660   2.018   2.000   8.001 -1.1495  1.5731  0.6070
  120OSM   C14S12661   1.903   1.847   8.100 -0.0507  0.5068 -0.6869
  120OSM   H14S12662   1.817   1.780   8.084 -2.1907  2.3307  2.5962
  120OSM   H14T12663   1.873   1.926   8.172 -0.5195 -0.6229  0.3793
  120OSM   C15S12664   2.006   1.759   8.169 -0.0792 -0.8464 -0.5631
  120OSM   H15S12665   2.096   1.809   8.211 -0.9492  1.0916 -0.9357
  120OSM   H15T12666   2.051   1.703   8.084 -2.2850 -1.3956 -1.4112
  120OSM   C16S12667   1.948   1.683   8.291 -0.2721  0.2104  0.4137
  120OSM   H16S12668   2.024   1.607   8.320 -1.3481 -1.4032 -0.8941
  120OSM   H16T12669   1.866   1.624   8.246 -0.6735  0.2601  1.0828
  120OSM   C17S12670   1.920   1.772   8.410  0.1839  0.3186 -0.2996
  120OSM   H17S12671   1.843   1.846   8.378 -1.3800 -0.7561  0.9026
  120OSM   H17T12672   2.020   1.814   8.434  0.1207  1.9184 -2.5782
  120OSM   C18S12673   1.875   1.702   8.537  0.6586  0.2456 -0.8674
  120OSM   H18S12674   1.835   1.762   8.622  0.4041 -0.2140 -0.6599
  120OSM   H18T12675   1.954   1.635   8.576 -3.9270 -4.1420  1.4995
  120OSM   H18U12676   1.785   1.644   8.508 -0.7301  1.7759  0.3246
  120OSM    C1F12677   2.280   2.265   6.949  0.1949 -0.0371 -0.3522
  120OSM     OF12678   2.250   2.368   6.895  0.4278  0.0647  0.3309
  120OSM    C2F12679   2.363   2.258   7.066  0.1272  0.6444  0.1031
  120OSM    H2F12680   2.463   2.221   7.034 -0.6610 -0.8653 -0.6938
  120OSM    H2G12681   2.311   2.188   7.136  0.0801 -0.2729 -0.8263
  120OSM    C3F12682   2.387   2.388   7.144  0.1002  0.1503  0.3774
  120OSM    H3F12683   2.293   2.429   7.187 -0.7416  0.7867 -1.9911
  120OSM    H3G12684   2.428   2.467   7.077 -0.1393 -1.3183 -1.5644
  120OSM    C4F12685   2.492   2.364   7.253 -0.6942  0.3205  0.8039
  120OSM    H4F12686   2.596   2.400   7.237 -0.3916 -0.7654  0.2535
  120OSM    H4G12687   2.515   2.255   7.258  3.0398  0.9291 -1.6058
  120OSM    C5F12688   2.452   2.417   7.391 -0.1809 -0.3411  0.1333
  120OSM    H5F12689   2.359   2.362   7.418 -0.9508  1.2784  0.8885
  120OSM    H5G12690   2.432   2.526   7.389 -5.4381 -1.1518 -0.7287
  120OSM    C6F12691   2.562   2.364   7.491 -0.4349 -0.7142 -0.8377
  120OSM    H6F12692   2.660   2.415   7.494 -0.5872 -0.4501  0.1948
  120OSM    H6G12693   2.585   2.259   7.464  1.1034 -0.6817  0.2954
  120OSM    C7F12694   2.508   2.382   7.635  0.3170 -0.0661 -0.0494
  120OSM    H7F12695   2.559   2.321   7.712  0.7525  0.6701  0.2473
  120OSM    H7G12696   2.401   2.351   7.641 -0.1167  1.3753 -0.0987
  120OSM    C8F12697   2.523   2.523   7.686 -0.0706  0.8177 -0.4113
  120OSM    H8F12698   2.471   2.593   7.617 -0.2476 -0.5786 -1.7109
  120OSM    H8G12699   2.628   2.554   7.664  0.0717 -0.6270 -1.8395
  120OSM    C9F12700   2.469   2.538   7.830  0.1984  0.5278  0.3704
  120OSM    H9F12701   2.367   2.499   7.838  0.9333 -1.9419 -1.6925
  120OSM   C10F12702   2.531   2.585   7.944 -0.8061 -0.4107  0.8292
  120OSM   H10F12703   2.485   2.572   8.043  1.0589 -0.0991  1.7701
  120OSM   C11F12704   2.672   2.634   7.942 -0.0719  0.3382 -0.0146
  120OSM   H11F12705   2.676   2.720   8.012 -0.7490  0.6727 -0.3808
  120OSM   H11G12706   2.705   2.652   7.837  0.4406  0.4235  0.1589
  120OSM   C12F12707   2.780   2.532   7.994  0.2536 -0.2984 -0.5429
  120OSM   H12F12708   2.772   2.533   8.104  0.2442  0.2890 -0.5478
  120OSM   H12G12709   2.882   2.567   7.966 -0.7784  1.1122 -2.6686
  120OSM   C13F12710   2.760   2.387   7.937 -0.5587  0.1933  0.0420
  120OSM   H13F12711   2.784   2.387   7.829 -0.4849 -1.1322  0.0482
  120OSM   H13G12712   2.653   2.360   7.950  0.5252 -3.4048  2.3116
  120OSM   C14F12713   2.846   2.277   8.005 -0.1815  0.4961  0.2064
  120OSM   H14F12714   2.842   2.304   8.112 -2.1716  1.5580 -0.1113
  120OSM   H14G12715   2.943   2.282   7.950  0.2426 -1.1996  0.7987
  120OSM   C15F12716   2.777   2.136   7.996 -0.4600  0.0308  0.4384
  120OSM   H15F12717   2.740   2.109   7.895 -0.8526  0.6858  0.4031
  120OSM   H15G12718   2.679   2.152   8.046 -1.7460  1.3991 -2.4139
  120OSM   C16F12719   2.862   2.018   8.044  0.9508  0.2734  0.3898
  120OSM   H16F12720   2.960   2.021   7.993 -0.3569  1.8546 -2.1278
  120OSM   H16G12721   2.820   1.924   8.003  1.1614  0.0702  0.6442
  120OSM   C17F12722   2.865   2.000   8.198  0.0845  0.1230  0.6176
  120OSM   H17F12723   2.765   1.988   8.245 -0.5025 -0.0813 -0.6704
  120OSM   H17G12724   2.922   2.080   8.249  2.9268 -0.0665 -2.0379
  120OSM   C18F12725   2.930   1.867   8.233 -0.7077 -0.3772 -1.1177
  120OSM   H18F12726   2.956   1.863   8.341 -0.2386 -0.4764 -1.2345
  120OSM   H18G12727   3.024   1.856   8.176  0.5489  1.6678  0.4679
  120OSM   H18H12728   2.854   1.787   8.216 -2.3561  0.6729  1.0056
  121OSM      N12729   4.177   4.642   5.492 -0.4298 -0.3376 -0.8671
  121OSM    C1512730   4.133   4.694   5.356  0.0690  0.6452  0.4563
  121OSM   H15A12731   4.027   4.713   5.353  0.0876  0.7229  0.3319
  121OSM   H15B12732   4.165   4.639   5.269 -0.4428 -0.7629  1.1379
  121OSM   H15C12733   4.184   4.787   5.338  0.3162  0.0204 -2.2615
  121OSM    C1412734   4.321   4.628   5.506  0.5253 -0.0294  0.5277
  121OSM   H14A12735   4.377   4.704   5.452  1.6850 -0.3970  1.1938
  121OSM   H14B12736   4.353   4.529   5.476  1.4242  0.1062  1.0288
  121OSM   H14C12737   4.356   4.637   5.608  2.6401  1.9300 -0.3201
  121OSM    C1312738   4.133   4.741   5.592 -0.7340 -0.1756  0.6424
  121OSM   H13A12739   4.026   4.752   5.590 -0.9022 -1.6335  1.1408
  121OSM   H13B12740   4.181   4.838   5.583  0.3734 -0.8225 -0.6508
  121OSM   H13C12741   4.163   4.708   5.691  0.1269 -0.4340  0.3039
  121OSM    C1212742   4.108   4.514   5.515 -0.0766 -0.3701 -0.3958
  121OSM   H12A12743   4.121   4.449   5.430  1.5380 -0.0728 -0.3977
  121OSM   H12B12744   4.004   4.537   5.535  0.3079  0.4766  0.6393
  121OSM    C1112745   4.158   4.433   5.638  0.0158 -0.2580 -0.3693
  121OSM   H11A12746   4.266   4.406   5.630  0.4581  0.8488  1.3978
  121OSM   H11B12747   4.109   4.334   5.633  0.6041 -0.4774 -2.1177
  121OSM      P12748   4.004   4.498   5.829  0.0687 -0.0963 -0.0040
  121OSM    O1312749   3.969   4.635   5.874 -0.0434 -0.1282 -0.6555
  121OSM    O1412750   3.909   4.433   5.735 -0.6847 -0.4751  0.2743
  121OSM    O1112751   4.022   4.411   5.959 -0.4793 -0.1654 -0.1447
  121OSM    O1212752   4.150   4.508   5.766 -0.3403  0.1855 -0.0073
  121OSM    C1S12753   4.100   4.456   6.069  0.1691 -0.3397  0.4550
  121OSM    H1S12754   4.063   4.554   6.107 -1.1539 -0.2595 -0.9921
  121OSM    H1T12755   4.207   4.459   6.042 -0.3338  0.0224 -1.5374
  121OSM     NF12756   4.123   4.426   6.310 -0.5794 -0.1578 -0.1454
  121OSM    HNF12757   4.218   4.437   6.338 -0.4141  2.2186 -1.5806
  121OSM    C2S12758   4.092   4.357   6.185  0.3257 -0.4586 -0.0995
  121OSM    H2S12759   3.987   4.323   6.194  1.0788 -2.4683  1.8517
  121OSM    C3S12760   4.178   4.227   6.153 -0.4714 -0.7239 -1.5507
  121OSM    H3S12761   4.285   4.258   6.160 -1.0639  0.7889  2.2211
  121OSM     O312762   4.165   4.182   6.022 -0.7415 -0.3003  0.1720
  121OSM    HO312763   4.111   4.249   5.980  1.9685  1.9997  0.1622
  121OSM    C4S12764   4.148   4.130   6.262  0.5590 -0.3494  0.3540
  121OSM    H4S12765   4.184   4.156   6.362  0.6778 -1.1838  0.5383
  121OSM    C5S12766   4.074   4.017   6.249  0.2455 -0.0857  0.2219
  121OSM    H5S12767   4.025   3.989   6.155  0.6083 -0.0997  0.0346
  121OSM    C6S12768   4.052   3.924   6.367  0.8118 -0.1550 -0.1024
  121OSM    H6S12769   4.106   3.952   6.461 -0.9680  1.6898  0.4169
  121OSM    H6T12770   4.077   3.818   6.343  1.5814 -0.3935  1.6097
  121OSM    C7S12771   3.896   3.922   6.401 -0.9407  1.0501 -0.2004
  121OSM    H7S12772   3.850   3.826   6.369 -0.3423  0.3451  1.0264
  121OSM    H7T12773   3.842   4.005   6.351 -0.6032  1.4500  0.0925
  121OSM    C8S12774   3.864   3.939   6.554 -0.2841 -0.2628 -0.0345
  121OSM    H8S12775   3.922   3.858   6.604 -1.4746 -2.1651 -1.6309
  121OSM    H8T12776   3.758   3.909   6.570 -0.6734  1.2344  0.1819
  121OSM    C9S12777   3.900   4.071   6.612  0.3533 -0.6664 -0.2930
  121OSM    H9S12778   3.838   4.150   6.564  0.5177 -0.6672 -0.5063
  121OSM    H9T12779   4.009   4.092   6.614 -0.2038  2.4749  2.8884
  121OSM   C10S12780   3.870   4.092   6.763 -0.4622  0.3542 -0.0435
  121OSM   H10S12781   3.759   4.096   6.774 -0.6791 -0.5635 -1.8151
  121OSM   H10T12782   3.896   4.192   6.805  0.5761 -0.0415  0.2654
  121OSM   C11S12783   3.934   3.977   6.850 -0.6450 -0.2778  0.1336
  121OSM   H11S12784   4.038   3.949   6.824  0.1232  2.5162  0.0707
  121OSM   H11T12785   3.861   3.893   6.846 -2.2548  1.0578  0.8288
  121OSM   C12S12786   3.933   4.012   7.001  0.5986  0.4116  0.3775
  121OSM   H12S12787   3.832   4.041   7.038 -0.3960 -0.7887 -1.3245
  121OSM   H12T12788   3.994   4.104   7.018 -1.5874  1.9836 -0.0534
  121OSM   C13S12789   3.985   3.902   7.089  0.2219  0.9294  0.1840
  121OSM   H13S12790   4.079   3.875   7.038 -1.0601 -0.3144 -1.5776
  121OSM   H13T12791   3.924   3.810   7.076 -0.2985  1.5328 -1.8263
  121OSM   C14S12792   4.000   3.941   7.231 -0.5896 -0.3758 -0.1756
  121OSM   H14S12793   3.903   3.987   7.262 -1.7555 -0.8414 -3.0112
  121OSM   H14T12794   4.079   4.019   7.234  0.1409 -1.1253  0.2513
  121OSM   C15S12795   4.036   3.837   7.329 -0.4320 -0.1476  0.1253
  121OSM   H15S12796   4.146   3.819   7.332 -0.6936 -1.5631  1.8812
  121OSM   H15T12797   4.001   3.742   7.285  0.8006  0.1304 -1.5008
  121OSM   C16S12798   4.001   3.866   7.478  0.5617 -0.5294  0.0338
  121OSM   H16S12799   3.892   3.882   7.488  0.1191 -3.1106 -0.3722
  121OSM   H16T12800   4.049   3.964   7.501 -3.0114  1.7365 -1.7190
  121OSM   C17S12801   4.050   3.766   7.584 -0.0207  0.3704 -0.7326
  121OSM   H17S12802   4.161   3.756   7.586 -0.1782 -2.5641 -2.9496
  121OSM   H17T12803   4.017   3.663   7.562  0.1524  0.2968 -0.6492
  121OSM   C18S12804   4.024   3.810   7.727  0.4435  0.8738  0.2104
  121OSM   H18S12805   4.056   3.735   7.803  1.2737  0.1710 -0.8250
  121OSM   H18T12806   3.914   3.810   7.738  0.3177  1.9468 -0.9538
  121OSM   H18U12807   4.067   3.908   7.758  1.5478 -0.1249  1.8925
  121OSM    C1F12808   4.032   4.508   6.371  0.7202  0.5192 -0.4750
  121OSM     OF12809   3.925   4.534   6.316  0.2352 -0.9861 -0.5153
  121OSM    C2F12810   4.073   4.541   6.509 -0.5014 -0.2814 -0.1931
  121OSM    H2F12811   4.024   4.637   6.536  1.0458  0.8081 -1.2186
  121OSM    H2G12812   4.183   4.556   6.513 -0.4697 -0.5505 -0.0101
  121OSM    C3F12813   4.025   4.423   6.596  0.0729 -0.1080 -0.2480
  121OSM    H3F12814   4.077   4.332   6.559 -0.1930  0.7277 -2.8426
  121OSM    H3G12815   3.916   4.401   6.589  0.3613 -1.2428 -1.3851
  121OSM    C4F12816   4.054   4.455   6.748  0.3623 -0.2387  0.1307
  121OSM    H4F12817   4.162   4.461   6.771 -0.2482 -0.6807  3.3084
  121OSM    H4G12818   4.017   4.378   6.820  3.5321 -2.4934 -0.5506
  121OSM    C5F12819   3.974   4.580   6.798 -0.0332 -0.1973 -0.1045
  121OSM    H5F12820   3.877   4.562   6.747 -0.7268 -0.8007  1.3774
  121OSM    H5G12821   4.025   4.671   6.761 -0.6500 -0.5643 -1.9117
  121OSM    C6F12822   3.948   4.590   6.949  0.5610 -0.7662 -0.5728
  121OSM    H6F12823   3.908   4.491   6.978 -0.3263 -0.8244 -1.9352
  121OSM    H6G12824   3.875   4.673   6.965  0.0818 -1.5157  1.2007
  121OSM    C7F12825   4.072   4.618   7.039 -0.0805 -0.1390  0.1954
  121OSM    H7F12826   4.089   4.727   7.024  5.6770 -1.1968 -2.2552
  121OSM    H7G12827   4.157   4.567   6.990 -0.0540 -0.0369  0.1365
  121OSM    C8F12828   4.057   4.582   7.187 -0.1777 -0.7503 -0.4687
  121OSM    H8F12829   4.047   4.472   7.203  2.6543 -1.0408 -0.2875
  121OSM    H8G12830   3.963   4.628   7.224  0.0231 -2.2600  2.0883
  121OSM    C9F12831   4.167   4.642   7.264 -0.3861 -0.2509  0.7428
  121OSM    H9F12832   4.245   4.671   7.193 -1.8621 -0.1472 -0.8651
  121OSM   C10F12833   4.191   4.640   7.393 -0.2017  0.1230 -0.3281
  121OSM   H10F12834   4.263   4.705   7.444 -0.0421 -0.5684  0.3533
  121OSM   C11F12835   4.087   4.596   7.497  0.1850  0.1378 -0.8074
  121OSM   H11F12836   4.091   4.485   7.501 -0.6519  0.0784 -1.5942
  121OSM   H11G12837   3.986   4.618   7.458  0.6049  0.6530 -1.6204
  121OSM   C12F12838   4.092   4.658   7.640  0.4743 -0.1339 -0.0486
  121OSM   H12F12839   4.012   4.608   7.698 -0.6371  1.0751 -0.5124
  121OSM   H12G12840   4.075   4.767   7.627 -0.5116 -0.2705  0.0851
  121OSM   C13F12841   4.228   4.637   7.701 -0.0296 -0.0127  0.0086
  121OSM   H13F12842   4.299   4.718   7.670  2.8127 -2.5712 -0.3819
  121OSM   H13G12843   4.267   4.540   7.663 -1.1123  0.2254 -1.7303
  121OSM   C14F12844   4.232   4.631   7.857 -0.3356 -0.1703  0.1632
  121OSM   H14F12845   4.333   4.635   7.903  0.5783 -1.4019 -1.6690
  121OSM   H14G12846   4.179   4.539   7.890  1.2527 -0.4090  2.1005
  121OSM   C15F12847   4.157   4.752   7.925  0.2430 -0.0527 -0.2960
  121OSM   H15F12848   4.046   4.750   7.934  0.3456 -1.9489  0.8963
  121OSM   H15G12849   4.193   4.843   7.872 -1.1176  0.8395  0.2863
  121OSM   C16F12850   4.204   4.775   8.067  0.4519 -0.1695 -0.0491
  121OSM   H16F12851   4.154   4.867   8.105  2.1596 -0.0068  1.9038
  121OSM   H16G12852   4.315   4.781   8.070  0.5781 -0.8754 -2.2965
  121OSM   C17F12853   4.163   4.673   8.169 -0.2126 -0.2327 -0.8264
  121OSM   H17F12854   4.193   4.571   8.134 -1.3517 -0.7963 -0.1952
  121OSM   H17G12855   4.056   4.660   8.197  0.2250 -2.6215 -0.0652
  121OSM   C18F12856   4.233   4.689   8.304  0.0097 -0.0616  0.5330
  121OSM   H18F12857   4.343   4.683   8.288  0.0209  1.2201  0.0543
  121OSM   H18G12858   4.204   4.609   8.376 -1.3398  0.4305  0.5318
  121OSM   H18H12859   4.208   4.791   8.342  1.4223  0.4335  0.1700
  122OSM      N12860   2.231   5.873   6.155  0.2791 -0.2147 -0.2509
  122OSM    C1512861   2.264   5.754   6.242 -0.7183  0.2342 -0.1375
  122OSM   H15A12862   2.335   5.786   6.317 -1.1708  0.3515  0.2439
  122OSM   H15B12863   2.317   5.682   6.183  2.4614  4.7116 -3.0155
  122OSM   H15C12864   2.179   5.713   6.296 -0.2766 -0.0471  0.3469
  122OSM    C1412865   2.127   5.834   6.053  0.0224 -0.4039 -0.7946
  122OSM   H14A12866   2.029   5.818   6.095  0.8438 -0.3593  1.1637
  122OSM   H14B12867   2.154   5.747   5.995  0.8277 -0.6578 -0.0515
  122OSM   H14C12868   2.116   5.913   5.980  2.1333  0.6408 -0.0132
  122OSM    C1312869   2.173   5.983   6.242 -0.5692 -0.0208  0.3519
  122OSM   H13A12870   2.097   5.943   6.308 -0.1212  0.1182  0.9675
  122OSM   H13B12871   2.134   6.064   6.183 -0.6024 -1.4377 -1.6061
  122OSM   H13C12872   2.248   6.018   6.312 -3.5171  2.6037  2.3732
  122OSM    C1212873   2.364   5.913   6.100 -0.0106 -0.3603  0.2961
  122OSM   H12A12874   2.402   5.835   6.036  3.5607  1.4118  0.1423
  122OSM   H12B12875   2.428   5.935   6.184  0.8066  1.0391 -0.6775
  122OSM    C1112876   2.362   6.049   6.016 -0.0444  0.0169 -0.1324
  122OSM   H11A12877   2.318   6.126   6.083 -0.2494 -0.9361  0.8311
  122OSM   H11B12878   2.289   6.036   5.934 -2.1112 -1.2375  1.8683
  122OSM      P12879   2.578   6.192   6.011  0.1112  0.1623 -0.1302
  122OSM    O1312880   2.700   6.177   5.928  0.3377 -0.5372  0.2153
  122OSM    O1412881   2.500   6.315   5.997 -0.0159 -0.2807  0.2480
  122OSM    O1112882   2.600   6.154   6.170  0.1799  0.0884 -0.5314
  122OSM    O1212883   2.489   6.076   5.959  0.1199  0.1289 -0.1431
  122OSM    C1S12884   2.694   6.056   6.200 -0.3090  0.0499  0.0983
  122OSM    H1S12885   2.783   6.059   6.133  0.7703  0.1880  1.5065
  122OSM    H1T12886   2.629   5.967   6.192 -1.0255  0.6527 -0.9014
  122OSM     NF12887   2.851   5.979   6.357 -0.7718  1.1607 -0.3318
  122OSM    HNF12888   2.822   5.890   6.391  1.2723  0.2844 -0.7495
  122OSM    C2S12889   2.735   6.067   6.355 -0.2808  0.5272 -0.1216
  122OSM    H2S12890   2.770   6.170   6.375 -1.3839  0.9170 -0.1821
  122OSM    C3S12891   2.618   6.028   6.459 -0.3262 -0.2091  0.2273
  122OSM    H3S12892   2.607   5.918   6.463 -3.1585 -0.0131 -1.4351
  122OSM     O312893   2.490   6.071   6.410 -0.3175 -0.2943  0.0746
  122OSM    HO312894   2.502   6.113   6.324  0.3472 -0.2707  0.1792
  122OSM    C4S12895   2.642   6.083   6.594 -0.1292  0.6183 -0.4896
  122OSM    H4S12896   2.643   6.193   6.599  1.8441  0.5425  2.1380
  122OSM    C5S12897   2.644   6.010   6.705 -0.2400 -0.4657  0.1644
  122OSM    H5S12898   2.624   5.902   6.711 -2.2736  0.0107  3.1995
  122OSM    C6S12899   2.660   6.080   6.838 -1.0352  0.0752  1.4010
  122OSM    H6S12900   2.670   6.189   6.818 -1.3768 -0.3263 -1.1113
  122OSM    H6T12901   2.755   6.049   6.886 -1.2766 -1.7973  0.7366
  122OSM    C7S12902   2.548   6.051   6.939 -0.2187  0.0468 -0.1284
  122OSM    H7S12903   2.549   5.941   6.947  1.5594  0.0220 -0.4389
  122OSM    H7T12904   2.448   6.084   6.905 -0.4210  0.0048  0.4150
  122OSM    C8S12905   2.574   6.120   7.073 -0.4735  0.3054 -0.8406
  122OSM    H8S12906   2.561   6.231   7.072 -0.0098  0.3553 -2.7310
  122OSM    H8T12907   2.681   6.107   7.099 -0.4796 -0.1453 -1.0443
  122OSM    C9S12908   2.501   6.049   7.186 -0.1848 -0.4011 -0.9281
  122OSM    H9S12909   2.520   5.940   7.189 -0.2536 -0.3985 -0.1805
  122OSM    H9T12910   2.391   6.045   7.168  0.0459  0.9889 -2.8360
  122OSM   C10S12911   2.520   6.111   7.326 -0.0658  0.1309 -0.0691
  122OSM   H10S12912   2.439   6.182   7.352 -2.0801 -2.3282  0.5441
  122OSM   H10T12913   2.615   6.170   7.322  0.7960 -1.1701  0.9405
  122OSM   C11S12914   2.523   6.007   7.435 -0.0012  0.0530 -0.6175
  122OSM   H11S12915   2.604   5.931   7.428 -0.1625 -0.4237  2.1113
  122OSM   H11T12916   2.432   5.943   7.441  0.1001 -0.1178 -0.8843
  122OSM   C12S12917   2.527   6.070   7.572 -0.5095 -0.3490 -0.2222
  122OSM   H12S12918   2.439   6.135   7.591  0.7989  1.0997  1.0466
  122OSM   H12T12919   2.618   6.132   7.588 -1.9205  1.3516  1.6188
  122OSM   C13S12920   2.524   5.973   7.692  0.8295  0.3340  0.0373
  122OSM   H13S12921   2.614   5.907   7.684 -0.1627 -1.3370  2.3823
  122OSM   H13T12922   2.446   5.894   7.689  1.7209 -0.5664  0.3780
  122OSM   C14S12923   2.525   6.035   7.834  0.6319  0.0971 -0.0480
  122OSM   H14S12924   2.504   5.955   7.908  1.2294 -1.5849 -1.6511
  122OSM   H14T12925   2.441   6.107   7.842  1.4697  1.1173 -0.4103
  122OSM   C15S12926   2.660   6.098   7.863  0.5844  0.1405 -0.1420
  122OSM   H15S12927   2.670   6.192   7.805 -0.1885  0.5212  0.3354
  122OSM   H15T12928   2.744   6.030   7.834 -0.1657  0.1760 -2.4968
  122OSM   C16S12929   2.675   6.137   8.012 -0.0079 -0.6867  0.2363
  122OSM   H16S12930   2.649   6.052   8.078 -0.0956 -0.3238  0.6658
  122OSM   H16T12931   2.598   6.212   8.039 -1.1896 -1.4128 -1.0345
  122OSM   C17S12932   2.815   6.189   8.043 -0.3298  0.4845 -0.5001
  122OSM   H17S12933   2.853   6.236   7.950  1.2391 -0.2233 -0.2236
  122OSM   H17T12934   2.887   6.105   8.048  0.5895  1.2955  0.4193
  122OSM   C18S12935   2.833   6.287   8.159  0.5696  0.2409 -0.1858
  122OSM   H18S12936   2.935   6.330   8.168 -0.5220  2.4139  2.4040
  122OSM   H18T12937   2.809   6.237   8.255 -1.7328  3.4388  0.9934
  122OSM   H18U12938   2.775   6.380   8.138  0.4541 -0.0161 -1.0396
  122OSM    C1F12939   2.971   5.986   6.305 -0.6029  0.9655  0.5220
  122OSM     OF12940   3.017   6.079   6.244 -0.0373  0.4403 -0.1977
  122OSM    C2F12941   3.053   5.868   6.341 -0.5736  0.4626 -0.3237
  122OSM    H2F12942   3.093   5.821   6.249 -0.4572  0.8786 -0.4836
  122OSM    H2G12943   2.992   5.794   6.399  2.9843 -1.2874  1.3277
  122OSM    C3F12944   3.170   5.906   6.425 -0.1205  0.3552  0.2174
  122OSM    H3F12945   3.134   5.985   6.494 -1.0464  0.1599 -0.0373
  122OSM    H3G12946   3.245   5.966   6.368 -0.6267  0.0463 -0.7880
  122OSM    C4F12947   3.234   5.795   6.501  0.4055 -0.3025  0.7560
  122OSM    H4F12948   3.288   5.737   6.423  1.2958 -0.7348  1.6849
  122OSM    H4G12949   3.157   5.721   6.533  1.3379 -1.6827 -0.1534
  122OSM    C5F12950   3.330   5.842   6.611 -0.2183 -0.2255  0.1457
  122OSM    H5F12951   3.273   5.904   6.683  2.0582  0.6006  1.2692
  122OSM    H5G12952   3.407   5.915   6.579 -0.5541  0.6499  1.3266
  122OSM    C6F12953   3.393   5.728   6.687 -0.4511 -0.3234  1.0461
  122OSM    H6F12954   3.471   5.753   6.762 -1.3119  2.4289  1.0800
  122OSM    H6G12955   3.440   5.667   6.607 -1.6780  1.1416 -0.8311
  122OSM    C7F12956   3.307   5.649   6.782  0.0932 -0.7051  0.4943
  122OSM    H7F12957   3.210   5.629   6.732 -0.0581  1.1381 -0.0067
  122OSM    H7G12958   3.284   5.714   6.868  3.1656  0.5258  0.4559
  122OSM    C8F12959   3.363   5.507   6.829  0.6184 -0.1901 -0.0202
  122OSM    H8F12960   3.371   5.434   6.745 -1.4908 -1.3651  0.7504
  122OSM    H8G12961   3.288   5.459   6.895 -0.1462 -2.2095 -2.2878
  122OSM    C9F12962   3.500   5.526   6.892 -0.2273 -0.8317 -0.1281
  122OSM    H9F12963   3.597   5.514   6.842 -0.4782  0.4709 -0.9470
  122OSM   C10F12964   3.508   5.574   7.019  0.1727 -0.2866  0.5478
  122OSM   H10F12965   3.606   5.601   7.060  0.0318  0.2081  0.5617
  122OSM   C11F12966   3.401   5.609   7.117  0.0434 -0.0339 -0.1085
  122OSM   H11F12967   3.299   5.599   7.076 -0.5886  2.5690  0.7022
  122OSM   H11G12968   3.421   5.711   7.158  1.1935  0.3067 -1.4702
  122OSM   C12F12969   3.403   5.516   7.241 -0.6409 -0.3477 -0.3066
  122OSM   H12F12970   3.383   5.412   7.207 -0.4121 -1.5943  3.1667
  122OSM   H12G12971   3.317   5.547   7.305 -0.2567  1.2011 -0.5322
  122OSM   C13F12972   3.537   5.528   7.317  0.3111  0.0134  0.1228
  122OSM   H13F12973   3.548   5.638   7.335  2.1289 -0.1743  0.2773
  122OSM   H13G12974   3.626   5.512   7.252  0.7544 -0.7059  0.8941
  122OSM   C14F12975   3.556   5.457   7.450  0.3246 -0.2904  0.0068
  122OSM   H14F12976   3.544   5.347   7.442 -2.7020 -0.0735  0.6121
  122OSM   H14G12977   3.483   5.497   7.524  0.2538  0.2913 -0.3738
  122OSM   C15F12978   3.688   5.492   7.519 -0.1450 -0.8371  0.9749
  122OSM   H15F12979   3.696   5.602   7.535 -0.2625 -0.6986  0.0756
  122OSM   H15G12980   3.775   5.475   7.453  2.1749 -0.3867  3.8311
  122OSM   C16F12981   3.697   5.416   7.649  0.1559 -0.3699 -0.4928
  122OSM   H16F12982   3.723   5.313   7.615  2.8250  0.3881 -0.8938
  122OSM   H16G12983   3.598   5.400   7.696 -0.5243  2.9497 -0.7373
  122OSM   C17F12984   3.790   5.474   7.749  0.0172  0.4193 -0.1930
  122OSM   H17F12985   3.757   5.575   7.782 -1.9021 -0.3516  0.3217
  122OSM   H17G12986   3.883   5.484   7.690  1.0892  0.3461  1.4585
  122OSM   C18F12987   3.798   5.385   7.870  0.0992 -0.2816 -1.2152
  122OSM   H18F12988   3.751   5.285   7.859 -0.4022 -0.4096  1.5778
  122OSM   H18G12989   3.733   5.434   7.945 -0.4221  0.1480 -1.9462
  122OSM   H18H12990   3.898   5.354   7.907  0.0634  0.2113 -0.7050
  123OSM      N12991   1.465   1.706   6.513  0.2013 -0.1294  0.5233
  123OSM    C1512992   1.549   1.770   6.405 -0.5703 -0.0065  0.2422
  123OSM   H15A12993   1.656   1.770   6.421 -0.2535  0.3596 -1.7009
  123OSM   H15B12994   1.525   1.874   6.391 -0.9571 -0.3718 -1.9665
  123OSM   H15C12995   1.518   1.725   6.312  0.1793 -3.4878  1.5782
  123OSM    C1412996   1.475   1.559   6.497 -0.4567  0.7079 -0.0636
  123OSM   H14A12997   1.420   1.534   6.407  0.9758 -0.7725 -0.5639
  123OSM   H14B12998   1.432   1.505   6.580  2.0363 -2.9116 -0.9566
  123OSM   H14C12999   1.578   1.525   6.492 -0.5289  0.3213  1.0250
  123OSM    C1313000   1.540   1.724   6.646  0.7966  0.4753 -0.0404
  123OSM   H13A13001   1.545   1.815   6.703  1.7206  0.6583 -0.4032
  123OSM   H13B13002   1.639   1.686   6.626 -0.4320 -1.5059 -2.8665
  123OSM   H13C13003   1.504   1.652   6.718  0.0789  1.4666  0.5896
  123OSM    C1213004   1.328   1.764   6.518  0.2322  0.7349 -0.3563
  123OSM   H12A13005   1.339   1.864   6.557  0.2836  0.5869  0.0131
  123OSM   H12B13006   1.275   1.704   6.591  0.3972  0.0543 -0.7861
  123OSM    C1113007   1.243   1.768   6.394  0.9803  0.3424 -0.2403
  123OSM   H11A13008   1.293   1.821   6.310 -2.2302  2.7036 -0.7751
  123OSM   H11B13009   1.159   1.834   6.426 -0.7738 -0.8646 -2.2026
  123OSM      P13010   1.075   1.580   6.412  0.3837  0.2975  0.1846
  123OSM    O1313011   0.959   1.653   6.360  0.8072 -0.1842 -0.0896
  123OSM    O1413012   1.068   1.435   6.380  0.3359 -1.4013  0.6110
  123OSM    O1113013   1.078   1.605   6.570 -0.0895 -0.3306  0.1602
  123OSM    O1213014   1.212   1.637   6.348 -0.0301 -0.3417  0.2715
  123OSM    C1S13015   1.125   1.496   6.646  0.2376  0.6390  0.4572
  123OSM    H1S13016   1.220   1.462   6.599  0.0014  0.1202  0.3541
  123OSM    H1T13017   1.050   1.414   6.648  1.0841 -0.1100  1.7002
  123OSM     NF13018   1.219   1.428   6.869 -0.7441  0.0316 -0.0869
  123OSM    HNF13019   1.162   1.354   6.906 -0.0922 -0.3743  0.1254
  123OSM    C2S13020   1.154   1.535   6.792 -0.0440  0.5608  0.1575
  123OSM    H2S13021   1.225   1.620   6.780 -1.1995  1.4466 -0.5134
  123OSM    C3S13022   1.018   1.574   6.861 -0.2747  0.4127 -0.4247
  123OSM    H3S13023   0.954   1.484   6.869  1.1251 -0.5575  0.0287
  123OSM     O313024   0.952   1.673   6.789 -0.9001 -0.4958  0.1363
  123OSM    HO313025   1.021   1.699   6.728 -0.1380 -0.7377  0.8880
  123OSM    C4S13026   1.035   1.602   7.006  0.2034 -0.1535  0.0072
  123OSM    H4S13027   0.980   1.528   7.066 -1.6171  1.0025 -0.2021
  123OSM    C5S13028   1.077   1.711   7.078 -0.3618 -0.3797 -0.1238
  123OSM    H5S13029   1.111   1.797   7.019  2.0091 -0.7494  0.6597
  123OSM    C6S13030   1.069   1.713   7.230  0.0649 -0.1952  0.4413
  123OSM    H6S13031   0.966   1.749   7.251 -0.0860 -0.7937  0.7499
  123OSM    H6T13032   1.135   1.792   7.271  1.6785 -0.7941 -0.9000
  123OSM    C7S13033   1.095   1.580   7.301 -0.3817  0.3956 -0.0388
  123OSM    H7S13034   1.201   1.547   7.295  0.2776  2.3835  0.4993
  123OSM    H7T13035   1.051   1.488   7.256 -0.4668  0.4700 -0.1075
  123OSM    C8S13036   1.061   1.586   7.448 -0.6732 -0.2742 -0.1645
  123OSM    H8S13037   1.107   1.494   7.492 -0.2204  0.2054  0.3644
  123OSM    H8T13038   0.951   1.581   7.460 -0.7015  0.9327  0.0328
  123OSM    C9S13039   1.125   1.702   7.529  0.1489 -0.8073  0.1289
  123OSM    H9S13040   1.067   1.794   7.505  0.5205 -0.3022  1.1202
  123OSM    H9T13041   1.223   1.715   7.479 -0.6045 -0.3393 -1.2524
  123OSM   C10S13042   1.119   1.679   7.683 -0.5923 -0.1315  0.1654
  123OSM   H10S13043   1.184   1.762   7.720 -2.0024  1.4426 -0.8603
  123OSM   H10T13044   1.177   1.591   7.718 -1.6431 -0.2269  1.7098
  123OSM   C11S13045   0.982   1.679   7.737 -0.1450 -0.4148  0.6109
  123OSM   H11S13046   0.913   1.605   7.690  0.4249  0.0102 -0.8963
  123OSM   H11T13047   0.936   1.776   7.708  0.2374 -0.3311  0.2909
  123OSM   C12S13048   0.978   1.667   7.894 -0.3656 -0.8379 -0.6177
  123OSM   H12S13049   1.037   1.575   7.913 -0.3805 -0.4626  1.3835
  123OSM   H12T13050   0.875   1.647   7.931 -0.3188  2.8507  1.7988
  123OSM   C13S13051   1.026   1.789   7.962  0.5884  0.5112 -0.1889
  123OSM   H13S13052   0.951   1.868   7.941  1.9329  1.6989 -0.6368
  123OSM   H13T13053   1.132   1.816   7.942  0.4480 -0.2121 -1.9778
  123OSM   C14S13054   1.018   1.759   8.115  0.3544  0.4372  0.0239
  123OSM   H14S13055   1.065   1.849   8.158  0.6752  0.4388 -0.3313
  123OSM   H14T13056   1.070   1.665   8.145 -1.2330 -0.3285  0.4359
  123OSM   C15S13057   0.871   1.758   8.166  0.6418 -1.0630 -0.0213
  123OSM   H15S13058   0.836   1.656   8.141 -1.5792 -0.8015  1.8304
  123OSM   H15T13059   0.811   1.835   8.113  2.5554 -0.3371 -1.2056
  123OSM   C16S13060   0.858   1.779   8.323  0.2366 -0.2374  0.2208
  123OSM   H16S13061   0.852   1.888   8.345 -1.9808 -0.5537  1.3314
  123OSM   H16T13062   0.955   1.746   8.366  0.8210  1.4426  0.2240
  123OSM   C17S13063   0.741   1.704   8.384  0.1411 -0.0454  0.4065
  123OSM   H17S13064   0.752   1.704   8.494 -1.4367  2.5080  0.6157
  123OSM   H17T13065   0.757   1.598   8.352  3.2233  0.6279 -0.4215
  123OSM   C18S13066   0.598   1.736   8.331 -0.1080 -0.0964  0.5059
  123OSM   H18S13067   0.586   1.694   8.228 -0.6570  1.4236 -0.0671
  123OSM   H18T13068   0.583   1.845   8.324 -0.0816  0.1928  4.1760
  123OSM   H18U13069   0.524   1.677   8.390  1.1335 -1.2654  0.9029
  123OSM    C1F13070   1.355   1.416   6.862 -0.7871  1.0552 -0.8961
  123OSM     OF13071   1.422   1.493   6.796  0.0771  0.2485 -0.2538
  123OSM    C2F13072   1.419   1.290   6.919  0.0633  0.4646  0.0938
  123OSM    H2F13073   1.483   1.249   6.838  1.0632  0.8876  0.6586
  123OSM    H2G13074   1.344   1.213   6.943  1.3429 -1.2905 -1.4285
  123OSM    C3F13075   1.506   1.327   7.046 -0.3816  0.0259  0.8540
  123OSM    H3F13076   1.586   1.399   7.019 -1.1096 -0.3969 -2.6753
  123OSM    H3G13077   1.551   1.230   7.079 -1.2496 -0.1189  1.6140
  123OSM    C4F13078   1.427   1.382   7.166  0.3140 -0.0222  0.2509
  123OSM    H4F13079   1.348   1.309   7.192 -0.2995  0.4913 -0.1471
  123OSM    H4G13080   1.377   1.477   7.136  0.6022  0.6482  1.8569
  123OSM    C5F13081   1.521   1.404   7.287  0.1460  0.1183  0.4090
  123OSM    H5F13082   1.604   1.471   7.257 -0.5248  0.4107 -0.8416
  123OSM    H5G13083   1.557   1.303   7.316  1.6671  0.1344 -1.3464
  123OSM    C6F13084   1.457   1.475   7.413  0.1307 -0.0315  0.4741
  123OSM    H6F13085   1.367   1.422   7.452  0.3840  0.5809  1.9410
  123OSM    H6G13086   1.419   1.573   7.378  1.8273 -0.1389 -1.7258
  123OSM    C7F13087   1.553   1.498   7.530  0.1147  0.0753 -0.0709
  123OSM    H7F13088   1.647   1.547   7.495 -0.1106  1.0593  0.7022
  123OSM    H7G13089   1.600   1.406   7.571  2.0196 -0.0860 -2.4589
  123OSM    C8F13090   1.482   1.575   7.634  0.2730  0.1822 -0.3339
  123OSM    H8F13091   1.407   1.512   7.686  2.7916 -0.7820  2.2453
  123OSM    H8G13092   1.428   1.662   7.591 -0.4452  0.0651  0.3192
  123OSM    C9F13093   1.586   1.624   7.732 -0.2005  0.0549  0.0624
  123OSM    H9F13094   1.694   1.606   7.716 -0.1443  0.8559 -0.4673
  123OSM   C10F13095   1.565   1.690   7.844  0.5240 -0.0705 -0.7026
  123OSM   H10F13096   1.650   1.726   7.904 -1.0295 -0.5473  1.8505
  123OSM   C11F13097   1.429   1.721   7.909 -0.0319 -0.7717 -0.1043
  123OSM   H11F13098   1.342   1.682   7.852 -2.1196  1.0345  1.7437
  123OSM   H11G13099   1.410   1.831   7.915 -0.6117 -0.7526 -2.0745
  123OSM   C12F13100   1.414   1.673   8.058  0.2149  0.1821  0.0810
  123OSM   H12F13101   1.450   1.568   8.068 -0.7818 -0.1702  0.0772
  123OSM   H12G13102   1.307   1.686   8.087 -0.1426 -3.2090  0.5503
  123OSM   C13F13103   1.491   1.761   8.155 -0.6781 -0.3636 -0.5297
  123OSM   H13F13104   1.497   1.866   8.120  1.0116 -0.7479 -1.4330
  123OSM   H13G13105   1.594   1.720   8.154  0.4475  2.3260  0.7965
  123OSM   C14F13106   1.440   1.755   8.299  0.7114 -0.8797  0.0759
  123OSM   H14F13107   1.330   1.773   8.304  1.2120  2.4464  0.1501
  123OSM   H14G13108   1.486   1.827   8.369 -1.3495 -0.1796  0.7257
  123OSM   C15F13109   1.468   1.609   8.348  0.6133 -0.4597  0.0910
  123OSM   H15F13110   1.579   1.617   8.340  0.6504 -1.4269 -0.3195
  123OSM   H15G13111   1.428   1.529   8.282 -2.0779 -0.8877  2.1475
  123OSM   C16F13112   1.406   1.588   8.484  0.2450 -0.0642  0.2674
  123OSM   H16F13113   1.295   1.591   8.474  0.2603  0.2108  0.1616
  123OSM   H16G13114   1.431   1.674   8.550  1.4841  0.1385 -0.4434
  123OSM   C17F13115   1.455   1.462   8.555  0.1622 -0.8613  0.6406
  123OSM   H17F13116   1.556   1.466   8.600 -0.6834 -1.5581  2.6521
  123OSM   H17G13117   1.450   1.373   8.489  0.9115 -0.1222 -0.4385
  123OSM   C18F13118   1.379   1.443   8.691 -0.2478 -0.0837 -0.1960
  123OSM   H18F13119   1.421   1.355   8.744 -0.1650  0.1979  0.2114
  123OSM   H18G13120   1.270   1.422   8.686 -0.5731  0.4796  3.4782
  123OSM   H18H13121   1.395   1.536   8.750 -0.3042  0.7779 -1.5030
  124OSM      N13122   2.237   3.412   6.286  0.4026 -0.3138 -0.6080
  124OSM    C1513123   2.306   3.291   6.327 -0.6204 -0.2131 -0.2705
  124OSM   H15A13124   2.378   3.305   6.406 -1.0414 -1.2782  0.3053
  124OSM   H15B13125   2.365   3.250   6.246 -1.2631  0.3827 -1.0494
  124OSM   H15C13126   2.236   3.217   6.361 -2.2385  0.7369 -1.4474
  124OSM    C1413127   2.339   3.523   6.267 -0.2402  0.3366 -0.7005
  124OSM   H14A13128   2.424   3.504   6.204 -1.2008 -1.6507 -1.4339
  124OSM   H14B13129   2.392   3.528   6.361 -1.5750 -1.7624  0.2031
  124OSM   H14C13130   2.294   3.616   6.236 -5.0167 -1.9687 -1.1352
  124OSM    C1313131   2.171   3.373   6.151 -0.2907 -0.4573  0.2649
  124OSM   H13A13132   2.121   3.278   6.160  0.6991 -1.0496 -0.4568
  124OSM   H13B13133   2.252   3.361   6.081  1.2638  0.0948  1.9093
  124OSM   H13C13134   2.093   3.440   6.118 -0.1805 -0.0956  0.7280
  124OSM    C1213135   2.122   3.458   6.387  0.5644 -0.2207 -0.9231
  124OSM   H12A13136   2.170   3.485   6.480 -0.1495  3.9411 -1.6698
  124OSM   H12B13137   2.043   3.384   6.391  0.0148  0.4230  0.3461
  124OSM    C1113138   2.047   3.593   6.357 -0.5921  0.4858 -0.0507
  124OSM   H11A13139   2.124   3.673   6.370  1.6311 -1.4964 -0.6164
  124OSM   H11B13140   1.973   3.606   6.439  0.0249 -0.6177  0.6873
  124OSM      P13141   1.841   3.517   6.214 -0.2507  0.4000 -0.0331
  124OSM    O1313142   1.799   3.532   6.074 -0.5692 -0.3611  0.4212
  124OSM    O1413143   1.849   3.380   6.267 -0.5560  0.6171  0.1552
  124OSM    O1113144   1.746   3.593   6.312  0.4434  0.2377 -1.0256
  124OSM    O1213145   1.986   3.592   6.225 -0.4171  0.0302  0.1755
  124OSM    C1S13146   1.753   3.741   6.320 -0.0968 -0.2683 -0.2273
  124OSM    H1S13147   1.690   3.783   6.238  0.4430 -1.4578 -1.2613
  124OSM    H1T13148   1.856   3.782   6.312  1.5090 -3.8403  1.1746
  124OSM     NF13149   1.710   3.944   6.443 -0.1021 -0.1886  0.6957
  124OSM    HNF13150   1.792   3.979   6.488  0.1720  1.9520 -1.3859
  124OSM    C2S13151   1.696   3.799   6.448  0.0623  0.6225 -0.2591
  124OSM    H2S13152   1.590   3.765   6.452  0.1576  0.5148  1.9057
  124OSM    C3S13153   1.755   3.733   6.575 -1.1054  0.3180 -0.4416
  124OSM    H3S13154   1.866   3.740   6.579 -0.9577 -2.4492  1.5376
  124OSM     O313155   1.731   3.590   6.566  0.0549 -0.0348  0.3746
  124OSM    HO313156   1.723   3.580   6.471  0.4351  0.1883  0.3207
  124OSM    C4S13157   1.704   3.775   6.703  0.4771  0.3452 -0.1739
  124OSM    H4S13158   1.595   3.786   6.705  0.2315 -2.0211  0.6714
  124OSM    C5S13159   1.778   3.803   6.813  0.1896  0.2057 -0.6946
  124OSM    H5S13160   1.887   3.816   6.810  0.2043  0.0339 -0.8876
  124OSM    C6S13161   1.718   3.843   6.945 -0.4083 -0.8360  0.6109
  124OSM    H6S13162   1.607   3.832   6.944 -0.5950  0.7824  1.4208
  124OSM    H6T13163   1.749   3.946   6.973 -1.5693 -0.2486 -0.2148
  124OSM    C7S13164   1.769   3.754   7.055  0.2700 -0.3540  0.3636
  124OSM    H7S13165   1.880   3.755   7.068  0.1184  0.3386  1.7051
  124OSM    H7T13166   1.757   3.647   7.030 -1.2411  0.2740 -1.8010
  124OSM    C8S13167   1.717   3.773   7.194 -0.6602  0.2033  0.2547
  124OSM    H8S13168   1.726   3.683   7.258 -1.5078 -0.5542 -0.6782
  124OSM    H8T13169   1.607   3.787   7.189 -0.7022 -0.5551 -1.2477
  124OSM    C9S13170   1.795   3.877   7.266  0.5952 -0.5031  0.0981
  124OSM    H9S13171   1.809   3.967   7.203  0.6922  0.8920  2.0611
  124OSM    H9T13172   1.903   3.849   7.262  0.6704 -0.0405 -1.3423
  124OSM   C10S13173   1.744   3.905   7.407 -0.3082 -0.6104 -0.2051
  124OSM   H10S13174   1.685   3.837   7.472  0.2534  0.9859  2.0132
  124OSM   H10T13175   1.673   3.986   7.381 -0.7124 -0.6047  0.9252
  124OSM   C11S13176   1.866   3.944   7.493  0.0424 -0.3419 -0.4979
  124OSM   H11S13177   1.924   4.029   7.450 -1.2342  1.5243  1.4056
  124OSM   H11T13178   1.943   3.864   7.492 -0.4857 -0.8489 -0.3745
  124OSM   C12S13179   1.828   3.974   7.636  0.3595  0.0465 -0.2825
  124OSM   H12S13180   1.918   3.989   7.700 -0.4814 -2.0760  1.4642
  124OSM   H12T13181   1.772   3.888   7.678  0.0335 -0.0828 -0.9886
  124OSM   C13S13182   1.746   4.103   7.632  0.5913  0.7267  0.1179
  124OSM   H13S13183   1.657   4.102   7.566  0.7192 -0.6196 -0.0533
  124OSM   H13T13184   1.813   4.189   7.610  2.3246 -0.6448 -0.1111
  124OSM   C14S13185   1.675   4.130   7.762 -0.0361 -0.0282 -0.3458
  124OSM   H14S13186   1.641   4.030   7.798 -0.0958  0.8677  2.1615
  124OSM   H14T13187   1.587   4.197   7.768  0.3637  0.3675  1.4048
  124OSM   C15S13188   1.769   4.197   7.872 -0.3108 -0.6097  0.4843
  124OSM   H15S13189   1.808   4.289   7.823 -0.5231 -0.4609  0.5964
  124OSM   H15T13190   1.857   4.141   7.912  0.7849 -0.0117 -1.0527
  124OSM   C16S13191   1.682   4.235   7.991 -0.3108 -0.3514  0.0472
  124OSM   H16S13192   1.596   4.295   7.955  0.1744  1.4109  1.7770
  124OSM   H16T13193   1.737   4.305   8.057  0.0070  0.0205 -0.6013
  124OSM   C17S13194   1.625   4.112   8.077 -0.1311  0.0431  0.0094
  124OSM   H17S13195   1.706   4.041   8.104 -0.8585 -1.3972 -1.5597
  124OSM   H17T13196   1.554   4.059   8.011 -1.8368  0.7820  1.2067
  124OSM   C18S13197   1.553   4.162   8.198 -0.7272  0.1234 -0.4790
  124OSM   H18S13198   1.504   4.078   8.252  1.4029 -0.7108  0.1910
  124OSM   H18T13199   1.480   4.246   8.189  0.2964  1.0437 -0.3086
  124OSM   H18U13200   1.618   4.208   8.275 -0.1488  0.7512 -1.3383
  124OSM    C1F13201   1.632   4.031   6.377  0.0857  0.4613 -0.1289
  124OSM     OF13202   1.544   3.994   6.298  0.2669 -0.6557 -0.2157
  124OSM    C2F13203   1.660   4.178   6.407  0.4002  1.0251 -0.4741
  124OSM    H2F13204   1.761   4.184   6.454 -0.0897 -1.0034  0.9011
  124OSM    H2G13205   1.591   4.210   6.488  2.2486  2.5346  0.5655
  124OSM    C3F13206   1.656   4.257   6.270  0.1329  0.9219  0.7162
  124OSM    H3F13207   1.555   4.234   6.231 -0.1293  0.8350  1.4314
  124OSM    H3G13208   1.735   4.209   6.208 -1.6966  0.1990 -1.0968
  124OSM    C4F13209   1.675   4.411   6.276 -0.6316  0.8573  0.4199
  124OSM    H4F13210   1.662   4.457   6.176 -0.5410  1.9559  0.9011
  124OSM    H4G13211   1.778   4.431   6.313  0.0568 -1.4753 -0.1295
  124OSM    C5F13212   1.569   4.470   6.373 -0.1814 -0.0800 -0.7005
  124OSM    H5F13213   1.611   4.424   6.464 -0.1435  1.0097 -0.1540
  124OSM    H5G13214   1.469   4.426   6.354  0.6171 -1.0572 -2.8572
  124OSM    C6F13215   1.562   4.619   6.396  0.7952  0.6398  0.8057
  124OSM    H6F13216   1.470   4.669   6.361  1.8121  1.1920 -1.1637
  124OSM    H6G13217   1.648   4.676   6.354  0.6607  0.3626  0.1565
  124OSM    C7F13218   1.563   4.660   6.547 -0.1914  0.1813  0.2714
  124OSM    H7F13219   1.660   4.618   6.583 -0.6096  0.1630  1.3807
  124OSM    H7G13220   1.476   4.619   6.602 -1.4042 -1.6697 -2.8935
  124OSM    C8F13221   1.559   4.811   6.586 -0.4144  0.0371 -0.4103
  124OSM    H8F13222   1.492   4.868   6.517 -1.0751 -1.6027 -1.1389
  124OSM    H8G13223   1.656   4.862   6.567 -0.5068 -0.3031 -1.9130
  124OSM    C9F13224   1.524   4.822   6.733  0.0108  0.1010 -0.0331
  124OSM    H9F13225   1.430   4.779   6.768 -2.3264  3.7565 -1.5524
  124OSM   C10F13226   1.590   4.898   6.828 -0.6184 -0.2329 -0.6916
  124OSM   H10F13227   1.560   4.876   6.932  0.1051 -0.5950 -0.5545
  124OSM   C11F13228   1.716   4.977   6.821  0.4175  0.2823 -0.1921
  124OSM   H11F13229   1.708   5.078   6.867  0.0617  0.6119 -0.9704
  124OSM   H11G13230   1.727   5.017   6.718 -1.2235  2.6570  0.5130
  124OSM   C12F13231   1.845   4.904   6.874  0.7047  0.3671 -0.3253
  124OSM   H12F13232   1.922   4.985   6.869 -0.5383  1.6836  1.2640
  124OSM   H12G13233   1.866   4.820   6.804 -1.5909  0.0143 -0.6138
  124OSM   C13F13234   1.837   4.847   7.012  0.3616 -0.2414  0.1440
  124OSM   H13F13235   1.925   4.780   7.020  0.1549 -0.4454  0.7190
  124OSM   H13G13236   1.747   4.789   7.044 -0.6400  0.8432 -0.6746
  124OSM   C14F13237   1.839   4.959   7.121  0.4715 -0.1862  0.2038
  124OSM   H14F13238   1.756   5.022   7.082  0.2447 -0.2567  0.5729
  124OSM   H14G13239   1.932   5.017   7.102  0.2925 -0.2858 -1.0465
  124OSM   C15F13240   1.831   4.912   7.272  0.2444 -0.6036  0.5557
  124OSM   H15F13241   1.919   4.950   7.328  0.5128  0.1858 -0.3881
  124OSM   H15G13242   1.841   4.801   7.274  1.2196 -0.5134  1.4185
  124OSM   C16F13243   1.706   4.943   7.350 -0.2966  0.9594  0.0501
  124OSM   H16F13244   1.622   4.895   7.295  1.8751  1.0732 -3.5712
  124OSM   H16G13245   1.698   5.054   7.351 -1.4246  0.8867  1.7259
  124OSM   C17F13246   1.713   4.885   7.495  0.4545 -0.6448  0.0930
  124OSM   H17F13247   1.809   4.915   7.542 -0.1124  0.4968  0.5174
  124OSM   H17G13248   1.718   4.778   7.465  0.2001 -0.4135 -0.7951
  124OSM   C18F13249   1.585   4.913   7.575 -0.3269 -0.2129  0.1424
  124OSM   H18F13250   1.497   4.915   7.506 -0.9403  1.2644  0.9426
  124OSM   H18G13251   1.597   5.012   7.624 -3.5873 -1.0882  2.9550
  124OSM   H18H13252   1.564   4.842   7.657 -2.3383  0.1860  0.0181
  125OSM      N13253   4.477   4.028   5.831  0.2861 -0.0452 -0.9588
  125OSM    C1513254   4.374   4.054   5.724 -0.1702 -0.2455  0.3715
  125OSM   H15A13255   4.405   4.013   5.630  0.4428 -0.7192  0.7781
  125OSM   H15B13256   4.369   4.162   5.721  0.0370 -0.2294  0.5471
  125OSM   H15C13257   4.277   4.011   5.743 -0.0586  0.2011  2.0975
  125OSM    C1413258   4.475   3.878   5.864 -0.1013  0.1520  0.5392
  125OSM   H14A13259   4.536   3.817   5.799  0.9429  1.0650  0.6294
  125OSM   H14B13260   4.374   3.845   5.879 -0.3107  0.2535 -0.5969
  125OSM   H14C13261   4.530   3.866   5.956  0.9719 -0.6250 -0.1928
  125OSM    C1313262   4.612   4.051   5.770  0.1509 -0.0994  0.1167
  125OSM   H13A13263   4.628   3.970   5.701  1.5799  0.4684 -0.2366
  125OSM   H13B13264   4.676   4.062   5.856 -1.0517  1.5080  0.8318
  125OSM   H13C13265   4.612   4.137   5.705  2.0750 -0.8358 -0.8727
  125OSM    C1213266   4.445   4.104   5.954  0.0430 -0.0193  0.3341
  125OSM   H12A13267   4.340   4.089   5.974 -0.5297 -1.9493 -3.6153
  125OSM   H12B13268   4.450   4.209   5.928  2.5981 -0.0807  0.4859
  125OSM    C1113269   4.512   4.088   6.092 -0.6083 -0.4946  0.6776
  125OSM   H11A13270   4.511   3.980   6.117  1.4254 -1.0542 -1.5062
  125OSM   H11B13271   4.459   4.144   6.172 -0.2010  1.8122 -0.6249
  125OSM      P13272   4.679   4.287   6.078  0.5794  0.0633  0.0619
  125OSM    O1313273   4.827   4.306   6.076  0.6360 -0.2967 -0.5246
  125OSM    O1413274   4.611   4.351   5.964  0.2703 -0.6604 -0.6404
  125OSM    O1113275   4.630   4.351   6.218 -0.1910 -0.1151 -0.1867
  125OSM    O1213276   4.650   4.131   6.078 -0.2052  0.2316 -0.3205
  125OSM    C1S13277   4.651   4.273   6.334  0.5666 -0.0402 -0.9959
  125OSM    H1S13278   4.751   4.225   6.337  0.2775 -0.5866  1.5360
  125OSM    H1T13279   4.584   4.185   6.327 -1.0609  1.0928  0.0674
  125OSM     NF13280   4.659   4.216   6.578 -0.0914 -0.0732 -0.5575
  125OSM    HNF13281   4.600   4.173   6.646 -1.1418 -2.0269 -2.6348
  125OSM    C2S13282   4.613   4.318   6.481  0.2868  0.1782 -0.4095
  125OSM    H2S13283   4.683   4.400   6.507  1.1684 -0.4647 -0.7713
  125OSM    C3S13284   4.470   4.369   6.506  0.0874  0.4001  0.0188
  125OSM    H3S13285   4.398   4.285   6.511 -0.6938  0.8253 -3.0618
  125OSM     O313286   4.410   4.448   6.398 -0.1254 -0.3936  0.0477
  125OSM    HO313287   4.487   4.471   6.345  0.2856 -2.5987 -0.3639
  125OSM    C4S13288   4.452   4.437   6.639 -0.4046 -0.2704 -0.6639
  125OSM    H4S13289   4.404   4.375   6.716  0.7285  0.1320  0.3815
  125OSM    C5S13290   4.477   4.572   6.662 -0.5122  0.1002 -0.9540
  125OSM    H5S13291   4.495   4.628   6.570  0.3983  0.8298 -0.3334
  125OSM    C6S13292   4.460   4.650   6.790 -0.0245 -0.4065  0.7380
  125OSM    H6S13293   4.362   4.702   6.788  1.0429  1.6240 -1.7877
  125OSM    H6T13294   4.537   4.730   6.796  0.3155 -0.7984  1.7182
  125OSM    C7S13295   4.481   4.563   6.915 -0.2105 -0.2709 -0.6499
  125OSM    H7S13296   4.558   4.483   6.913  0.6595  0.4901  1.2522
  125OSM    H7T13297   4.389   4.501   6.931 -0.1399 -0.5133 -1.1773
  125OSM    C8S13298   4.517   4.650   7.042  0.6411 -0.2616 -0.2687
  125OSM    H8S13299   4.441   4.730   7.050 -0.0602 -1.0184  0.8964
  125OSM    H8T13300   4.615   4.693   7.012 -0.3558  2.4505  0.2767
  125OSM    C9S13301   4.520   4.563   7.173  0.2011  0.4728  0.1955
  125OSM    H9S13302   4.587   4.478   7.148  0.5732  0.0900  2.4758
  125OSM    H9T13303   4.417   4.527   7.194 -0.4950  0.5477 -2.7347
  125OSM   C10S13304   4.569   4.639   7.298 -0.2561  0.5938 -0.3602
  125OSM   H10S13305   4.495   4.720   7.312  0.5022  1.3414 -0.6609
  125OSM   H10T13306   4.669   4.683   7.280 -0.4675  0.3621 -2.1584
  125OSM   C11S13307   4.569   4.550   7.425  0.4128 -0.8760  0.1817
  125OSM   H11S13308   4.640   4.468   7.402  0.1818 -1.1872  0.5902
  125OSM   H11T13309   4.470   4.503   7.442 -0.0584 -0.3261 -0.9783
  125OSM   C12S13310   4.610   4.622   7.556 -0.4426 -0.3217 -0.3341
  125OSM   H12S13311   4.527   4.692   7.580 -0.5958 -0.9062  0.8570
  125OSM   H12T13312   4.709   4.670   7.543 -0.7978  0.4664 -0.1380
  125OSM   C13S13313   4.629   4.517   7.671  0.4919  0.1554 -0.0027
  125OSM   H13S13314   4.696   4.439   7.630 -0.0496 -0.6070  0.5544
  125OSM   H13T13315   4.531   4.465   7.678  1.0719 -0.7418  1.7665
  125OSM   C14S13316   4.690   4.573   7.796  0.2969 -0.0288  0.2364
  125OSM   H14S13317   4.635   4.664   7.828 -2.9998 -0.9294 -2.5524
  125OSM   H14T13318   4.790   4.613   7.767 -0.0656  0.5929 -0.1642
  125OSM   C15S13319   4.698   4.470   7.917  0.2328 -0.1656  0.4240
  125OSM   H15S13320   4.789   4.502   7.973 -0.5384  0.0349  1.5706
  125OSM   H15T13321   4.722   4.373   7.870  2.1216  1.1326 -1.4013
  125OSM   C16S13322   4.579   4.452   8.005  0.2505  0.0436 -0.7240
  125OSM   H16S13323   4.487   4.437   7.945 -1.5619 -0.9816  2.1980
  125OSM   H16T13324   4.571   4.546   8.062 -0.7428 -0.4609 -0.0134
  125OSM   C17S13325   4.579   4.324   8.100  0.2240 -0.1656 -0.0951
  125OSM   H17S13326   4.674   4.331   8.158  0.8933  0.1587 -1.2233
  125OSM   H17T13327   4.579   4.233   8.037  2.7087 -0.7423  0.6735
  125OSM   C18S13328   4.456   4.318   8.186  0.6051  0.4209  0.3775
  125OSM   H18S13329   4.365   4.299   8.125  0.0847  1.9273  0.6554
  125OSM   H18T13330   4.432   4.403   8.254  0.6394  0.6277  0.1338
  125OSM   H18U13331   4.468   4.229   8.251  0.2465 -0.7388 -1.1075
  125OSM    C1F13332   4.781   4.161   6.584  0.8543  0.0176  0.0831
  125OSM     OF13333   4.877   4.220   6.524 -0.5836  0.4913 -0.1030
  125OSM    C2F13334   4.787   4.027   6.650  0.3032 -0.1842 -0.1894
  125OSM    H2F13335   4.847   3.955   6.590 -0.1917 -0.6383 -0.1392
  125OSM    H2G13336   4.687   3.979   6.649 -0.2216  0.9162 -1.6381
  125OSM    C3F13337   4.851   4.035   6.794  0.5043  0.6442  0.6082
  125OSM    H3F13338   4.768   4.077   6.856 -1.5203 -0.8281 -1.0412
  125OSM    H3G13339   4.947   4.089   6.799  1.2697 -0.5379 -0.9731
  125OSM    C4F13340   4.878   3.908   6.866 -0.1031  0.6264  0.6272
  125OSM    H4F13341   4.954   3.847   6.814 -2.0432 -0.9914 -0.3653
  125OSM    H4G13342   4.782   3.854   6.877 -1.4861  3.1966  1.6330
  125OSM    C5F13343   4.927   3.921   7.010 -0.1044 -0.1190 -0.2870
  125OSM    H5F13344   4.867   4.008   7.043  0.4715  0.2035 -0.0876
  125OSM    H5G13345   5.033   3.954   7.006 -0.1440  0.1585  0.6952
  125OSM    C6F13346   4.918   3.791   7.102  0.3027  0.0313  0.1366
  125OSM    H6F13347   4.981   3.713   7.053 -0.9052 -0.0576 -1.2819
  125OSM    H6G13348   4.811   3.762   7.109  0.6813 -0.9645  2.2616
  125OSM    C7F13349   4.971   3.821   7.248 -0.2431 -0.4258 -0.3473
  125OSM    H7F13350   5.069   3.871   7.233 -1.0260  0.1265 -4.1233
  125OSM    H7G13351   4.979   3.716   7.285  0.9662 -1.4138 -3.2689
  125OSM    C8F13352   4.885   3.909   7.338 -0.4552 -0.5463  0.5540
  125OSM    H8F13353   4.781   3.871   7.348 -0.7913  0.1662 -0.1659
  125OSM    H8G13354   4.873   4.011   7.294 -1.7310 -0.2062  1.6565
  125OSM    C9F13355   4.943   3.937   7.479  0.1819 -0.4498 -0.5438
  125OSM    H9F13356   5.000   4.030   7.492  0.2812 -0.4405 -1.0648
  125OSM   C10F13357   4.926   3.859   7.587 -0.3052  0.0484 -0.3983
  125OSM   H10F13358   4.995   3.878   7.671 -1.5155  0.2289  0.5576
  125OSM   C11F13359   4.845   3.734   7.599  0.5829 -0.0311  0.0546
  125OSM   H11F13360   4.888   3.659   7.529 -0.2525 -0.0031 -0.4852
  125OSM   H11G13361   4.743   3.758   7.564 -0.0197  0.4868  2.0612
  125OSM   C12F13362   4.837   3.690   7.749 -0.1801  0.0189  1.4640
  125OSM   H12F13363   4.764   3.607   7.763 -2.1191  1.2809 -0.7384
  125OSM   H12G13364   4.797   3.770   7.814 -2.3754  0.2829 -0.1441
  125OSM   C13F13365   4.968   3.628   7.799 -0.0996 -0.2941  0.0035
  125OSM   H13F13366   5.057   3.693   7.814 -1.6769  1.7251  0.7863
  125OSM   H13G13367   4.996   3.562   7.714  1.1449  3.1186 -2.3489
  125OSM   C14F13368   4.948   3.545   7.927  0.4439  0.4922  0.1433
  125OSM   H14F13369   5.037   3.482   7.946 -0.0872 -0.3055  0.0105
  125OSM   H14G13370   4.861   3.477   7.912  1.0671  0.3669 -3.2328
  125OSM   C15F13371   4.933   3.635   8.051  0.0478  0.6818 -0.4365
  125OSM   H15F13372   4.837   3.690   8.037 -0.0942  0.4499 -0.3726
  125OSM   H15G13373   5.012   3.713   8.050  0.8620 -0.1010  1.0932
  125OSM   C16F13374   4.922   3.562   8.184  0.4885 -0.2971 -0.3847
  125OSM   H16F13375   4.968   3.630   8.259 -2.3735  1.2585  0.0344
  125OSM   H16G13376   4.982   3.469   8.178  2.6992  1.1974 -2.2235
  125OSM   C17F13377   4.770   3.541   8.236  0.4590  0.2996  0.5149
  125OSM   H17F13378   4.722   3.469   8.166  1.8163 -1.3604  1.2479
  125OSM   H17G13379   4.722   3.641   8.243 -1.1728 -0.2835 -1.8269
  125OSM   C18F13380   4.771   3.468   8.368 -0.2049 -0.0041 -0.5276
  125OSM   H18F13381   4.847   3.509   8.438 -1.9052  1.3716  0.5433
  125OSM   H18G13382   4.793   3.360   8.350  0.3041 -0.1150  0.7279
  125OSM   H18H13383   4.684   3.479   8.435  0.2184 -1.0155  0.2062
  126OSM      N13384   2.302   0.638   6.439 -0.3298 -0.3250  0.3904
  126OSM    C1513385   2.264   0.518   6.355  0.1115 -0.0329  0.2058
  126OSM   H15A13386   2.156   0.516   6.345  0.1821 -0.0084 -0.5445
  126OSM   H15B13387   2.295   0.418   6.384  1.5307 -0.3055 -2.1356
  126OSM   H15C13388   2.288   0.545   6.254 -1.1540  2.4124  0.5201
  126OSM    C1413389   2.246   0.625   6.570  0.4719 -0.3539 -0.0720
  126OSM   H14A13390   2.262   0.710   6.636 -0.7207  0.3449 -0.6579
  126OSM   H14B13391   2.288   0.537   6.615  0.8127 -1.4455 -2.4808
  126OSM   H14C13392   2.139   0.612   6.575  0.8400 -3.1664  1.0911
  126OSM    C1313393   2.452   0.645   6.454 -0.0755  0.1275 -0.2080
  126OSM   H13A13394   2.480   0.718   6.527  2.1199  0.8460 -1.7387
  126OSM   H13B13395   2.490   0.685   6.361  1.4001 -1.0523 -0.1334
  126OSM   H13C13396   2.498   0.548   6.468 -2.2387 -1.3171 -2.5830
  126OSM    C1213397   2.255   0.768   6.376  0.1544 -0.1530  0.3327
  126OSM   H12A13398   2.150   0.761   6.355  0.4271 -3.0378 -0.3130
  126OSM   H12B13399   2.308   0.773   6.282  0.2890  1.2035  0.4690
  126OSM    C1113400   2.289   0.904   6.436  0.6891  0.4321 -0.7847
  126OSM   H11A13401   2.251   0.986   6.372  0.5984  0.9259 -0.1058
  126OSM   H11B13402   2.396   0.928   6.454  0.4567 -0.0710  1.3900
  126OSM      P13403   2.244   1.060   6.644  0.2868 -0.1409 -0.4621
  126OSM    O1313404   2.346   1.038   6.749 -0.1448 -0.3010  0.3639
  126OSM    O1413405   2.258   1.180   6.561 -0.1866 -0.4848 -0.3222
  126OSM    O1113406   2.097   1.064   6.712 -0.0210 -0.4287 -0.2024
  126OSM    O1213407   2.230   0.925   6.565  0.8945 -0.8301 -0.0455
  126OSM    C1S13408   2.043   0.964   6.802  0.4833  0.3197  0.1910
  126OSM    H1S13409   2.116   0.882   6.815  1.6116  1.0407 -1.4585
  126OSM    H1T13410   1.955   0.917   6.753  1.0849  0.4279 -1.0057
  126OSM     NF13411   1.921   0.920   7.004 -0.6405 -0.1330 -0.2890
  126OSM    HNF13412   1.824   0.929   7.024 -0.4286 -0.6525  1.0315
  126OSM    C2S13413   1.998   1.024   6.932 -0.0334  0.2631 -0.1943
  126OSM    H2S13414   2.091   1.056   6.983  1.1033 -0.1849 -1.9134
  126OSM    C3S13415   1.915   1.155   6.916  0.2856 -0.5570 -0.0441
  126OSM    H3S13416   1.820   1.127   6.865 -1.1417  1.5405  1.4013
  126OSM     O313417   1.957   1.250   6.815 -0.6215 -0.5251 -0.5190
  126OSM    HO313418   2.026   1.204   6.768  0.1186  0.7172 -0.6862
  126OSM    C4S13419   1.878   1.220   7.041 -0.0923 -0.7668 -0.0948
  126OSM    H4S13420   1.784   1.188   7.088 -0.3035 -1.3166 -0.8835
  126OSM    C5S13421   1.952   1.319   7.100  0.4745  0.4493 -0.1854
  126OSM    H5S13422   2.040   1.354   7.044  1.5654 -0.9248  0.6186
  126OSM    C6S13423   1.902   1.395   7.225 -0.5267 -0.3275  0.0526
  126OSM    H6S13424   1.793   1.373   7.225 -0.2964 -1.5294  0.1765
  126OSM    H6T13425   1.924   1.503   7.212 -2.3951  0.2389  1.4734
  126OSM    C7S13426   1.964   1.346   7.359 -0.5666 -0.1267  0.7201
  126OSM    H7S13427   2.072   1.373   7.359 -0.0065 -2.1792 -1.0683
  126OSM    H7T13428   1.956   1.236   7.368 -0.3958 -0.0985  1.2199
  126OSM    C8S13429   1.892   1.410   7.477  0.2422 -0.3496 -0.3236
  126OSM    H8S13430   1.789   1.400   7.438 -0.4742 -2.4578  2.0006
  126OSM    H8T13431   1.922   1.516   7.493 -0.7150 -0.0664 -0.3647
  126OSM    C9S13432   1.919   1.325   7.596  0.4297 -0.4573  0.0747
  126OSM    H9S13433   2.029   1.314   7.612  0.2377 -3.1474 -0.0919
  126OSM    H9T13434   1.886   1.219   7.589 -1.3251 -0.0214  1.2586
  126OSM   C10S13435   1.858   1.368   7.731  0.3339  0.4624 -0.2873
  126OSM   H10S13436   1.748   1.365   7.741  0.5730 -2.5994  2.1729
  126OSM   H10T13437   1.875   1.478   7.737 -0.3849  0.5143  1.0644
  126OSM   C11S13438   1.909   1.284   7.853 -0.0322 -0.0935  0.9136
  126OSM   H11S13439   2.019   1.270   7.843 -0.3739 -2.5128  0.2389
  126OSM   H11T13440   1.866   1.183   7.841  0.3753 -0.0874 -0.8546
  126OSM   C12S13441   1.872   1.334   7.994  0.2407  0.1470 -0.2225
  126OSM   H12S13442   1.917   1.434   8.005  1.5357 -0.5834  1.1621
  126OSM   H12T13443   1.928   1.269   8.064  1.4453  1.3922 -0.0374
  126OSM   C13S13444   1.723   1.340   8.025  0.1800 -0.2084  0.0740
  126OSM   H13S13445   1.670   1.259   7.969  1.8192 -1.8799  0.8749
  126OSM   H13T13446   1.692   1.436   7.978  0.1984 -0.0953  0.2971
  126OSM   C14S13447   1.683   1.356   8.169  0.7859  0.3108 -0.1530
  126OSM   H14S13448   1.572   1.354   8.173  0.6971  2.7997 -0.5350
  126OSM   H14T13449   1.715   1.448   8.222  1.5926  0.5195 -0.9783
  126OSM   C15S13450   1.738   1.248   8.262  0.4253 -0.3460 -0.8954
  126OSM   H15S13451   1.847   1.257   8.282  0.2617 -0.9347  0.3554
  126OSM   H15T13452   1.731   1.158   8.198  3.8642 -0.2918 -1.4403
  126OSM   C16S13453   1.664   1.220   8.393  0.8698  0.2465  0.6594
  126OSM   H16S13454   1.564   1.173   8.383  0.5716  0.7084  1.4129
  126OSM   H16T13455   1.651   1.319   8.441  1.5944 -0.1432  1.7099
  126OSM   C17S13456   1.746   1.135   8.493 -0.3112  0.9791 -0.0567
  126OSM   H17S13457   1.833   1.195   8.528 -0.5858  0.6142  1.2960
  126OSM   H17T13458   1.784   1.044   8.442 -2.2644 -0.6423  1.2973
  126OSM   C18S13459   1.669   1.073   8.604  0.1651  0.2864  0.1519
  126OSM   H18S13460   1.737   1.002   8.657  1.1064  0.9056 -0.2277
  126OSM   H18T13461   1.581   1.018   8.563 -0.7315  3.0782 -1.7700
  126OSM   H18U13462   1.619   1.135   8.682  0.4098 -1.6493  1.9178
  126OSM    C1F13463   1.987   0.802   7.031 -0.9357  0.2601  0.3243
  126OSM     OF13464   2.105   0.794   7.045 -0.1577  0.2462 -0.2580
  126OSM    C2F13465   1.899   0.684   7.070  0.2164  0.1003  0.4361
  126OSM    H2F13466   1.799   0.707   7.028  0.9498  0.9690 -0.8790
  126OSM    H2G13467   1.881   0.688   7.179 -0.6463 -2.4005  0.4100
  126OSM    C3F13468   1.949   0.546   7.010  0.7740 -0.0061 -0.2017
  126OSM    H3F13469   2.019   0.517   7.092  1.1180  0.6373 -0.2618
  126OSM    H3G13470   2.011   0.561   6.919  0.3532 -0.3229 -0.5387
  126OSM    C4F13471   1.839   0.438   6.999 -0.1676 -0.2828 -0.3680
  126OSM    H4F13472   1.887   0.352   6.949  0.7085  1.5571 -2.7926
  126OSM    H4G13473   1.755   0.476   6.938  0.4467  0.8246 -0.5494
  126OSM    C5F13474   1.772   0.410   7.134 -0.1768  0.5399 -0.3540
  126OSM    H5F13475   1.715   0.317   7.115  2.3595 -0.8516 -1.2928
  126OSM    H5G13476   1.704   0.495   7.161 -0.7110  0.2694 -0.8387
  126OSM    C6F13477   1.871   0.388   7.251  0.0943  0.5484 -0.2010
  126OSM    H6F13478   1.932   0.475   7.283  0.1711 -0.2578  1.9198
  126OSM    H6G13479   1.947   0.311   7.224  0.0653  0.9461 -1.4385
  126OSM    C7F13480   1.802   0.346   7.385  0.3008  1.0353 -0.0814
  126OSM    H7F13481   1.729   0.266   7.360  1.6892  0.4976 -2.5268
  126OSM    H7G13482   1.748   0.431   7.432  0.2550  0.9855 -0.0444
  126OSM    C8F13483   1.901   0.294   7.490  0.1449  0.2781 -0.2967
  126OSM    H8F13484   1.980   0.231   7.444  2.8169  2.8490  0.5950
  126OSM    H8G13485   1.847   0.238   7.569  0.6280  1.7273  1.0830
  126OSM    C9F13486   1.971   0.405   7.561 -0.0809 -0.0343 -0.5396
  126OSM    H9F13487   2.022   0.465   7.484  3.8463 -1.0513  1.1426
  126OSM   C10F13488   1.982   0.427   7.694  0.3285  0.0900 -0.4658
  126OSM   H10F13489   2.033   0.519   7.726  1.1682 -0.1701 -1.0563
  126OSM   C11F13490   1.914   0.333   7.794  0.4290 -0.0761 -0.3448
  126OSM   H11F13491   1.928   0.226   7.766 -0.5145 -0.2253 -0.2868
  126OSM   H11G13492   1.805   0.355   7.787  0.8474  2.0399 -0.5362
  126OSM   C12F13493   1.959   0.359   7.936  0.0203 -0.4174 -0.3283
  126OSM   H12F13494   1.922   0.461   7.960 -1.7964 -1.5257  1.7392
  126OSM   H12G13495   2.070   0.358   7.937  0.0299 -1.7596 -1.3617
  126OSM   C13F13496   1.893   0.270   8.040  0.3160  0.3944  0.3286
  126OSM   H13F13497   1.934   0.167   8.039 -2.2559 -0.7004  1.7466
  126OSM   H13G13498   1.785   0.261   8.013  0.4017  1.2678 -0.3460
  126OSM   C14F13499   1.904   0.337   8.179  0.7067 -0.0332  0.3191
  126OSM   H14F13500   2.013   0.356   8.193  0.8581 -1.4010  1.1556
  126OSM   H14G13501   1.870   0.264   8.256  1.3037 -0.6096  0.0431
  126OSM   C15F13502   1.811   0.456   8.197  0.2057  0.1032  0.4830
  126OSM   H15F13503   1.709   0.421   8.171 -0.0515  1.3773 -0.2396
  126OSM   H15G13504   1.826   0.533   8.118 -0.7132 -0.8869 -0.6792
  126OSM   C16F13505   1.802   0.518   8.332  0.6746 -0.1475 -0.3296
  126OSM   H16F13506   1.900   0.564   8.355  0.7873  0.2344 -1.5816
  126OSM   H16G13507   1.793   0.443   8.414  0.0373  0.1051 -0.1637
  126OSM   C17F13508   1.687   0.618   8.344  0.7632  0.0256  0.3880
  126OSM   H17F13509   1.597   0.558   8.318 -0.2139  2.4018 -2.0230
  126OSM   H17G13510   1.720   0.691   8.267 -0.4753 -0.9426 -1.1026
  126OSM   C18F13511   1.663   0.688   8.481 -0.2714  0.4671 -0.5875
  126OSM   H18F13512   1.592   0.771   8.461 -1.2398 -0.4486 -1.0171
  126OSM   H18G13513   1.760   0.733   8.510 -0.1658  0.3685 -0.7835
  126OSM   H18H13514   1.627   0.610   8.551  0.3529 -0.2082 -1.0092
  127OSM      N13515   0.697   2.271   6.004 -0.1444 -0.1311 -0.1950
  127OSM    C1513516   0.626   2.143   5.971 -0.1052 -0.1515  0.1985
  127OSM   H15A13517   0.695   2.071   5.927 -1.0564 -0.3025 -1.0690
  127OSM   H15B13518   0.534   2.150   5.916 -0.7801 -1.1831  1.1748
  127OSM   H15C13519   0.598   2.090   6.061  2.9733 -2.1853  0.0532
  127OSM    C1413520   0.711   2.361   5.883 -0.5207 -0.2095 -0.3825
  127OSM   H14A13521   0.767   2.310   5.806  0.6318  1.2546 -0.5427
  127OSM   H14B13522   0.760   2.456   5.902 -0.6198 -0.1264 -0.5350
  127OSM   H14C13523   0.611   2.383   5.848 -2.0135 -1.3820  3.0126
  127OSM    C1313524   0.608   2.348   6.100 -0.0641  0.6144  0.4971
  127OSM   H13A13525   0.641   2.322   6.199 -1.8645  0.0413  0.9726
  127OSM   H13B13526   0.505   2.316   6.095 -0.2494  1.3147 -0.2179
  127OSM   H13C13527   0.620   2.455   6.096  0.4527  0.6106  1.6720
  127OSM    C1213528   0.834   2.234   6.062 -0.3606  0.1534 -0.3899
  127OSM   H12A13529   0.883   2.185   5.979 -1.7951 -0.0750 -1.1117
  127OSM   H12B13530   0.818   2.163   6.141  1.1398  0.4208  0.1662
  127OSM    C1113531   0.914   2.356   6.122 -0.9110  0.2206 -0.1389
  127OSM   H11A13532   0.926   2.434   6.044 -2.0872  0.8639  0.2984
  127OSM   H11B13533   1.016   2.317   6.137 -1.2497 -2.0138 -3.3290
  127OSM      P13534   0.857   2.318   6.377  0.1860  0.2567 -0.0350
  127OSM    O1313535   0.956   2.212   6.369 -0.2342 -0.3694 -0.1834
  127OSM    O1413536   0.866   2.402   6.497  0.0862 -0.0069  0.1955
  127OSM    O1113537   0.717   2.248   6.390 -0.2329 -0.6857 -0.4579
  127OSM    O1213538   0.852   2.407   6.244  0.1522 -0.4855 -0.3169
  127OSM    C1S13539   0.698   2.141   6.486 -0.0746  0.3287  0.9123
  127OSM    H1S13540   0.794   2.109   6.533  0.4453 -0.6393 -0.7635
  127OSM    H1T13541   0.650   2.049   6.447  1.8864 -1.3852  2.4391
  127OSM     NF13542   0.587   2.078   6.705 -0.2862 -0.0924 -0.2016
  127OSM    HNF13543   0.494   2.044   6.713  0.1484 -1.1591  0.4383
  127OSM    C2S13544   0.602   2.181   6.603 -0.0920  0.2635 -0.2050
  127OSM    H2S13545   0.639   2.276   6.647 -0.3994  1.4904 -2.4863
  127OSM    C3S13546   0.462   2.230   6.535  0.0566 -0.4488 -0.4469
  127OSM    H3S13547   0.405   2.151   6.481  0.8348 -0.5759 -1.0901
  127OSM     O313548   0.485   2.332   6.430  0.5258  0.5107 -0.1588
  127OSM    HO313549   0.578   2.325   6.410  0.4122 -3.2073  0.3041
  127OSM    C4S13550   0.382   2.280   6.644  0.0136 -0.1263 -0.5356
  127OSM    H4S13551   0.420   2.374   6.687 -0.6147  0.6610 -1.7020
  127OSM    C5S13552   0.261   2.233   6.685  0.2709 -0.4458 -0.5507
  127OSM    H5S13553   0.199   2.166   6.623 -0.4988  0.4390 -0.7454
  127OSM    C6S13554   0.188   2.299   6.795 -0.2530 -0.6735  0.0479
  127OSM    H6S13555   0.174   2.231   6.882  0.8889  1.5361  2.0330
  127OSM    H6T13556   0.083   2.316   6.761  0.6082  2.0304 -1.3883
  127OSM    C7S13557   0.236   2.440   6.846 -0.1520 -0.2637  0.4713
  127OSM    H7S13558   0.155   2.483   6.908 -2.8266 -2.7355 -1.2161
  127OSM    H7T13559   0.260   2.501   6.756 -0.3457  0.4247  0.8891
  127OSM    C8S13560   0.359   2.438   6.939 -0.1311 -0.4987 -0.1147
  127OSM    H8S13561   0.413   2.534   6.927 -0.9788  0.1943  1.4787
  127OSM    H8T13562   0.425   2.353   6.910 -1.4385 -1.2214 -1.0502
  127OSM    C9S13563   0.324   2.423   7.091  0.6383 -0.3451 -0.1729
  127OSM    H9S13564   0.235   2.359   7.108  1.6002 -1.2103  1.8456
  127OSM    H9T13565   0.288   2.520   7.132 -0.5372 -0.6717 -0.4137
  127OSM   C10S13566   0.446   2.382   7.178  0.0910 -0.0616  0.0633
  127OSM   H10S13567   0.521   2.464   7.178  0.2556 -0.2053  1.1641
  127OSM   H10T13568   0.488   2.288   7.136  0.4535 -0.0919  0.4909
  127OSM   C11S13569   0.404   2.369   7.333 -0.3553  0.3173 -0.2675
  127OSM   H11S13570   0.315   2.302   7.338  0.1347 -0.4580 -1.4761
  127OSM   H11T13571   0.368   2.462   7.382  1.4450  0.0632  1.5734
  127OSM   C12S13572   0.515   2.314   7.416  0.3039  0.2021  0.2294
  127OSM   H12S13573   0.484   2.310   7.523  2.1467 -0.9239  0.7522
  127OSM   H12T13574   0.612   2.367   7.403 -0.1859  1.2942  0.9586
  127OSM   C13S13575   0.551   2.172   7.368  0.4180  0.5154  0.1374
  127OSM   H13S13576   0.595   2.185   7.267  1.8546 -2.9193  0.2489
  127OSM   H13T13577   0.466   2.100   7.365  1.9301 -1.3009 -0.4180
  127OSM   C14S13578   0.666   2.105   7.453  0.3852 -0.2673  0.2304
  127OSM   H14S13579   0.752   2.175   7.465  0.5993 -0.3216 -0.9357
  127OSM   H14T13580   0.704   2.019   7.393 -1.4826  0.5436 -2.1978
  127OSM   C15S13581   0.613   2.070   7.586 -0.1917  0.5074 -0.3931
  127OSM   H15S13582   0.519   2.011   7.577  0.8365 -1.2740  0.1572
  127OSM   H15T13583   0.588   2.163   7.641 -2.5084 -0.0454 -0.4298
  127OSM   C16S13584   0.721   1.994   7.664  0.3556  0.1208  0.4176
  127OSM   H16S13585   0.797   2.069   7.693 -2.0002  2.4854  0.6829
  127OSM   H16T13586   0.765   1.920   7.594  1.0300  1.5671 -0.7087
  127OSM   C17S13587   0.683   1.927   7.799 -0.3748 -0.6997  0.2989
  127OSM   H17S13588   0.756   1.843   7.804  2.3536  1.5114 -0.3761
  127OSM   H17T13589   0.578   1.893   7.796 -0.8262  0.6891 -0.0777
  127OSM   C18S13590   0.701   2.015   7.923  0.2658  0.6888 -0.3051
  127OSM   H18S13591   0.668   1.950   8.007  0.9871 -0.4191 -0.8635
  127OSM   H18T13592   0.644   2.110   7.920  0.1840  0.5891 -2.3557
  127OSM   H18U13593   0.810   2.039   7.929  0.9647 -1.6923 -2.4356
  127OSM    C1F13594   0.690   2.041   6.782 -0.3579 -0.3255 -0.3507
  127OSM     OF13595   0.782   2.113   6.795  0.3538 -0.6854 -0.0478
  127OSM    C2F13596   0.680   1.911   6.846 -0.4356  0.0393  0.4280
  127OSM    H2F13597   0.757   1.844   6.802 -0.0755  0.8854 -0.2546
  127OSM    H2G13598   0.578   1.868   6.835 -0.5640  0.2126  0.9358
  127OSM    C3F13599   0.695   1.933   6.995  0.2494  0.4644 -0.2014
  127OSM    H3F13600   0.618   1.999   7.041 -0.1094 -0.1514  0.0896
  127OSM    H3G13601   0.795   1.972   7.024 -1.1756  3.7205  0.6520
  127OSM    C4F13602   0.677   1.797   7.067 -0.0397  0.3564  0.2469
  127OSM    H4F13603   0.741   1.715   7.027  1.1559  1.0575  0.6858
  127OSM    H4G13604   0.573   1.758   7.058 -0.0943  0.3319  0.9246
  127OSM    C5F13605   0.702   1.806   7.225 -0.0819 -0.3424  0.3726
  127OSM    H5F13606   0.619   1.867   7.268  1.1100  0.1089  2.0959
  127OSM    H5G13607   0.785   1.877   7.247  1.0930 -1.2672 -0.9847
  127OSM    C6F13608   0.713   1.670   7.295 -1.0762 -0.6053 -0.4642
  127OSM    H6F13609   0.763   1.672   7.395 -3.9710 -3.1883  1.1576
  127OSM    H6G13610   0.791   1.619   7.235 -0.0453 -0.8847  1.0729
  127OSM    C7F13611   0.580   1.584   7.302 -0.2299  0.6718 -0.3904
  127OSM    H7F13612   0.589   1.485   7.351 -0.8640 -0.8881 -3.3218
  127OSM    H7G13613   0.552   1.558   7.198 -0.7059 -0.4409  0.0064
  127OSM    C8F13614   0.454   1.655   7.343 -0.6408 -0.4221  0.2926
  127OSM    H8F13615   0.368   1.585   7.334  1.1091 -2.8498  1.7707
  127OSM    H8G13616   0.446   1.741   7.273 -1.9632  0.5336  1.5884
  127OSM    C9F13617   0.488   1.704   7.482  0.2472  0.1223  0.2077
  127OSM    H9F13618   0.591   1.685   7.515  0.0593  0.5617  1.0646
  127OSM   C10F13619   0.404   1.758   7.573  0.0642 -1.0119  0.4993
  127OSM   H10F13620   0.436   1.788   7.674 -1.4160 -1.7455  1.2139
  127OSM   C11F13621   0.255   1.787   7.545 -0.0423  0.3520 -0.3405
  127OSM   H11F13622   0.195   1.786   7.638  1.2757 -2.8360  0.5626
  127OSM   H11G13623   0.208   1.714   7.475  0.2983 -1.5862  1.4006
  127OSM   C12F13624   0.254   1.919   7.471 -0.1790 -0.8428 -0.6495
  127OSM   H12F13625   0.305   1.915   7.373  3.5725 -2.8191  1.2892
  127OSM   H12G13626   0.308   1.991   7.537 -2.0795 -1.4118  1.5969
  127OSM   C13F13627   0.112   1.985   7.476  0.0272  0.2614 -0.0155
  127OSM   H13F13628   0.066   1.960   7.574  0.6407 -1.3109 -0.1037
  127OSM   H13G13629   0.046   1.935   7.402  2.2597 -3.3928  0.3379
  127OSM   C14F13630   0.119   2.137   7.452 -0.0825 -0.0061  0.2115
  127OSM   H14F13631   0.166   2.145   7.352 -1.8029  2.8691 -0.4073
  127OSM   H14G13632   0.190   2.172   7.530  1.6800 -1.5065 -0.6665
  127OSM   C15F13633  -0.021   2.192   7.445  0.6985  0.2075  0.0388
  127OSM   H15F13634  -0.079   2.173   7.538  0.3123  0.7511 -0.0894
  127OSM   H15G13635  -0.063   2.142   7.355  1.6620  0.8794 -0.7963
  127OSM   C16F13636  -0.031   2.341   7.408  0.0790  0.4128 -0.2689
  127OSM   H16F13637   0.013   2.395   7.494 -0.5002  1.6933 -0.7729
  127OSM   H16G13638  -0.136   2.375   7.396 -0.5646 -1.7807 -1.0610
  127OSM   C17F13639   0.045   2.379   7.276  0.4565 -0.5820 -0.1244
  127OSM   H17F13640   0.042   2.289   7.211  3.3830 -2.2199  1.8793
  127OSM   H17G13641   0.150   2.401   7.305 -0.1596  2.4985 -0.1310
  127OSM   C18F13642  -0.021   2.497   7.199  0.2368  0.4704  0.6256
  127OSM   H18F13643  -0.057   2.577   7.268  0.4560  0.4683  0.7439
  127OSM   H18G13644  -0.105   2.463   7.135  0.2495  1.9465 -0.2026
  127OSM   H18H13645   0.056   2.538   7.131  2.1223  0.8172  2.9066
  128OSM      N13646   6.783   6.327   5.882 -0.5816  0.3162 -0.0957
  128OSM    C1513647   6.922   6.284   5.873 -0.0495  0.3063 -0.4636
  128OSM   H15A13648   6.988   6.351   5.927 -0.4332 -0.0374  0.4414
  128OSM   H15B13649   6.957   6.279   5.771 -0.8412 -2.2843 -0.6439
  128OSM   H15C13650   6.945   6.186   5.913  0.3032  0.9171  0.8900
  128OSM    C1413651   6.774   6.464   5.819  0.2318 -0.4447  0.0534
  128OSM   H14A13652   6.830   6.467   5.726  0.0845 -0.1793 -0.0285
  128OSM   H14B13653   6.815   6.538   5.886  0.8390 -1.5155  0.8717
  128OSM   H14C13654   6.670   6.491   5.806 -0.4193 -2.4134  1.0308
  128OSM    C1313655   6.698   6.229   5.802 -0.1781  0.6242 -0.4415
  128OSM   H13A13656   6.594   6.252   5.823 -0.0086  1.9411 -1.0003
  128OSM   H13B13657   6.701   6.128   5.840  1.4521  1.4421  1.6410
  128OSM   H13C13658   6.725   6.230   5.697 -1.5258  0.8130 -0.7964
  128OSM    C1213659   6.746   6.341   6.030  0.3320  0.1557 -0.5914
  128OSM   H12A13660   6.755   6.248   6.083 -0.1376  1.5048  1.9431
  128OSM   H12B13661   6.639   6.360   6.033  0.5709  1.4421  1.3271
  128OSM    C1113662   6.813   6.452   6.113  1.0248 -0.4787  0.0613
  128OSM   H11A13663   6.789   6.446   6.222 -0.7481 -0.9808 -0.3477
  128OSM   H11B13664   6.772   6.547   6.072  0.0140 -1.1235 -0.4399
  128OSM      P13665   7.045   6.358   6.174 -0.0976 -0.2674 -0.5120
  128OSM    O1313666   6.967   6.251   6.235  0.1203  0.3392  0.0159
  128OSM    O1413667   7.148   6.314   6.080  0.0278  0.6872  0.2511
  128OSM    O1113668   7.119   6.443   6.290  0.3798  0.4090 -0.2335
  128OSM    O1213669   6.952   6.463   6.104 -0.2204  0.6641  0.2474
  128OSM    C1S13670   7.020   6.501   6.380  0.3059  0.5434  0.7400
  128OSM    H1S13671   6.925   6.445   6.394  1.2596 -1.3119 -0.0787
  128OSM    H1T13672   7.016   6.604   6.339  0.9154  0.4764  0.5085
  128OSM     NF13673   6.966   6.551   6.616 -0.4294  0.0298  0.1954
  128OSM    HNF13674   6.963   6.649   6.638 -0.6824  1.2751 -4.7817
  128OSM    C2S13675   7.077   6.526   6.523  0.6260 -0.1905 -0.2277
  128OSM    H2S13676   7.135   6.436   6.553  2.2503  0.4788 -1.2941
  128OSM    C3S13677   7.186   6.644   6.511 -0.1928 -0.0832  0.8400
  128OSM    H3S13678   7.125   6.733   6.482  2.7136  0.9620 -2.4628
  128OSM     O313679   7.271   6.632   6.400  0.3314 -1.0062  0.0213
  128OSM    HO313680   7.219   6.569   6.349 -1.3615  0.7269 -0.4346
  128OSM    C4S13681   7.257   6.661   6.632 -0.4884 -0.3243 -0.5041
  128OSM    H4S13682   7.220   6.736   6.702 -0.9278 -1.8710  0.9673
  128OSM    C5S13683   7.379   6.609   6.674  0.0975 -0.1498 -0.1044
  128OSM    H5S13684   7.434   6.555   6.596  1.1857  1.4577 -0.4702
  128OSM    C6S13685   7.451   6.644   6.797 -0.6108  0.0008 -0.3539
  128OSM    H6S13686   7.470   6.754   6.793  0.7063 -0.2945 -2.4327
  128OSM    H6T13687   7.550   6.596   6.792 -1.6384 -2.3527  0.9522
  128OSM    C7S13688   7.389   6.593   6.932  0.0458 -0.3049 -0.3594
  128OSM    H7S13689   7.384   6.483   6.917 -0.3441 -0.8139  3.2151
  128OSM    H7T13690   7.289   6.634   6.954  0.9877  1.6494  0.4177
  128OSM    C8S13691   7.480   6.614   7.050 -0.1326  0.1232 -1.2115
  128OSM    H8S13692   7.510   6.721   7.057  1.7113 -0.4361 -0.0869
  128OSM    H8T13693   7.574   6.554   7.040  0.4090  0.4314  1.7073
  128OSM    C9S13694   7.418   6.557   7.178  0.0032  0.4775  0.0222
  128OSM    H9S13695   7.414   6.446   7.183  0.8858  0.4592  0.3747
  128OSM    H9T13696   7.322   6.610   7.191 -0.4926 -0.0152 -1.4895
  128OSM   C10S13697   7.509   6.598   7.297  0.4948 -0.5395 -0.0316
  128OSM   H10S13698   7.524   6.708   7.291 -0.2774 -0.4860 -1.1796
  128OSM   H10T13699   7.609   6.555   7.275 -0.5604 -1.8834 -2.3822
  128OSM   C11S13700   7.450   6.553   7.442 -0.0553  0.2462  0.3629
  128OSM   H11S13701   7.453   6.442   7.448  1.4185  0.3124  1.2167
  128OSM   H11T13702   7.345   6.587   7.454 -0.6155 -1.2372 -0.2722
  128OSM   C12S13703   7.530   6.599   7.562  0.4728  0.3131 -0.1730
  128OSM   H12S13704   7.550   6.708   7.553 -2.2581  1.0365  2.0913
  128OSM   H12T13705   7.627   6.544   7.566 -1.0622 -2.4732 -0.2147
  128OSM   C13S13706   7.463   6.561   7.696  0.4239  0.9035 -0.4909
  128OSM   H13S13707   7.462   6.451   7.705  0.7357  0.8142 -1.5379
  128OSM   H13T13708   7.358   6.598   7.700 -0.3727 -0.9645 -3.2515
  128OSM   C14S13709   7.530   6.616   7.829  0.4397 -0.8635 -0.1268
  128OSM   H14S13710   7.525   6.726   7.837  0.3901 -0.7186 -2.0424
  128OSM   H14T13711   7.636   6.585   7.837  0.7641  0.5181  1.0106
  128OSM   C15S13712   7.452   6.561   7.953 -0.6214 -0.1057  0.1576
  128OSM   H15S13713   7.443   6.451   7.941 -1.6971  0.1746 -1.8609
  128OSM   H15T13714   7.354   6.614   7.950 -1.1825 -1.1943 -2.7708
  128OSM   C16S13715   7.536   6.591   8.083  0.1837  0.5241 -0.4792
  128OSM   H16S13716   7.548   6.702   8.090 -2.0427  0.7424  0.3641
  128OSM   H16T13717   7.635   6.546   8.064 -0.0180 -1.1144  2.1461
  128OSM   C17S13718   7.481   6.525   8.207 -0.3065  0.1632 -0.1912
  128OSM   H17S13719   7.563   6.544   8.280 -0.1439 -0.0543 -0.3174
  128OSM   H17T13720   7.475   6.415   8.194  2.0571 -0.1448  1.0607
  128OSM   C18S13721   7.342   6.573   8.267 -0.4683  0.5091 -0.2943
  128OSM   H18S13722   7.256   6.546   8.201  1.1477 -2.3683 -1.3482
  128OSM   H18T13723   7.329   6.683   8.273 -0.9464  0.4136  0.4184
  128OSM   H18U13724   7.339   6.537   8.372  0.8971 -0.3453 -0.5373
  128OSM    C1F13725   6.871   6.468   6.654 -0.9813 -0.1835 -0.3658
  128OSM     OF13726   6.855   6.354   6.601  0.2905 -0.4381 -0.2396
  128OSM    C2F13727   6.802   6.508   6.778 -0.2486  0.5328  0.1964
  128OSM    H2F13728   6.695   6.523   6.752 -0.5218 -0.1888  0.8777
  128OSM    H2G13729   6.837   6.607   6.812  0.8063  0.2245  0.0050
  128OSM    C3F13730   6.805   6.387   6.875 -0.0064 -0.6325  0.0201
  128OSM    H3F13731   6.767   6.289   6.840 -0.0424 -0.2533 -1.0147
  128OSM    H3G13732   6.741   6.416   6.961 -1.2824  0.1051 -1.1678
  128OSM    C4F13733   6.945   6.369   6.935 -0.3404  0.1335 -0.6608
  128OSM    H4F13734   6.980   6.471   6.965 -0.3698  0.1135 -0.5612
  128OSM    H4G13735   7.023   6.331   6.865  2.4809  2.0329  1.3181
  128OSM    C5F13736   6.934   6.281   7.062  0.0969 -0.3170 -0.0767
  128OSM    H5F13737   6.914   6.174   7.039 -0.3011 -0.2438 -0.0679
  128OSM    H5G13738   6.852   6.324   7.123 -0.0630  0.0633 -0.5541
  128OSM    C6F13739   7.058   6.285   7.143  0.6756 -0.1924  0.4981
  128OSM    H6F13740   7.089   6.387   7.176  1.9161 -0.4216  0.0855
  128OSM    H6G13741   7.143   6.241   7.086  0.7273  1.9380 -1.1206
  128OSM    C7F13742   7.044   6.214   7.278  0.0730 -0.7198  0.1397
  128OSM    H7F13743   7.011   6.111   7.253 -0.3401 -0.3134 -1.0307
  128OSM    H7G13744   6.961   6.253   7.341  2.9886  1.3097  2.9283
  128OSM    C8F13745   7.176   6.239   7.361  0.5916  0.3499 -0.2710
  128OSM    H8F13746   7.146   6.212   7.464  2.2537 -1.4833 -0.2357
  128OSM    H8G13747   7.203   6.346   7.353  2.3349 -0.1909 -2.1247
  128OSM    C9F13748   7.301   6.170   7.306  0.2111  0.1318  0.0755
  128OSM    H9F13749   7.345   6.211   7.213  0.1016  2.0578  0.8436
  128OSM   C10F13750   7.361   6.061   7.357  0.6155  0.1598 -0.0195
  128OSM   H10F13751   7.452   6.024   7.306 -0.2471  0.6802 -1.9937
  128OSM   C11F13752   7.322   5.987   7.477 -0.0204 -0.1729  0.0093
  128OSM   H11F13753   7.365   5.885   7.481 -0.0986 -0.1675  1.2953
  128OSM   H11G13754   7.212   5.975   7.474 -0.2370  1.9713 -1.8234
  128OSM   C12F13755   7.356   6.074   7.604 -0.1235 -0.7211  0.3518
  128OSM   H12F13756   7.260   6.062   7.659 -0.4571 -1.7260 -0.4289
  128OSM   H12G13757   7.364   6.183   7.584  1.8586 -0.7014  1.1823
  128OSM   C13F13758   7.463   6.024   7.703 -0.0341  0.2943 -0.5607
  128OSM   H13F13759   7.561   6.024   7.650 -0.0542 -1.2566 -0.6352
  128OSM   H13G13760   7.434   5.919   7.725  0.7204 -0.1059 -1.4062
  128OSM   C14F13761   7.463   6.107   7.834  0.0758 -0.4147 -0.0049
  128OSM   H14F13762   7.356   6.106   7.865 -0.4490  0.6979 -1.6904
  128OSM   H14G13763   7.471   6.214   7.806 -1.3703 -0.1805  0.4273
  128OSM   C15F13764   7.546   6.049   7.943 -0.0802 -0.2408  0.1568
  128OSM   H15F13765   7.651   6.058   7.909 -0.7003  1.9011 -1.3132
  128OSM   H15G13766   7.521   5.944   7.966  0.6706 -0.0874  1.7670
  128OSM   C16F13767   7.531   6.119   8.085 -0.2684  0.2507  0.5951
  128OSM   H16F13768   7.453   6.198   8.077 -0.9534 -0.4745  0.0163
  128OSM   H16G13769   7.619   6.178   8.120  0.1203  0.2435 -0.3617
  128OSM   C17F13770   7.492   6.022   8.191 -0.5573 -0.4807 -0.4667
  128OSM   H17F13771   7.545   5.925   8.179  0.5938  0.1271 -0.3666
  128OSM   H17G13772   7.388   5.989   8.172 -1.5283  3.0011 -1.4755
  128OSM   C18F13773   7.514   6.065   8.335 -0.0116  0.5538  0.0336
  128OSM   H18F13774   7.571   6.161   8.338  1.3036 -0.0416 -3.4570
  128OSM   H18G13775   7.574   5.998   8.401  2.2191  0.6327 -1.8114
  128OSM   H18H13776   7.414   6.097   8.371  0.9455  2.8963  0.6994
  129OSM      N13777   5.280   1.127   5.848  0.2382 -0.0911 -0.0157
  129OSM    C1513778   5.386   1.029   5.853  0.1274  0.2189 -0.6271
  129OSM   H15A13779   5.374   0.959   5.772  1.2090  0.6032 -1.1146
  129OSM   H15B13780   5.386   0.977   5.948  0.0833 -1.5563 -1.5819
  129OSM   H15C13781   5.486   1.068   5.848  0.4371  0.2122  3.5523
  129OSM    C1413782   5.275   1.193   5.713  0.9979 -0.4642  0.9464
  129OSM   H14A13783   5.252   1.125   5.632  2.4757 -0.2777  0.3576
  129OSM   H14B13784   5.370   1.238   5.687  0.9718 -0.9605 -0.0257
  129OSM   H14C13785   5.199   1.270   5.716  3.5713  2.1575  0.8242
  129OSM    C1313786   5.154   1.047   5.868 -0.3696  0.3585 -0.3170
  129OSM   H13A13787   5.154   0.953   5.814 -2.3777  1.4540 -2.3067
  129OSM   H13B13788   5.059   1.091   5.843 -0.9777 -1.2593 -0.9756
  129OSM   H13C13789   5.144   1.018   5.971  1.2009  1.4651  0.1675
  129OSM    C1213790   5.287   1.235   5.950  0.3187 -0.1234 -1.3296
  129OSM   H12A13791   5.195   1.292   5.944 -0.1672 -0.6985  0.4833
  129OSM   H12B13792   5.365   1.304   5.920 -0.4631  1.5023  0.2769
  129OSM    C1113793   5.317   1.201   6.091  0.1533 -0.5416 -0.4432
  129OSM   H11A13794   5.420   1.160   6.097 -0.1471 -1.2325  0.1593
  129OSM   H11B13795   5.261   1.112   6.129 -1.5533  0.7389  0.0921
  129OSM      P13796   5.182   1.346   6.263  0.4056  0.7158 -0.1973
  129OSM    O1313797   5.219   1.455   6.359 -0.7335 -0.0108 -0.8684
  129OSM    O1413798   5.064   1.373   6.175 -0.2162 -0.3156  0.1814
  129OSM    O1113799   5.141   1.213   6.341 -0.6192 -0.4938 -0.1146
  129OSM    O1213800   5.306   1.317   6.179  0.3660 -0.0385 -0.2795
  129OSM    C1S13801   5.219   1.181   6.458  0.2241  0.1524 -0.1403
  129OSM    H1S13802   5.292   1.260   6.488  2.3086 -2.4856  2.1154
  129OSM    H1T13803   5.277   1.088   6.441 -0.9777 -0.5760 -0.2337
  129OSM     NF13804   5.208   1.129   6.695  0.5981 -0.1653 -0.5388
  129OSM    HNF13805   5.220   1.034   6.720  0.2996  0.0022  0.2654
  129OSM    C2S13806   5.128   1.156   6.578 -0.3135 -0.2289  0.9682
  129OSM    H2S13807   5.064   1.245   6.598  1.0115  0.6355  1.4909
  129OSM    C3S13808   5.029   1.038   6.540  0.3164  0.0903  0.7441
  129OSM    H3S13809   5.088   0.945   6.526  1.0248  0.6826 -0.2478
  129OSM     O313810   4.943   1.056   6.426  0.1278  0.0224  0.5870
  129OSM    HO313811   4.963   1.144   6.394 -2.1998  0.3753  0.0134
  129OSM    C4S13812   4.942   1.010   6.660 -0.3030 -0.6940 -0.7023
  129OSM    H4S13813   4.993   0.945   6.733 -0.0603  0.2607 -0.0129
  129OSM    C5S13814   4.810   1.045   6.685 -0.4116  0.5822 -0.2467
  129OSM    H5S13815   4.763   1.097   6.600  1.0097  0.6437 -0.9954
  129OSM    C6S13816   4.736   1.019   6.815 -0.4572  0.6375 -0.0389
  129OSM    H6S13817   4.704   0.912   6.819  1.5916 -0.0691 -1.3730
  129OSM    H6T13818   4.647   1.083   6.829 -1.3650 -0.4269 -0.8914
  129OSM    C7S13819   4.817   1.037   6.951 -0.1395 -0.6042 -0.1117
  129OSM    H7S13820   4.848   1.144   6.951  3.0698 -1.4549  0.4376
  129OSM    H7T13821   4.914   0.982   6.952 -0.2967 -0.8590  1.1448
  129OSM    C8S13822   4.737   1.003   7.076  0.0233  0.0888  0.6166
  129OSM    H8S13823   4.697   0.902   7.052 -2.1401  0.7824  1.1816
  129OSM    H8T13824   4.652   1.074   7.083  0.1355  0.3756 -0.8287
  129OSM    C9S13825   4.838   1.000   7.195 -0.3050  0.5933  0.2077
  129OSM    H9S13826   4.897   1.094   7.205 -2.4084  1.9949 -0.2238
  129OSM    H9T13827   4.910   0.920   7.171  1.0318  2.0960 -0.8719
  129OSM   C10S13828   4.774   0.980   7.335 -0.6025 -0.0036 -0.0418
  129OSM   H10S13829   4.748   0.873   7.346 -0.7977 -0.2723 -2.7832
  129OSM   H10T13830   4.687   1.049   7.335 -0.2747  0.4165 -0.5674
  129OSM   C11S13831   4.865   1.031   7.445  0.2953 -0.6335 -1.2189
  129OSM   H11S13832   4.922   1.125   7.430  2.6829 -2.1489 -1.9669
  129OSM   H11T13833   4.936   0.950   7.470  0.7918  0.2444  0.2593
  129OSM   C12S13834   4.781   1.036   7.576  0.3699  0.8237 -0.6952
  129OSM   H12S13835   4.726   0.940   7.587  1.4224  0.5240  2.5039
  129OSM   H12T13836   4.700   1.111   7.576 -1.3660 -0.9731  1.6217
  129OSM   C13S13837   4.858   1.055   7.712  0.2316 -0.1931 -0.1673
  129OSM   H13S13838   4.924   1.143   7.696  0.9217 -0.8000 -0.6859
  129OSM   H13T13839   4.921   0.964   7.719 -1.4771 -1.5750 -1.9509
  129OSM   C14S13840   4.775   1.062   7.844  0.6008  0.0257  1.0084
  129OSM   H14S13841   4.692   0.988   7.846 -0.6222  1.3675  0.5485
  129OSM   H14T13842   4.734   1.164   7.858  0.3483  0.3287 -1.6942
  129OSM   C15S13843   4.861   1.022   7.964 -0.1266 -0.2374 -0.1918
  129OSM   H15S13844   4.954   1.080   7.948 -0.4995 -0.0473 -1.7102
  129OSM   H15T13845   4.881   0.913   7.974 -0.4879 -0.3421 -0.6021
  129OSM   C16S13846   4.807   1.065   8.102 -0.0680  0.1719 -0.0182
  129OSM   H16S13847   4.803   1.176   8.109  0.5007  0.2211 -0.4059
  129OSM   H16T13848   4.870   1.040   8.190 -0.8608 -1.3995  0.1319
  129OSM   C17S13849   4.661   1.017   8.133 -0.2370  0.1620 -0.4841
  129OSM   H17S13850   4.587   1.004   8.050 -1.0651 -0.2618  0.3140
  129OSM   H17T13851   4.631   1.086   8.215  1.7850  1.3658 -0.7199
  129OSM   C18S13852   4.649   0.878   8.201 -0.9222  0.3378 -0.0509
  129OSM   H18S13853   4.730   0.873   8.277  1.1256  1.2484 -2.1391
  129OSM   H18T13854   4.667   0.803   8.121  1.2777 -0.3362  1.0243
  129OSM   H18U13855   4.552   0.853   8.250 -0.9317  1.1169  0.3268
  129OSM    C1F13856   5.294   1.211   6.749  0.4641 -0.0459  0.7561
  129OSM     OF13857   5.291   1.331   6.715  0.3512  0.1568  0.6798
  129OSM    C2F13858   5.396   1.164   6.849  0.4403  0.2971 -0.5415
  129OSM    H2F13859   5.496   1.211   6.835  1.5576 -2.1472 -1.1945
  129OSM    H2G13860   5.422   1.057   6.836  0.7484  0.0684  1.6953
  129OSM    C3F13861   5.350   1.191   6.995 -0.5385  0.0447  0.6541
  129OSM    H3F13862   5.269   1.116   7.010 -1.7187  0.5436 -2.7562
  129OSM    H3G13863   5.306   1.292   7.000  1.3048  0.8388  1.1336
  129OSM    C4F13864   5.449   1.161   7.100  0.0448 -0.8272 -0.0014
  129OSM    H4F13865   5.502   1.254   7.131  0.8606 -0.2897 -2.8705
  129OSM    H4G13866   5.517   1.084   7.058  1.2669 -0.8535  1.9240
  129OSM    C5F13867   5.395   1.099   7.230 -0.0332 -0.3242 -0.1543
  129OSM    H5F13868   5.485   1.069   7.287 -1.7514 -1.5221  1.9886
  129OSM    H5G13869   5.344   1.003   7.208 -0.5111  0.2488 -1.6155
  129OSM    C6F13870   5.300   1.192   7.309 -0.5179  0.3860  0.0568
  129OSM    H6F13871   5.214   1.230   7.251 -0.2460  0.0555 -0.5726
  129OSM    H6G13872   5.366   1.277   7.339  0.4854  0.1265 -1.3490
  129OSM    C7F13873   5.250   1.125   7.438 -0.1086  0.2709 -0.5744
  129OSM    H7F13874   5.188   1.045   7.392  0.6392  0.4449 -1.9047
  129OSM    H7G13875   5.184   1.187   7.502  0.3304  1.8556 -1.6385
  129OSM    C8F13876   5.351   1.064   7.534 -0.0411  0.5381  0.0631
  129OSM    H8F13877   5.418   1.137   7.585  0.8635 -0.2602  0.0467
  129OSM    H8G13878   5.415   0.989   7.483  2.1114  1.0425  1.9204
  129OSM    C9F13879   5.265   0.987   7.627 -0.2310 -0.2736 -0.7245
  129OSM    H9F13880   5.220   0.898   7.581  0.8794 -1.3346  0.2059
  129OSM   C10F13881   5.250   1.000   7.760  0.5345  0.0912  0.1773
  129OSM   H10F13882   5.190   0.924   7.813  0.9502 -1.8635 -2.0573
  129OSM   C11F13883   5.320   1.111   7.842 -0.5891  0.2693  0.6779
  129OSM   H11F13884   5.418   1.150   7.807  0.6761 -0.6618  3.0193
  129OSM   H11G13885   5.340   1.067   7.942  0.9281 -1.4707 -0.3679
  129OSM   C12F13886   5.225   1.237   7.854 -0.2345 -0.0820  0.4406
  129OSM   H12F13887   5.131   1.204   7.905 -0.6999  0.0355 -0.3206
  129OSM   H12G13888   5.206   1.280   7.753 -2.0399 -0.3885  0.6338
  129OSM   C13F13889   5.284   1.342   7.948  0.1400 -0.2275  0.7763
  129OSM   H13F13890   5.307   1.444   7.909  0.5498 -0.1352  1.2471
  129OSM   H13G13891   5.383   1.307   7.984 -0.2166 -1.0008  1.0150
  129OSM   C14F13892   5.193   1.365   8.068 -0.0014  0.4398  0.3515
  129OSM   H14F13893   5.180   1.274   8.131 -1.5174  0.4622  0.0874
  129OSM   H14G13894   5.093   1.379   8.022 -1.7624 -1.0639  3.5713
  129OSM   C15F13895   5.237   1.486   8.152 -0.0544  0.2032  0.8972
  129OSM   H15F13896   5.238   1.573   8.084 -1.1503 -0.2015  0.3544
  129OSM   H15G13897   5.343   1.465   8.181 -1.0361 -1.5883  3.4289
  129OSM   C16F13898   5.163   1.521   8.276  0.0619  0.0835 -0.4344
  129OSM   H16F13899   5.138   1.437   8.345 -0.0394  1.1510  0.8622
  129OSM   H16G13900   5.064   1.553   8.238  0.2368 -0.4385 -1.3371
  129OSM   C17F13901   5.219   1.632   8.367 -0.6840  0.3012 -0.2029
  129OSM   H17F13902   5.304   1.598   8.430 -0.1149 -0.2883 -1.2706
  129OSM   H17G13903   5.136   1.647   8.439  0.2911 -1.3137  1.3012
  129OSM   C18F13904   5.256   1.763   8.301 -0.2959  0.2724  0.4587
  129OSM   H18F13905   5.329   1.753   8.217 -0.3137 -2.5085  0.7339
  129OSM   H18G13906   5.309   1.840   8.361  2.8083 -1.1519 -0.3719
  129OSM   H18H13907   5.161   1.798   8.255 -1.3449 -1.8058  0.9690
  130OSM      N13908   5.673   5.057   6.120 -0.4857 -0.5948 -0.0589
  130OSM    C1513909   5.756   5.140   6.023  0.6988  0.5268 -0.9565
  130OSM   H15A13910   5.698   5.228   6.000 -2.2272 -1.4218 -1.3510
  130OSM   H15B13911   5.771   5.089   5.929 -0.4343  2.2964 -2.1344
  130OSM   H15C13912   5.851   5.167   6.066  1.4906 -2.4810 -0.6686
  130OSM    C1413913   5.533   5.037   6.069 -0.0792  0.0676 -0.3601
  130OSM   H14A13914   5.474   5.127   6.085  0.5014  0.1456  1.5370
  130OSM   H14B13915   5.485   4.956   6.122 -0.0547  0.4265  0.2225
  130OSM   H14C13916   5.539   5.017   5.963  2.6785 -0.0236 -0.2171
  130OSM    C1313917   5.742   4.929   6.140 -0.4540 -0.0038 -0.1863
  130OSM   H13A13918   5.685   4.876   6.215  0.9591 -0.5015  0.5453
  130OSM   H13B13919   5.839   4.947   6.183 -0.1938 -1.6971 -0.0213
  130OSM   H13C13920   5.740   4.873   6.047  1.1531  1.2636 -1.0021
  130OSM    C1213921   5.662   5.127   6.258  0.2104  1.0176  0.6397
  130OSM   H12A13922   5.603   5.068   6.327 -0.7306  0.6791 -0.4412
  130OSM   H12B13923   5.604   5.216   6.240 -2.0771 -1.2343 -4.0149
  130OSM    C1113924   5.783   5.159   6.344  0.1047  0.0279  0.9066
  130OSM   H11A13925   5.838   5.064   6.360 -0.0509 -0.3485 -0.6935
  130OSM   H11B13926   5.748   5.201   6.440  0.0805  0.3431  0.7616
  130OSM      P13927   5.869   5.410   6.291 -0.3458 -0.0868  0.1284
  130OSM    O1313928   5.993   5.449   6.221 -0.6837  0.8135 -0.0121
  130OSM    O1413929   5.738   5.469   6.255  0.5282  0.0236 -0.5187
  130OSM    O1113930   5.896   5.432   6.445  0.0625  0.5492  0.0256
  130OSM    O1213931   5.867   5.251   6.276  0.1381 -0.0589  0.2781
  130OSM    C1S13932   5.787   5.468   6.535  0.4552  0.3118 -0.0248
  130OSM    H1S13933   5.697   5.404   6.516 -0.2360  1.2776 -0.0465
  130OSM    H1T13934   5.747   5.569   6.511 -3.2091 -1.1067 -0.2419
  130OSM     NF13935   5.700   5.472   6.778 -0.1229 -0.2112 -0.3082
  130OSM    HNF13936   5.701   5.559   6.828 -0.7045 -1.0367  1.1770
  130OSM    C2S13937   5.812   5.454   6.692  0.8596 -0.4346 -0.0945
  130OSM    H2S13938   5.834   5.346   6.706  1.8868 -0.3408 -0.9554
  130OSM    C3S13939   5.943   5.533   6.727 -0.0234 -0.4126  0.1319
  130OSM    H3S13940   5.921   5.642   6.723  0.3939 -0.2774  1.3626
  130OSM     O313941   6.047   5.527   6.632 -0.1012 -0.3671  0.2463
  130OSM    HO313942   6.008   5.477   6.560 -0.5410 -0.7593  0.7614
  130OSM    C4S13943   5.990   5.492   6.862 -0.0446  0.1298  0.1289
  130OSM    H4S13944   6.021   5.387   6.860  1.1129  0.4542 -2.6344
  130OSM    C5S13945   5.996   5.568   6.974  0.1630 -0.5119  0.3404
  130OSM    H5S13946   5.980   5.676   6.955  3.2892  0.4279  2.5471
  130OSM    C6S13947   6.046   5.524   7.107 -0.9349 -0.0858  0.1325
  130OSM    H6S13948   5.969   5.555   7.181 -1.0787 -1.8758  0.7545
  130OSM    H6T13949   6.138   5.578   7.136  0.5992 -2.4522 -0.2031
  130OSM    C7S13950   6.063   5.377   7.140  0.2404  0.0080 -0.4483
  130OSM    H7S13951   6.127   5.351   7.053 -0.0073 -0.1325 -0.5862
  130OSM    H7T13952   5.962   5.333   7.128 -0.2784  0.6370  1.4200
  130OSM    C8S13953   6.115   5.335   7.281 -0.2647 -0.8116 -0.3224
  130OSM    H8S13954   6.223   5.361   7.289 -0.5679  0.4970 -0.2979
  130OSM    H8T13955   6.096   5.226   7.289  2.1007 -1.3490 -1.5209
  130OSM    C9S13956   6.050   5.411   7.394  0.6018  0.5600 -0.0049
  130OSM    H9S13957   5.942   5.434   7.386  0.5592  0.3405 -0.0829
  130OSM    H9T13958   6.091   5.514   7.388 -1.1637  1.2547 -0.2118
  130OSM   C10S13959   6.080   5.364   7.532  0.2469 -0.2980 -0.2842
  130OSM   H10S13960   6.034   5.263   7.534 -2.7720  1.0142 -0.8122
  130OSM   H10T13961   6.021   5.427   7.601  0.3713 -0.8234  0.3107
  130OSM   C11S13962   6.233   5.357   7.568  0.4834 -0.6264  0.1519
  130OSM   H11S13963   6.263   5.463   7.555 -3.4124  0.6195  0.7044
  130OSM   H11T13964   6.293   5.296   7.497 -1.5260 -2.5968  0.0725
  130OSM   C12S13965   6.262   5.302   7.708  0.1856 -0.6442  0.4318
  130OSM   H12S13966   6.222   5.379   7.776  1.5918 -0.0421  0.5872
  130OSM   H12T13967   6.370   5.277   7.709  0.1911 -0.6812 -0.4504
  130OSM   C13S13968   6.184   5.170   7.736  0.1236 -0.3690  0.9811
  130OSM   H13S13969   6.200   5.106   7.646  2.3486 -0.8477  1.6715
  130OSM   H13T13970   6.078   5.190   7.761 -0.6563  0.6131 -2.7957
  130OSM   C14S13971   6.256   5.091   7.847 -0.1878 -0.5016 -0.2476
  130OSM   H14S13972   6.363   5.082   7.818 -0.5302  0.5697 -1.8879
  130OSM   H14T13973   6.212   4.990   7.861  0.2225 -0.4424  1.5264
  130OSM   C15S13974   6.245   5.168   7.979  0.4074 -0.0170 -0.5775
  130OSM   H15S13975   6.137   5.153   8.002  0.7374 -0.6972  0.5846
  130OSM   H15T13976   6.268   5.277   7.976  0.1709  0.1582  2.4492
  130OSM   C16S13977   6.336   5.100   8.085  0.1376 -0.3187 -0.0026
  130OSM   H16S13978   6.442   5.117   8.057  0.0224  0.9487  0.2601
  130OSM   H16T13979   6.312   4.993   8.074  2.6114 -1.2171  2.6926
  130OSM   C17S13980   6.325   5.125   8.234  1.0664 -0.2589  0.0940
  130OSM   H17S13981   6.381   5.214   8.271  0.8636 -0.6718  1.4432
  130OSM   H17T13982   6.375   5.035   8.275  0.7485 -0.2387  0.5295
  130OSM   C18S13983   6.174   5.150   8.293  0.6187  0.0819  0.2683
  130OSM   H18S13984   6.140   5.255   8.279  3.2098  0.6822 -2.0184
  130OSM   H18T13985   6.165   5.120   8.399 -1.9319  1.2050  0.4106
  130OSM   H18U13986   6.096   5.085   8.249 -1.3224  2.3386  0.2613
  130OSM    C1F13987   5.587   5.404   6.767 -0.1510 -0.1450 -0.2366
  130OSM     OF13988   5.580   5.299   6.698 -0.2934 -0.2267  0.6502
  130OSM    C2F13989   5.470   5.461   6.832  0.6009  0.2218 -0.3043
  130OSM    H2F13990   5.396   5.469   6.750  0.4302  0.3690 -0.1361
  130OSM    H2G13991   5.491   5.560   6.878  1.6032 -0.9354  1.8436
  130OSM    C3F13992   5.409   5.371   6.946 -0.2380  0.3488  0.9320
  130OSM    H3F13993   5.395   5.270   6.902  0.5256  0.1822  1.0631
  130OSM    H3G13994   5.309   5.403   6.981 -1.9187 -0.2127 -3.1019
  130OSM    C4F13995   5.505   5.356   7.073 -0.2377  0.7834  0.3293
  130OSM    H4F13996   5.601   5.306   7.049 -0.6692  0.1253 -0.0788
  130OSM    H4G13997   5.452   5.285   7.140  1.4081 -2.5047 -1.7291
  130OSM    C5F13998   5.546   5.487   7.138 -0.0057 -0.1733  0.2999
  130OSM    H5F13999   5.465   5.558   7.164  2.1371  2.2760  0.4966
  130OSM    H5G14000   5.603   5.547   7.064 -0.4563 -0.3407 -0.1897
  130OSM    C6F14001   5.633   5.468   7.260  1.3655 -0.5124  0.3622
  130OSM    H6F14002   5.649   5.570   7.302 -2.5159  0.9004 -1.3725
  130OSM    H6G14003   5.731   5.435   7.221  1.3671  2.2053 -2.1567
  130OSM    C7F14004   5.593   5.385   7.379  0.5446 -0.2322  0.1286
  130OSM    H7F14005   5.683   5.401   7.443  0.5555 -1.2784  0.3766
  130OSM    H7G14006   5.575   5.277   7.361  1.8853 -0.5987  0.9278
  130OSM    C8F14007   5.460   5.441   7.451  0.0217  0.6860  0.4173
  130OSM    H8F14008   5.374   5.423   7.382  0.4244 -0.2937  0.1540
  130OSM    H8G14009   5.483   5.549   7.465  0.3011  0.6934 -0.0805
  130OSM    C9F14010   5.431   5.380   7.589 -0.5228  0.9730 -0.1986
  130OSM    H9F14011   5.344   5.314   7.602 -0.3744  0.8631  0.2415
  130OSM   C10F14012   5.513   5.394   7.698 -0.9331 -0.0082  0.2206
  130OSM   H10F14013   5.487   5.349   7.794 -0.1729 -1.1558 -0.0947
  130OSM   C11F14014   5.643   5.469   7.705  0.3116 -0.2613 -0.2546
  130OSM   H11F14015   5.621   5.562   7.763 -0.2328 -0.8734  0.5339
  130OSM   H11G14016   5.672   5.506   7.604  0.1830  0.9360  0.1380
  130OSM   C12F14017   5.764   5.381   7.754 -0.4857 -0.2940  0.8299
  130OSM   H12F14018   5.851   5.449   7.737 -0.6016 -0.1769  0.6996
  130OSM   H12G14019   5.778   5.306   7.673  2.8963 -1.7167  2.6782
  130OSM   C13F14020   5.774   5.323   7.898  0.3015 -0.0182 -0.1991
  130OSM   H13F14021   5.873   5.273   7.909  0.4592 -0.1961 -2.2928
  130OSM   H13G14022   5.692   5.248   7.896 -0.2963  0.6316  0.1802
  130OSM   C14F14023   5.757   5.438   8.001  0.0010  0.0685  0.4337
  130OSM   H14F14024   5.658   5.486   7.986 -1.2632 -2.5770 -0.1259
  130OSM   H14G14025   5.845   5.506   7.993 -0.2414  0.1485 -1.6509
  130OSM   C15F14026   5.746   5.382   8.144  0.1392  0.3078  0.4420
  130OSM   H15F14027   5.809   5.292   8.159  0.7288  0.7287  0.4962
  130OSM   H15G14028   5.644   5.342   8.160 -0.3467  1.8590  1.3441
  130OSM   C16F14029   5.769   5.478   8.265 -0.1935  0.8406  0.1124
  130OSM   H16F14030   5.688   5.554   8.258 -2.0021 -0.9339  1.0204
  130OSM   H16G14031   5.864   5.532   8.248 -0.0771  1.4916  2.5913
  130OSM   C17F14032   5.765   5.403   8.398 -0.5503  0.0402  0.8472
  130OSM   H17F14033   5.860   5.347   8.413  1.0823  2.2488 -0.9616
  130OSM   H17G14034   5.681   5.332   8.414  0.6937 -1.1792  2.2175
  130OSM   C18F14035   5.768   5.500   8.518  0.3968 -0.1427 -0.1820
  130OSM   H18F14036   5.831   5.590   8.499  0.6171  0.3656  2.6882
  130OSM   H18G14037   5.803   5.457   8.614  1.1957  0.2874 -0.2722
  130OSM   H18H14038   5.660   5.523   8.525 -0.1561 -2.3484 -0.8726
  131OSM      N14039   5.705   3.771   6.268 -0.0369 -0.1153 -0.0214
  131OSM    C1514040   5.571   3.713   6.303 -0.1131 -0.0196 -0.2530
  131OSM   H15A14041   5.547   3.728   6.407 -1.0613 -1.5229 -0.2389
  131OSM   H15B14042   5.561   3.611   6.268 -3.7375 -0.1534  1.0508
  131OSM   H15C14043   5.510   3.783   6.247 -0.9015 -2.2895 -2.3387
  131OSM    C1414044   5.724   3.755   6.125 -0.3136  0.4173  0.2458
  131OSM   H14A14045   5.643   3.788   6.061  1.3066  1.7788 -1.1545
  131OSM   H14B14046   5.735   3.651   6.099 -0.0330  0.4555  0.2097
  131OSM   H14C14047   5.810   3.808   6.086 -0.1278 -1.0307 -1.3401
  131OSM    C1314048   5.697   3.919   6.303  0.8388 -0.3392  0.4613
  131OSM   H13A14049   5.795   3.959   6.280 -0.3692  1.7887 -1.1932
  131OSM   H13B14050   5.666   3.944   6.403  1.7527  0.6253  0.5165
  131OSM   H13C14051   5.637   3.971   6.230  0.5794 -0.3151  0.6924
  131OSM    C1214052   5.826   3.710   6.344  0.2011 -0.6438 -0.2177
  131OSM   H12A14053   5.816   3.736   6.448  0.8140  1.7848 -0.7456
  131OSM   H12B14054   5.918   3.752   6.307 -0.2087  0.7086  0.2728
  131OSM    C1114055   5.845   3.557   6.342 -0.3636 -0.4556  0.6565
  131OSM   H11A14056   5.752   3.501   6.364  1.4906 -2.9649  2.3451
  131OSM   H11B14057   5.917   3.524   6.419 -0.8398 -0.0851  1.2615
  131OSM      P14058   5.846   3.406   6.128  0.0798  0.2121 -0.4863
  131OSM    O1314059   5.717   3.443   6.065  0.3464  0.9401 -0.3952
  131OSM    O1414060   5.953   3.354   6.038 -0.4125  0.6431  0.7420
  131OSM    O1114061   5.821   3.298   6.239  0.2072 -0.4698  0.1660
  131OSM    O1214062   5.891   3.524   6.215 -0.2200 -0.1058  0.0578
  131OSM    C1S14063   5.927   3.226   6.301 -0.6866 -0.3694  0.4883
  131OSM    H1S14064   6.015   3.289   6.325 -0.4320 -0.8011  0.6926
  131OSM    H1T14065   5.964   3.148   6.231 -0.9797 -0.4330  0.4056
  131OSM     NF14066   5.996   3.082   6.487 -0.8913  0.3089  0.3566
  131OSM    HNF14067   5.992   2.983   6.475  1.8505 -0.3462  4.1455
  131OSM    C2S14068   5.885   3.149   6.422 -0.2076 -0.2153  0.4727
  131OSM    H2S14069   5.846   3.232   6.485 -0.3947  1.3934 -1.7036
  131OSM    C3S14070   5.759   3.051   6.395  0.2111 -0.0268  0.1998
  131OSM    H3S14071   5.794   2.961   6.340  0.7540 -0.1880  0.8092
  131OSM     O314072   5.645   3.097   6.319 -0.0564 -0.7405  0.1948
  131OSM    HO314073   5.660   3.185   6.284 -2.6704 -0.5311 -0.5357
  131OSM    C4S14074   5.724   2.996   6.533  0.0301 -1.0483  0.3464
  131OSM    H4S14075   5.786   2.912   6.570 -0.7355 -1.6115  0.3576
  131OSM    C5S14076   5.622   3.046   6.605  0.5222 -0.3016  0.5105
  131OSM    H5S14077   5.583   3.147   6.585  3.1742  0.3389 -1.6643
  131OSM    C6S14078   5.587   2.982   6.742 -0.0758 -0.3838  0.5953
  131OSM    H6S14079   5.635   2.882   6.745  0.6606 -0.0607 -0.2346
  131OSM    H6T14080   5.478   2.965   6.752  0.0126 -0.2912  1.8482
  131OSM    C7S14081   5.635   3.059   6.864 -0.3107  0.3171 -0.0397
  131OSM    H7S14082   5.581   3.156   6.869  0.0657  0.5637 -0.7103
  131OSM    H7T14083   5.745   3.076   6.856 -0.0865 -1.0156  0.1568
  131OSM    C8S14084   5.599   2.972   6.987  0.6221  0.0841 -0.4386
  131OSM    H8S14085   5.650   2.874   6.978 -0.2747 -0.1612 -3.7073
  131OSM    H8T14086   5.490   2.951   6.979  1.0299 -1.9006 -0.8900
  131OSM    C9S14087   5.639   3.017   7.123  0.3430  0.1037 -0.6300
  131OSM    H9S14088   5.557   3.077   7.167 -0.6405 -3.1268  2.1626
  131OSM    H9T14089   5.742   3.057   7.130  0.4548 -0.6500  2.8052
  131OSM   C10S14090   5.646   2.891   7.214 -0.4879  1.0943 -0.3279
  131OSM   H10S14091   5.739   2.838   7.184 -0.4919  0.3804  0.8955
  131OSM   H10T14092   5.566   2.817   7.194  0.2637  0.4476 -0.9663
  131OSM   C11S14093   5.653   2.920   7.369  0.4485 -0.9345 -0.1305
  131OSM   H11S14094   5.679   2.831   7.430  4.8095  1.6790  2.0229
  131OSM   H11T14095   5.552   2.952   7.404  0.5049 -1.8914  0.9077
  131OSM   C12S14096   5.750   3.025   7.407  0.3388 -0.1616 -0.6598
  131OSM   H12S14097   5.725   3.120   7.355  1.5978  0.0180 -0.9541
  131OSM   H12T14098   5.851   2.999   7.369  1.2419  1.0472  0.8502
  131OSM   C13S14099   5.751   3.053   7.557 -0.4361 -0.2542  0.2095
  131OSM   H13S14100   5.757   2.963   7.623  0.1129 -0.0148  0.4882
  131OSM   H13T14101   5.665   3.112   7.594 -1.0332 -0.5348 -0.7235
  131OSM   C14S14102   5.890   3.123   7.575 -0.1467 -0.7358 -0.7585
  131OSM   H14S14103   5.888   3.212   7.508  0.2094 -0.0472  0.1209
  131OSM   H14T14104   5.961   3.054   7.525  0.7103 -1.1261  0.9561
  131OSM   C15S14105   5.937   3.125   7.718  0.8325 -0.0721  0.0852
  131OSM   H15S14106   5.845   3.120   7.779  0.1016  0.6705 -0.9291
  131OSM   H15T14107   5.987   3.222   7.734 -0.3982  0.4990  0.5580
  131OSM   C16S14108   6.034   3.008   7.757  0.5749 -0.2351 -0.0075
  131OSM   H16S14109   6.133   3.011   7.708  0.2302  2.4595 -0.6684
  131OSM   H16T14110   5.977   2.920   7.721 -0.6850 -0.3998  2.2590
  131OSM   C17S14111   6.047   3.014   7.914 -0.1040  0.3022 -0.3124
  131OSM   H17S14112   5.947   3.014   7.962  0.0228 -3.9319  0.1700
  131OSM   H17T14113   6.106   3.105   7.934  0.2580  0.2301 -1.0298
  131OSM   C18S14114   6.107   2.890   7.975  0.4096  0.4081  0.3534
  131OSM   H18S14115   6.033   2.807   7.985  1.1623 -0.1226  1.6259
  131OSM   H18T14116   6.126   2.911   8.083  1.0266 -1.6241  0.6477
  131OSM   H18U14117   6.195   2.844   7.926 -0.1088 -0.3207  0.0978
  131OSM    C1F14118   6.101   3.143   6.537 -0.3742 -0.3080 -0.2266
  131OSM     OF14119   6.123   3.263   6.516 -0.0321  0.3723  0.2122
  131OSM    C2F14120   6.205   3.052   6.605  0.1460  0.0606  0.1753
  131OSM    H2F14121   6.252   2.986   6.529  1.1073 -2.0550  2.5243
  131OSM    H2G14122   6.149   2.992   6.680 -0.4176 -0.6426 -0.8009
  131OSM    C3F14123   6.313   3.125   6.695 -0.3439 -0.2048  0.1226
  131OSM    H3F14124   6.250   3.167   6.776  0.6275 -2.3297  2.0352
  131OSM    H3G14125   6.372   3.200   6.639  0.0497  0.5257  1.5019
  131OSM    C4F14126   6.392   3.010   6.765  0.4347  0.0912 -0.4051
  131OSM    H4F14127   6.456   2.954   6.692  1.0951  2.0877 -1.3976
  131OSM    H4G14128   6.322   2.934   6.806 -0.0912  1.1365  0.6456
  131OSM    C5F14129   6.484   3.058   6.884 -0.1407 -0.2155  0.1561
  131OSM    H5F14130   6.412   3.089   6.963 -0.5647  0.9553 -0.6768
  131OSM    H5G14131   6.545   3.145   6.854  1.7069 -0.7861  2.2218
  131OSM    C6F14132   6.561   2.944   6.955 -0.4677  0.0913 -0.0389
  131OSM    H6F14133   6.648   2.980   7.015  1.5216  0.0051 -2.7841
  131OSM    H6G14134   6.611   2.880   6.879  0.3821 -2.9107  2.9128
  131OSM    C7F14135   6.466   2.855   7.039 -0.3243  0.0004 -0.3098
  131OSM    H7F14136   6.390   2.799   6.982  0.4717  2.5955 -4.1074
  131OSM    H7G14137   6.417   2.924   7.111 -1.4812 -1.0264 -0.0906
  131OSM    C8F14138   6.534   2.743   7.125 -1.0250  0.2794 -0.2544
  131OSM    H8F14139   6.608   2.790   7.193 -0.6183 -0.1219 -0.4165
  131OSM    H8G14140   6.596   2.669   7.069  0.7252  0.2995  1.5933
  131OSM    C9F14141   6.442   2.651   7.195  0.8685  0.8124 -0.6896
  131OSM    H9F14142   6.422   2.560   7.136 -0.5339  2.0156 -2.0946
  131OSM   C10F14143   6.390   2.671   7.319  0.0566 -0.6052  0.3566
  131OSM   H10F14144   6.315   2.601   7.359 -1.0224  0.3302  0.0059
  131OSM   C11F14145   6.426   2.796   7.394 -0.4553 -0.4150 -0.2810
  131OSM   H11F14146   6.341   2.822   7.460 -0.3097  1.1919 -0.6956
  131OSM   H11G14147   6.433   2.882   7.324  1.6525 -0.3515 -0.0340
  131OSM   C12F14148   6.556   2.810   7.490 -0.8208  0.0005  0.8790
  131OSM   H12F14149   6.576   2.917   7.512 -1.6310  0.2969  0.1900
  131OSM   H12G14150   6.648   2.772   7.441 -0.8446  0.8806  0.1435
  131OSM   C13F14151   6.524   2.745   7.628  0.3141 -0.0680  0.4313
  131OSM   H13F14152   6.486   2.641   7.624 -0.6706  0.3642 -1.8586
  131OSM   H13G14153   6.449   2.814   7.672  2.0601  1.5916  0.9377
  131OSM   C14F14154   6.643   2.761   7.721 -0.1729 -0.3179 -0.1499
  131OSM   H14F14155   6.649   2.871   7.738 -0.2878 -0.7739  3.1627
  131OSM   H14G14156   6.741   2.727   7.682 -0.4020 -0.1271 -0.8980
  131OSM   C15F14157   6.620   2.699   7.861 -0.2481  0.6549 -0.4505
  131OSM   H15F14158   6.625   2.589   7.843 -1.5641  0.3761  0.7499
  131OSM   H15G14159   6.530   2.733   7.917 -0.4593 -1.6202  0.6682
  131OSM   C16F14160   6.727   2.718   7.967  0.0018  0.2497 -0.0896
  131OSM   H16F14161   6.685   2.719   8.069  1.1919 -2.3994  0.4600
  131OSM   H16G14162   6.772   2.820   7.960 -2.0407  1.1650 -0.4136
  131OSM   C17F14163   6.839   2.603   7.954 -0.0944 -0.1535  0.1281
  131OSM   H17F14164   6.906   2.622   7.868  1.8630  2.5958  2.1504
  131OSM   H17G14165   6.791   2.504   7.938  1.3802 -1.0656  1.3021
  131OSM   C18F14166   6.924   2.595   8.080 -0.9694  0.2505 -0.5473
  131OSM   H18F14167   6.875   2.588   8.179  0.9281  0.3062  0.4339
  131OSM   H18G14168   6.996   2.680   8.083  1.0379 -1.4470  0.0747
  131OSM   H18H14169   6.983   2.501   8.083  0.1863  0.8981 -2.0010
  132OSM      N14170   2.403   6.530   6.272 -0.3337 -0.1511  0.8970
  132OSM    C1514171   2.484   6.625   6.187  0.3746  0.3540  0.3168
  132OSM   H15A14172   2.538   6.564   6.115 -2.2812  0.4284 -1.8078
  132OSM   H15B14173   2.552   6.680   6.250 -1.0359  3.3030 -0.6539
  132OSM   H15C14174   2.419   6.698   6.141 -1.1046 -0.4582  1.0868
  132OSM    C1414175   2.505   6.441   6.328 -0.3963 -0.1203  0.2334
  132OSM   H14A14176   2.565   6.499   6.397  0.4082  1.4813 -1.7632
  132OSM   H14B14177   2.564   6.407   6.244  0.7030 -0.3930  1.0964
  132OSM   H14C14178   2.462   6.358   6.381  1.4432 -0.5195  1.1686
  132OSM    C1314179   2.324   6.599   6.384  0.0022 -0.4395 -0.2177
  132OSM   H13A14180   2.393   6.665   6.435 -0.2921  0.9479 -1.5862
  132OSM   H13B14181   2.285   6.527   6.455 -0.2227  0.4003  0.5103
  132OSM   H13C14182   2.248   6.665   6.347  0.5502  0.3339  0.0303
  132OSM    C1214183   2.308   6.445   6.199 -0.1294  0.1558 -0.1639
  132OSM   H12A14184   2.351   6.406   6.107 -1.9355 -1.3652 -0.4017
  132OSM   H12B14185   2.229   6.506   6.157  0.8658  0.0728 -2.2575
  132OSM    C1114186   2.249   6.323   6.269 -0.4638  0.3014 -1.2116
  132OSM   H11A14187   2.204   6.350   6.366  0.4668  1.8097 -1.1913
  132OSM   H11B14188   2.333   6.251   6.282 -2.2339 -1.6490 -0.3850
  132OSM      P14189   2.017   6.324   6.161  0.1683  0.0902 -0.1041
  132OSM    O1314190   2.011   6.412   6.043  0.3027 -0.2196  0.6500
  132OSM    O1414191   1.918   6.213   6.156 -0.4274  0.1417  0.0771
  132OSM    O1114192   1.990   6.412   6.289 -0.0536  0.1729  0.0775
  132OSM    O1214193   2.158   6.270   6.179  0.4159  0.7392 -0.1855
  132OSM    C1S14194   1.870   6.399   6.367 -0.2484  0.3369  0.5483
  132OSM    H1S14195   1.863   6.295   6.404 -2.4909 -0.1377 -1.1162
  132OSM    H1T14196   1.771   6.423   6.324 -1.1993 -0.1925  2.4169
  132OSM     NF14197   1.787   6.489   6.582  0.1795  0.1825  0.0009
  132OSM    HNF14198   1.710   6.552   6.586  1.1675  1.4282 -0.3061
  132OSM    C2S14199   1.889   6.502   6.482  0.2728  0.0914 -0.3833
  132OSM    H2S14200   1.986   6.474   6.529 -0.5394 -0.3712  1.0467
  132OSM    C3S14201   1.895   6.649   6.429 -0.2651 -0.4201  0.0331
  132OSM    H3S14202   1.797   6.679   6.386  1.1689  1.0645 -2.2820
  132OSM     O314203   1.997   6.663   6.325 -0.3059  0.3451  0.1438
  132OSM    HO314204   2.032   6.573   6.328  0.6432  0.6778 -0.8783
  132OSM    C4S14205   1.931   6.741   6.537  0.3910  0.2962  0.0566
  132OSM    H4S14206   2.033   6.739   6.576  0.0256 -2.6882  1.0205
  132OSM    C5S14207   1.852   6.827   6.599  0.8486  0.4865 -0.2135
  132OSM    H5S14208   1.747   6.844   6.571  0.3012 -0.5968  1.1070
  132OSM    C6S14209   1.890   6.921   6.716  0.3059  0.4293  0.5201
  132OSM    H6S14210   1.911   7.023   6.677  1.4204  0.4250  1.0835
  132OSM    H6T14211   1.992   6.895   6.751  0.5977  1.5109  0.4709
  132OSM    C7S14212   1.787   6.918   6.835 -0.1079 -0.4888 -0.6868
  132OSM    H7S14213   1.696   6.980   6.821 -2.0275 -2.7836  1.0793
  132OSM    H7T14214   1.840   6.955   6.926 -2.6153 -2.0149  1.4726
  132OSM    C8S14215   1.733   6.781   6.882 -0.1733  0.4529  0.6118
  132OSM    H8S14216   1.815   6.717   6.922  0.1266  1.1527  1.1275
  132OSM    H8T14217   1.673   6.729   6.804 -2.1837  2.8363  0.4940
  132OSM    C9S14218   1.652   6.802   7.007 -0.3577  0.0992 -0.4238
  132OSM    H9S14219   1.579   6.882   6.985  0.0736  0.6556  0.1724
  132OSM    H9T14220   1.715   6.828   7.095  2.7119 -0.7312 -2.3079
  132OSM   C10S14221   1.572   6.675   7.043 -0.1833 -0.2578 -0.6762
  132OSM   H10S14222   1.631   6.583   7.025 -1.0432 -0.4743 -2.4447
  132OSM   H10T14223   1.485   6.667   6.974  0.5757  0.3914 -1.7138
  132OSM   C11S14224   1.523   6.672   7.191 -0.4748 -0.4737 -0.5534
  132OSM   H11S14225   1.420   6.691   7.228 -0.0204 -2.3571  1.8288
  132OSM   H11T14226   1.590   6.740   7.249 -1.9024 -0.7543  1.4849
  132OSM   C12S14227   1.550   6.535   7.254  0.0949 -0.4762  0.3458
  132OSM   H12S14228   1.656   6.513   7.275  1.0281  0.4622 -3.0628
  132OSM   H12T14229   1.517   6.458   7.181  0.9218  0.3575 -0.9388
  132OSM   C13S14230   1.471   6.512   7.383  0.3787  0.4475 -0.5612
  132OSM   H13S14231   1.363   6.531   7.367 -0.0203 -2.0016 -1.0352
  132OSM   H13T14232   1.513   6.570   7.467  0.8000 -0.7549  0.0672
  132OSM   C14S14233   1.470   6.363   7.425 -0.3741 -0.2639 -0.0071
  132OSM   H14S14234   1.574   6.326   7.412  0.1061  1.6349 -1.8192
  132OSM   H14T14235   1.392   6.302   7.375  0.7741 -0.2688 -1.8169
  132OSM   C15S14236   1.429   6.339   7.575 -0.1008 -0.7075 -0.3195
  132OSM   H15S14237   1.321   6.313   7.580 -0.1858 -0.3670 -0.3480
  132OSM   H15T14238   1.440   6.429   7.639 -1.3935  0.2406 -1.3786
  132OSM   C16S14239   1.512   6.231   7.635 -0.2387 -0.7446  0.5623
  132OSM   H16S14240   1.621   6.243   7.621 -0.2405  2.3328  2.6613
  132OSM   H16T14241   1.475   6.139   7.584 -1.6516  0.8380 -1.3414
  132OSM   C17S14242   1.492   6.212   7.786 -1.0318  0.0912  0.3636
  132OSM   H17S14243   1.542   6.117   7.816  0.8160  0.4868 -1.3282
  132OSM   H17T14244   1.385   6.211   7.816 -0.9651 -0.9260  0.6031
  132OSM   C18S14245   1.566   6.325   7.859  0.2516  0.5502  0.2635
  132OSM   H18S14246   1.532   6.422   7.818 -0.7049  0.1973  0.1990
  132OSM   H18T14247   1.676   6.311   7.848  0.2372  0.2800  0.4507
  132OSM   H18U14248   1.547   6.325   7.969  3.7293  0.1092  0.9136
  132OSM    C1F14249   1.778   6.379   6.669 -0.0522 -0.1730  0.5322
  132OSM     OF14250   1.858   6.286   6.658  0.1059  0.0328  0.0963
  132OSM    C2F14251   1.664   6.387   6.767  0.2967  0.2804  0.2857
  132OSM    H2F14252   1.597   6.470   6.734  2.3143  1.7138 -0.3225
  132OSM    H2G14253   1.718   6.422   6.858 -1.8176  1.4507  1.1350
  132OSM    C3F14254   1.598   6.243   6.797 -0.1600  0.1621 -0.0044
  132OSM    H3F14255   1.681   6.174   6.824 -0.3646  0.2882  0.9576
  132OSM    H3G14256   1.552   6.197   6.707  0.5353  0.8167 -0.6929
  132OSM    C4F14257   1.486   6.252   6.904 -1.0709 -1.1773  0.1503
  132OSM    H4F14258   1.412   6.330   6.874  0.2315  0.1315  0.2609
  132OSM    H4G14259   1.528   6.288   7.001 -0.0796  0.4459 -0.8629
  132OSM    C5F14260   1.416   6.117   6.912 -0.1877 -0.5725  0.1324
  132OSM    H5F14261   1.487   6.037   6.941  2.2101  1.1157 -0.9827
  132OSM    H5G14262   1.370   6.092   6.814 -1.1789 -1.4016  0.8022
  132OSM    C6F14263   1.306   6.116   7.027 -0.2352 -0.2591 -0.1698
  132OSM    H6F14264   1.246   6.023   7.018 -0.3211 -0.0985 -1.2669
  132OSM    H6G14265   1.237   6.200   7.005  2.2735  2.0681  0.5432
  132OSM    C7F14266   1.359   6.120   7.168  1.1718 -0.3512  1.0527
  132OSM    H7F14267   1.285   6.123   7.252 -0.0983  0.7908 -0.0807
  132OSM    H7G14268   1.433   6.203   7.176 -0.7677  1.5716 -0.3480
  132OSM    C8F14269   1.448   6.000   7.215 -0.0980  0.6203 -0.1942
  132OSM    H8F14270   1.487   6.012   7.318  1.4704  1.7829 -0.8914
  132OSM    H8G14271   1.541   5.995   7.153  0.6482 -0.9342  1.0386
  132OSM    C9F14272   1.388   5.863   7.207  0.0445  0.4417  0.2102
  132OSM    H9F14273   1.376   5.826   7.105  2.2725  0.5476 -0.1079
  132OSM   C10F14274   1.325   5.804   7.309  0.7589  0.4237 -0.3874
  132OSM   H10F14275   1.258   5.720   7.285 -0.6525  1.5061 -0.2385
  132OSM   C11F14276   1.314   5.855   7.452 -0.2989 -0.5490  0.5524
  132OSM   H11F14277   1.210   5.841   7.488  0.4913 -2.0099  2.3773
  132OSM   H11G14278   1.333   5.964   7.466 -2.3696  0.0233 -0.9742
  132OSM   C12F14279   1.418   5.784   7.543  0.3570  0.0140  0.6829
  132OSM   H12F14280   1.522   5.793   7.505 -0.2000  0.3469 -0.7971
  132OSM   H12G14281   1.390   5.677   7.537 -3.8831  0.9980  1.1371
  132OSM   C13F14282   1.400   5.805   7.697  0.5599 -0.5597  0.3835
  132OSM   H13F14283   1.291   5.796   7.714 -0.0836  2.8806 -1.4930
  132OSM   H13G14284   1.423   5.907   7.735 -1.8709 -0.0182  0.4946
  132OSM   C14F14285   1.466   5.696   7.777 -0.1722  0.8744 -0.0196
  132OSM   H14F14286   1.575   5.703   7.756 -0.2249 -1.0326 -0.9798
  132OSM   H14G14287   1.432   5.595   7.747 -1.8674  1.1550  0.9222
  132OSM   C15F14288   1.449   5.718   7.926 -1.2428 -0.4034 -0.1946
  132OSM   H15F14289   1.342   5.731   7.951 -1.1723  0.5891 -0.3801
  132OSM   H15G14290   1.496   5.813   7.958  0.1417 -1.3978  0.7721
  132OSM   C16F14291   1.511   5.611   8.017  0.6294  0.1918 -0.5162
  132OSM   H16F14292   1.622   5.621   8.017  0.8502 -1.4003  2.9267
  132OSM   H16G14293   1.488   5.515   7.964 -0.5126  0.4706 -0.5348
  132OSM   C17F14294   1.475   5.624   8.170 -0.1540 -0.6328  0.3941
  132OSM   H17F14295   1.364   5.625   8.178 -0.2191  0.5512 -0.4717
  132OSM   H17G14296   1.523   5.717   8.206  0.6380 -1.9124  2.7487
  132OSM   C18F14297   1.531   5.509   8.251  0.0249  0.4110 -0.2604
  132OSM   H18F14298   1.485   5.410   8.232 -0.5822  0.5751  0.3361
  132OSM   H18G14299   1.516   5.524   8.360 -1.1770  0.9045 -0.4860
  132OSM   H18H14300   1.641   5.494   8.255 -0.3506 -2.6923 -0.3931
  133SAPE     N14301   3.940   3.885  11.006 -0.5145 -0.0760 -0.2678
  133SAPE   HN114302   3.849   3.848  11.039 -1.3226  1.5450 -0.6138
  133SAPE   HN214303   3.998   3.803  10.978  1.6219  0.7290  1.5733
  133SAPE   HN314304   4.004   3.937  11.070  0.4298 -0.1256 -1.1609
  133SAPE   C1214305   3.906   3.964  10.880  0.0490  0.3714  0.2709
  133SAPE  H12A14306   3.799   3.989  10.896 -0.3893 -2.3342  2.0199
  133SAPE  H12B14307   3.918   3.893  10.795 -0.1898 -0.2560  0.7512
  133SAPE   C1114308   4.009   4.082  10.873 -0.3733  0.3706 -0.8301
  133SAPE  H11A14309   4.006   4.141  10.967  0.8153 -1.2903  0.2918
  133SAPE  H11B14310   3.974   4.148  10.790 -0.7991  1.7886  0.4560
  133SAPE     P14311   4.192   4.032  10.707  0.3830 -0.0660 -0.0449
  133SAPE   O1314312   4.221   4.175  10.668  0.1983 -0.2508 -0.5618
  133SAPE   O1414313   4.299   3.932  10.699  0.0566 -0.5813  0.0917
  133SAPE   O1214314   4.147   4.035  10.854  0.3219 -0.3003  0.0949
  133SAPE   O1114315   4.064   3.981  10.628  0.0490 -0.2988 -0.4953
  133SAPE    C114316   3.989   4.069  10.540 -0.1277  0.3418  0.7101
  133SAPE    HA14317   3.880   4.063  10.560  0.2158 -1.4225  2.2158
  133SAPE    HB14318   4.019   4.175  10.550  1.0608  0.1703 -0.9513
  133SAPE    C214319   4.016   4.023  10.400  0.0549  0.7598  0.2099
  133SAPE    HS14320   4.125   4.017  10.379 -0.4083 -0.9121 -1.8528
  133SAPE   O2114321   3.940   4.110  10.308 -0.7456 -0.3734 -0.3534
  133SAPE   C2114322   4.015   4.221  10.274  0.0900 -1.0050  0.1531
  133SAPE   O2214323   4.123   4.246  10.317 -0.1364  0.6859 -0.8553
  133SAPE   C2214324   3.943   4.306  10.180 -0.4218  0.1313 -0.0420
  133SAPE   H2R14325   3.880   4.245  10.111 -0.1066 -1.0070  0.6621
  133SAPE   H2S14326   3.876   4.370  10.241  1.1380 -0.4384  2.3559
  133SAPE    C314327   3.961   3.877  10.385 -0.1826  0.2653  0.6051
  133SAPE    HX14328   3.853   3.873  10.408 -0.5269 -1.9860 -1.3121
  133SAPE    HY14329   3.999   3.820  10.472  1.1652 -0.5385 -0.4895
  133SAPE   O3114330   3.983   3.830  10.249 -0.5806 -0.2987 -0.1525
  133SAPE   C3114331   4.097   3.763  10.239 -0.4920  0.1983  0.4854
  133SAPE   O3214332   4.171   3.730  10.330  0.6262  0.0966  0.1424
  133SAPE   C3214333   4.122   3.724  10.093 -0.7035 -0.4494 -0.3110
  133SAPE   H2X14334   4.147   3.814  10.032  1.8893 -0.7458  0.2585
  133SAPE   H2Y14335   4.045   3.659  10.048 -0.4072 -0.1392 -1.2923
  133SAPE   C2314336   4.049   4.389  10.094  0.0372 -0.2720 -0.0275
  133SAPE   H3R14337   4.104   4.325  10.023 -0.0167 -0.1268 -0.1992
  133SAPE   H3S14338   4.115   4.444  10.164 -0.8839 -0.5060  1.0574
  133SAPE   C2414339   3.975   4.490  10.002  0.1253 -0.1487 -0.8383
  133SAPE   H4R14340   3.916   4.550  10.075 -0.2085 -0.8858 -0.4948
  133SAPE   H4S14341   3.900   4.428   9.949  0.5777 -0.7581 -0.7613
  133SAPE   C2514342   4.063   4.583   9.922 -0.6734 -0.0006  0.4177
  133SAPE   H5R14343   4.089   4.680   9.968  1.2996  0.3324 -1.3138
  133SAPE   C2614344   4.099   4.574   9.793 -0.1688  0.5709 -0.1180
  133SAPE   H6R14345   4.168   4.642   9.740 -2.0801 -0.6317 -4.3662
  133SAPE   C2714346   4.049   4.459   9.707  0.6341 -0.1101 -0.2862
  133SAPE   H7R14347   3.946   4.490   9.681  0.6511  1.0535  0.9941
  133SAPE   H7S14348   4.054   4.361   9.760  4.4242 -0.3984 -1.0621
  133SAPE   C2814349   4.131   4.420   9.586 -0.0971 -0.3435  0.4028
  133SAPE   H8R14350   4.239   4.435   9.594  0.1238  0.3678 -2.9452
  133SAPE   C2914351   4.088   4.390   9.463  0.0832 -0.0323 -1.3743
  133SAPE   H9R14352   4.165   4.364   9.389  1.0367 -0.7370 -0.1449
  133SAPE  C21014353   3.945   4.373   9.419  0.2129  0.3270 -0.9725
  133SAPE  H10R14354   3.890   4.298   9.481  1.7545 -3.1224 -3.5731
  133SAPE  H10S14355   3.948   4.312   9.326  2.2303 -1.4988  0.2465
  133SAPE  C21114356   3.862   4.499   9.411  0.6618  0.4575 -0.3206
  133SAPE  H11R14357   3.881   4.578   9.486 -0.8489 -0.7843  1.4296
  133SAPE  C21214358   3.769   4.532   9.318 -0.0841 -0.6767  0.2346
  133SAPE  H12R14359   3.728   4.634   9.330 -4.5811 -2.2967 -0.5915
  133SAPE  C21314360   3.733   4.452   9.195 -0.0984  0.0244 -0.0325
  133SAPE  H13R14361   3.645   4.496   9.144  1.3070  0.0062 -2.5347
  133SAPE  H13S14362   3.708   4.352   9.235 -2.0674  0.8828  0.9675
  133SAPE  C21414363   3.844   4.449   9.088  0.1115 -0.9141 -0.2989
  133SAPE  H14R14364   3.911   4.362   9.091 -0.1729 -1.0787  2.2484
  133SAPE  C21514365   3.866   4.540   8.995 -0.0005 -0.8590 -0.0498
  133SAPE  H15R14366   3.952   4.515   8.931  1.9783  3.0019  0.9485
  133SAPE  C21614367   3.784   4.664   8.976  0.1439  0.7663  0.5348
  133SAPE  H16R14368   3.842   4.758   8.979  0.8741  0.2888  2.1708
  133SAPE  H16S14369   3.697   4.667   9.045 -0.5135  1.8952 -0.3305
  133SAPE  C21714370   3.711   4.670   8.840 -0.9595 -0.3543 -0.2151
  133SAPE  H17R14371   3.646   4.761   8.843 -0.4463 -0.0078  0.9753
  133SAPE  H17S14372   3.654   4.575   8.837 -1.9236  0.1761  0.7054
  133SAPE  C21814373   3.795   4.675   8.713 -1.0717 -1.1062  0.2122
  133SAPE  H18R14374   3.852   4.585   8.683  1.9108  0.8469 -0.2407
  133SAPE  H18S14375   3.869   4.757   8.727  0.2605 -2.2007 -0.3406
  133SAPE  C21914376   3.726   4.714   8.582 -0.6666  0.1867 -0.2259
  133SAPE  H19R14377   3.618   4.695   8.597 -0.7045  0.6959  0.1596
  133SAPE  H19S14378   3.757   4.661   8.489 -0.3774 -0.8729  0.4717
  133SAPE  C22014379   3.761   4.858   8.543  0.1021  0.4284 -1.1306
  133SAPE  H20R14380   3.776   4.929   8.628 -1.6460 -0.7345  0.1853
  133SAPE  H20S14381   3.686   4.902   8.474 -1.0227  1.2852  0.6029
  133SAPE  H20T14382   3.862   4.858   8.497  0.8989 -1.9904  0.5280
  133SAPE   C3314383   4.249   3.643  10.084  0.2634 -0.2296 -0.5498
  133SAPE   H3X14384   4.222   3.544  10.126 -0.4841 -0.1001 -0.7251
  133SAPE   H3Y14385   4.332   3.678  10.150  0.6023 -0.0930 -1.0413
  133SAPE   C3414386   4.312   3.625   9.945  0.2182  0.0502 -0.4283
  133SAPE   H4X14387   4.399   3.557   9.954  1.5411  1.8479  0.8618
  133SAPE   H4Y14388   4.346   3.719   9.896  3.5058  0.3374  2.2154
  133SAPE   C3514389   4.223   3.545   9.848  0.2466 -1.2628 -0.6303
  133SAPE   H5X14390   4.120   3.568   9.882  1.0043 -0.3391  1.0350
  133SAPE   H5Y14391   4.245   3.439   9.873  2.4861 -0.7712 -0.4887
  133SAPE   C3614392   4.236   3.587   9.705  0.4729 -0.2276 -0.3501
  133SAPE   H6X14393   4.329   3.540   9.668  0.8402 -0.0738  0.3665
  133SAPE   H6Y14394   4.261   3.694   9.686 -1.7880  0.1917 -1.0585
  133SAPE   C3714395   4.117   3.564   9.614 -0.1671 -0.3850  0.3563
  133SAPE   H7X14396   4.035   3.630   9.649 -1.1992 -1.2497 -0.3937
  133SAPE   H7Y14397   4.084   3.459   9.632 -1.7519 -0.3367 -2.0667
  133SAPE   C3814398   4.145   3.587   9.466  0.4320 -0.1522 -0.3101
  133SAPE   H8X14399   4.219   3.511   9.434  1.0798  1.2613 -2.2739
  133SAPE   H8Y14400   4.200   3.684   9.464 -1.2350  0.8030 -0.9185
  133SAPE   C3914401   4.019   3.584   9.377 -0.1038 -0.2800 -0.2207
  133SAPE   H9X14402   3.951   3.661   9.419  0.8448 -0.2324  1.2465
  133SAPE   H9Y14403   3.971   3.483   9.372 -1.1605  0.2389 -0.6852
  133SAPE  C31014404   4.056   3.623   9.235  0.1929  0.4117 -0.0311
  133SAPE  H10X14405   4.122   3.550   9.185  0.7685  2.1891 -1.9454
  133SAPE  H10Y14406   4.107   3.721   9.247  0.1907  0.6455 -1.8304
  133SAPE  C31114407   3.937   3.658   9.137 -0.2511 -0.0383  0.0316
  133SAPE  H11X14408   3.865   3.727   9.186  0.8304  0.2965  1.1837
  133SAPE  H11Y14409   3.878   3.565   9.128 -2.0735  1.0898  0.0876
  133SAPE  C31214410   3.976   3.707   9.000  0.2758  0.5311 -0.5844
  133SAPE  H12X14411   4.034   3.802   9.004  4.0650 -1.7060  0.1930
  133SAPE  H12Y14412   3.894   3.728   8.928 -0.3045 -2.0300 -0.7220
  133SAPE  C31314413   4.070   3.611   8.919 -0.4267 -0.2901  0.2654
  133SAPE  H13X14414   4.011   3.517   8.910 -1.2583 -0.0475  2.6790
  133SAPE  H13Y14415   4.157   3.581   8.981  0.6445  1.2398 -0.4844
  133SAPE  C31414416   4.098   3.656   8.776 -0.5959 -0.1238  0.2226
  133SAPE  H14X14417   4.140   3.756   8.754 -1.5444  0.0123 -1.0509
  133SAPE  H14Y14418   3.998   3.662   8.728 -0.2091 -2.7635 -1.0618
  133SAPE  C31514419   4.193   3.550   8.710  0.0421 -0.3873  0.5181
  133SAPE  H15X14420   4.171   3.446   8.745 -1.3044 -0.8560 -1.6372
  133SAPE  H15Y14421   4.288   3.574   8.762 -0.6766  0.0964  1.6282
  133SAPE  C31614422   4.208   3.563   8.562  0.5604  0.3211 -0.3359
  133SAPE  H16X14423   4.233   3.667   8.532 -1.2834  1.3342  1.4969
  133SAPE  H16Y14424   4.105   3.542   8.526  0.0800  1.7455  0.1782
  133SAPE  C31714425   4.312   3.474   8.502 -0.7968  0.5838  0.6337
  133SAPE  H17X14426   4.309   3.373   8.549  2.5660  0.2340  0.1763
  133SAPE  H17Y14427   4.406   3.519   8.540  0.1403  1.0574 -2.1388
  133SAPE  C31814428   4.310   3.471   8.353 -0.1170 -0.3270  0.1946
  133SAPE  H18X14429   4.307   3.573   8.309 -0.5597  0.0347  1.0602
  133SAPE  H18Y14430   4.215   3.421   8.328  0.3567 -0.7465 -0.8051
  133SAPE  H18Z14431   4.408   3.437   8.312  0.0437 -1.2587  1.3166
  134SAPE     N14432   0.311   5.197  10.550 -0.4293 -0.5400  0.0541
  134SAPE   HN114433   0.354   5.140  10.474 -0.5122  1.2274 -1.3393
  134SAPE   HN214434   0.232   5.248  10.505 -1.1682 -0.8384  0.9970
  134SAPE   HN314435   0.380   5.261  10.592  1.8305 -2.9348  0.1182
  134SAPE   C1214436   0.267   5.123  10.674  0.5499  0.2077 -0.0214
  134SAPE  H12A14437   0.352   5.082  10.732  0.4644  0.2498  0.1344
  134SAPE  H12B14438   0.210   5.035  10.639 -0.3237 -0.2286  2.4148
  134SAPE   C1114439   0.178   5.216  10.760 -0.6396 -0.7480 -0.5439
  134SAPE  H11A14440   0.230   5.299  10.812 -0.0772 -0.7382 -1.1009
  134SAPE  H11B14441   0.150   5.154  10.847 -2.2394  0.1364 -0.4235
  134SAPE     P14442   0.036   5.414  10.635 -0.1894  0.2143 -0.2610
  134SAPE   O1314443   0.002   5.498  10.749 -0.6265  0.3623 -0.5157
  134SAPE   O1414444   0.155   5.449  10.557 -0.0229 -0.2475 -0.4083
  134SAPE   O1214445   0.058   5.265  10.691 -0.9308  0.2486  0.5099
  134SAPE   O1114446  -0.089   5.399  10.537 -0.6712  0.5231  1.0647
  134SAPE    C114447  -0.176   5.289  10.547  0.1368  0.1567  0.7457
  134SAPE    HA14448  -0.199   5.264  10.653  3.1712  0.3799  1.5062
  134SAPE    HB14449  -0.272   5.332  10.511 -0.7878 -0.8004  1.9993
  134SAPE    C214450  -0.131   5.157  10.478 -0.0591 -0.5496  0.0031
  134SAPE    HS14451  -0.038   5.119  10.526 -0.3314  0.1561  1.1375
  134SAPE   O2114452  -0.115   5.200  10.340  0.5329 -0.4036 -0.2183
  134SAPE   C2114453   0.007   5.203  10.296  0.3650 -0.1993  0.1320
  134SAPE   O2214454   0.108   5.173  10.361 -0.0104 -0.4949 -0.8997
  134SAPE   C2214455  -0.011   5.261  10.155  0.7003  0.1028 -0.4070
  134SAPE   H2R14456  -0.101   5.327  10.152 -0.2461 -1.2017 -1.8448
  134SAPE   H2S14457   0.088   5.307  10.134 -0.1807  1.6445 -1.2727
  134SAPE    C314458  -0.233   5.043  10.495  0.2875 -0.4682 -0.3731
  134SAPE    HX14459  -0.333   5.074  10.460 -0.1867 -2.5534 -0.9249
  134SAPE    HY14460  -0.255   5.023  10.603  4.0958 -0.2549  0.5065
  134SAPE   O3114461  -0.191   4.928  10.414 -0.2836  0.3045  0.1035
  134SAPE   C3114462  -0.123   4.830  10.481  0.5397  0.1280  0.1618
  134SAPE   O3214463  -0.119   4.827  10.605 -0.1563  1.1344  0.1543
  134SAPE   C3214464  -0.066   4.723  10.385  0.2074 -0.7957  1.0723
  134SAPE   H2X14465  -0.154   4.686  10.327 -0.0062  2.3989 -0.7171
  134SAPE   H2Y14466  -0.034   4.639  10.451 -1.9650 -1.2196  1.6341
  134SAPE   C2314467  -0.033   5.155  10.046  0.1217 -0.4903  0.3826
  134SAPE   H3R14468  -0.105   5.078  10.080 -0.6693  1.9199  4.3862
  134SAPE   H3S14469   0.059   5.094  10.037  0.6912  0.1626  1.6953
  134SAPE   C2414470  -0.088   5.203   9.911  0.3478 -0.1160  0.1674
  134SAPE   H4R14471  -0.188   5.245   9.937 -0.1242 -0.2287 -1.4039
  134SAPE   H4S14472  -0.098   5.118   9.841  0.7042  0.0433 -0.0769
  134SAPE   C2514473  -0.025   5.323   9.846 -1.0912  0.1234 -0.5656
  134SAPE   H5R14474   0.021   5.391   9.919 -0.2204 -2.1425  1.0559
  134SAPE   C2614475  -0.004   5.345   9.713  0.6410 -0.1295 -0.5938
  134SAPE   H6R14476   0.057   5.433   9.688  1.3604 -0.6108 -0.5290
  134SAPE   C2714477  -0.036   5.257   9.598  0.2670  0.0151 -0.0959
  134SAPE   H7R14478  -0.118   5.193   9.637 -0.0188  1.0975  1.1058
  134SAPE   H7S14479   0.042   5.178   9.585 -0.5128 -1.3853  3.1992
  134SAPE   C2814480  -0.065   5.322   9.464 -0.1146  0.2310 -0.5896
  134SAPE   H8R14481   0.016   5.375   9.413  0.9548 -0.6553  0.1543
  134SAPE   C2914482  -0.188   5.327   9.399  0.0422 -0.3379 -0.1567
  134SAPE   H9R14483  -0.202   5.371   9.299 -0.6314 -1.7182 -0.6834
  134SAPE  C21014484  -0.316   5.278   9.465 -0.5913 -0.8577 -0.3315
  134SAPE  H10R14485  -0.297   5.220   9.558 -2.2549 -0.5412  0.2215
  134SAPE  H10S14486  -0.369   5.205   9.401 -1.6107  0.6439 -1.2322
  134SAPE  C21114487  -0.413   5.392   9.491  0.0631  0.4168  0.2458
  134SAPE  H11R14488  -0.391   5.454   9.579 -1.0626  3.0538 -1.2522
  134SAPE  C21214489  -0.518   5.426   9.414 -0.4870 -0.1134  0.5921
  134SAPE  H12R14490  -0.587   5.494   9.466 -1.1654  0.4953 -1.0888
  134SAPE  C21314491  -0.578   5.354   9.292 -0.7341 -0.3332  0.2335
  134SAPE  H13R14492  -0.686   5.340   9.314 -1.2192  2.1477 -0.4260
  134SAPE  H13S14493  -0.536   5.252   9.275  1.3439  0.7688 -1.5466
  134SAPE  C21414494  -0.569   5.441   9.169  1.0709  0.7640 -0.3782
  134SAPE  H14R14495  -0.597   5.546   9.187 -1.9886 -0.1253  0.4732
  134SAPE  C21514496  -0.545   5.410   9.042 -0.1189  0.3212  1.0529
  134SAPE  H15R14497  -0.543   5.483   8.960  0.2059 -2.8842 -1.8691
  134SAPE  C21614498  -0.503   5.267   9.000  0.7263 -0.1628 -0.0196
  134SAPE  H16R14499  -0.594   5.215   8.964  0.1903 -0.4700  1.7351
  134SAPE  H16S14500  -0.449   5.201   9.072  0.8535  1.2338  1.1946
  134SAPE  C21714501  -0.418   5.274   8.870  0.4200  0.0011 -0.3428
  134SAPE  H17R14502  -0.315   5.306   8.894 -0.2270  1.9260 -0.0646
  134SAPE  H17S14503  -0.464   5.346   8.800  0.0383  3.4154  3.2502
  134SAPE  C21814504  -0.407   5.134   8.809 -0.5928  0.0067  0.0395
  134SAPE  H18R14505  -0.509   5.089   8.810 -1.1809  1.2668 -1.2690
  134SAPE  H18S14506  -0.327   5.090   8.872  1.0694  1.4755 -0.9959
  134SAPE  C21914507  -0.360   5.150   8.667 -0.0883  0.0533  0.2805
  134SAPE  H19R14508  -0.261   5.200   8.656 -0.6805  1.0959 -0.3067
  134SAPE  H19S14509  -0.431   5.211   8.609 -0.8416 -1.2608 -0.2019
  134SAPE  C22014510  -0.345   5.015   8.599 -0.8899 -0.2485  0.3798
  134SAPE  H20R14511  -0.440   4.956   8.594 -1.4772  0.7569 -0.6949
  134SAPE  H20S14512  -0.263   4.954   8.641  1.5316  1.6495 -1.4277
  134SAPE  H20T14513  -0.326   5.030   8.490 -1.1243  0.6897  0.4672
  134SAPE   C3314514   0.051   4.782  10.304 -0.6819 -0.1350  0.1393
  134SAPE   H3X14515   0.123   4.835  10.370 -1.5719  2.1828 -0.6981
  134SAPE   H3Y14516   0.007   4.862  10.240 -1.9313 -0.3932  0.6485
  134SAPE   C3414517   0.127   4.680  10.213  0.0515 -0.3683  0.7659
  134SAPE   H4X14518   0.137   4.588  10.274  0.3751 -0.1339  1.0650
  134SAPE   H4Y14519   0.227   4.722  10.189 -0.4248 -0.8067 -2.1961
  134SAPE   C3514520   0.053   4.648  10.083 -0.1537 -0.3149  0.4666
  134SAPE   H5X14521  -0.054   4.624  10.104  0.2675 -1.9524  0.8223
  134SAPE   H5Y14522   0.118   4.575  10.030  2.8968  0.6796  2.6757
  134SAPE   C3614523   0.056   4.770   9.979 -0.4759 -0.4077 -0.5106
  134SAPE   H6X14524   0.160   4.808   9.971  0.1732 -1.9479  0.3264
  134SAPE   H6Y14525  -0.005   4.857  10.013 -2.0052 -1.2935 -0.9113
  134SAPE   C3714526  -0.005   4.732   9.843 -0.1849  0.4697 -0.5440
  134SAPE   H7X14527  -0.108   4.692   9.857  0.5026 -0.9266  0.7285
  134SAPE   H7Y14528   0.059   4.650   9.803 -3.0478 -2.0023 -0.2587
  134SAPE   C3814529  -0.012   4.842   9.737 -0.0730  0.0551  0.0671
  134SAPE   H8X14530   0.088   4.891   9.734 -0.1501  0.2163  0.1662
  134SAPE   H8Y14531  -0.082   4.922   9.769 -0.5684 -0.5914  0.6128
  134SAPE   C3914532  -0.039   4.790   9.598 -0.1603 -0.4309  0.3305
  134SAPE   H9X14533  -0.142   4.748   9.601 -0.4268  0.2060  0.0264
  134SAPE   H9Y14534   0.030   4.706   9.572  1.4673  0.6842  0.9927
  134SAPE  C31014535  -0.014   4.888   9.485  0.0948 -0.3183 -0.4848
  134SAPE  H10X14536   0.086   4.934   9.498  0.4300 -1.4113  0.9602
  134SAPE  H10Y14537  -0.089   4.969   9.496 -0.2736 -0.7571  0.2409
  134SAPE  C31114538  -0.012   4.823   9.344 -0.3769 -0.2224 -0.5280
  134SAPE  H11X14539  -0.112   4.777   9.328 -0.7268  0.9120 -1.6421
  134SAPE  H11Y14540   0.057   4.735   9.341 -2.0613 -1.5810 -0.0501
  134SAPE  C31214541   0.017   4.928   9.232 -0.3488  0.6948 -0.0247
  134SAPE  H12X14542   0.126   4.933   9.210 -0.3820 -0.6551 -0.5144
  134SAPE  H12Y14543  -0.024   5.029   9.252 -0.7569  0.9261 -1.8901
  134SAPE  C31314544  -0.059   4.885   9.107  0.1629  0.0420  0.2045
  134SAPE  H13X14545  -0.168   4.881   9.127  0.0656 -0.8219 -0.4682
  134SAPE  H13Y14546  -0.024   4.780   9.098  0.3043 -0.0454  1.6006
  134SAPE  C31414547  -0.043   4.978   8.989 -0.1574  0.2206  0.9101
  134SAPE  H14X14548  -0.112   4.954   8.905  2.0700 -2.1640 -0.2823
  134SAPE  H14Y14549   0.057   4.960   8.946  0.5418  2.5032  1.4912
  134SAPE  C31514550  -0.050   5.132   9.015  0.1593  0.2636 -0.0475
  134SAPE  H15X14551   0.027   5.147   9.094  0.4944  1.6916 -0.6223
  134SAPE  H15Y14552  -0.154   5.152   9.050 -0.2456  0.0828 -1.1541
  134SAPE  C31614553  -0.005   5.215   8.896 -0.1568 -0.8193 -0.4442
  134SAPE  H16X14554  -0.075   5.218   8.810  0.2991  1.3830 -0.7443
  134SAPE  H16Y14555   0.088   5.170   8.855  1.5875  0.2134  2.2340
  134SAPE  C31714556   0.021   5.361   8.938  0.2272 -0.7690  0.0558
  134SAPE  H17X14557   0.059   5.357   9.042  0.0039 -1.4962  0.1122
  134SAPE  H17Y14558  -0.073   5.420   8.946  0.3237 -0.6006 -0.0555
  134SAPE  C31814559   0.125   5.425   8.849  0.3176  0.4912 -0.4541
  134SAPE  H18X14560   0.210   5.354   8.864 -1.5754 -1.2807  2.4811
  134SAPE  H18Y14561   0.148   5.532   8.868 -0.0432  0.7894 -1.6196
  134SAPE  H18Z14562   0.102   5.415   8.741  1.2703  0.3253 -0.6461
  135SAPE     N14563   5.770   3.475  10.642 -0.1422 -0.1602  0.0439
  135SAPE   HN114564   5.764   3.578  10.627  2.5820  0.1117  0.6940
  135SAPE   HN214565   5.731   3.449  10.735 -0.8517  1.3925  0.2139
  135SAPE   HN314566   5.871   3.454  10.652  0.3457  2.4681  1.2036
  135SAPE   C1214567   5.722   3.401  10.521 -0.0016 -0.3883 -0.6171
  135SAPE  H12A14568   5.781   3.439  10.435  0.0777  2.0551  0.4791
  135SAPE  H12B14569   5.616   3.433  10.513 -0.1376 -0.1534  1.8647
  135SAPE   C1114570   5.728   3.250  10.544 -0.1703  0.3874 -0.3717
  135SAPE  H11A14571   5.681   3.199  10.457  1.2680 -0.8892 -0.4165
  135SAPE  H11B14572   5.660   3.218  10.625  0.9070 -1.4058 -0.1592
  135SAPE     P14573   5.880   3.055  10.587 -0.1399  0.0561 -0.0488
  135SAPE   O1314574   5.949   3.044  10.719 -0.2726 -0.5710  0.2261
  135SAPE   O1414575   5.758   2.970  10.574  0.4294  0.3025 -0.0871
  135SAPE   O1214576   5.856   3.208  10.559 -0.3592  0.1592  0.5634
  135SAPE   O1114577   5.975   3.014  10.472 -0.1635  0.3733 -0.3657
  135SAPE    C114578   5.978   3.075  10.343  0.5564  0.3397  0.2595
  135SAPE    HA14579   5.961   3.185  10.339 -4.1686 -0.3319 -1.1622
  135SAPE    HB14580   6.081   3.070  10.303  0.0393  1.3747 -1.2555
  135SAPE    C214581   5.870   3.004  10.248 -0.7440 -0.3406  0.4506
  135SAPE    HS14582   5.771   3.047  10.273 -0.7621 -0.3034  0.3150
  135SAPE   O2114583   5.874   2.864  10.282 -0.4765  0.4117 -0.3495
  135SAPE   C2114584   5.764   2.803  10.297 -0.3823  0.5462  0.9857
  135SAPE   O2214585   5.655   2.849  10.274 -0.4794  0.1162  0.1285
  135SAPE   C2214586   5.793   2.657  10.346  0.3290 -0.2132  0.9920
  135SAPE   H2R14587   5.831   2.600  10.258  0.3113  1.7553 -0.3030
  135SAPE   H2S14588   5.858   2.665  10.436  1.5851 -0.7482  0.1466
  135SAPE    C314589   5.903   3.039  10.096 -0.3101  0.1846 -0.3153
  135SAPE    HX14590   5.974   2.956  10.071 -2.3636 -1.4590 -0.7961
  135SAPE    HY14591   5.957   3.133  10.074 -2.0315  1.6846  1.7621
  135SAPE   O3114592   5.796   3.016  10.004 -0.2077  0.0017  0.5123
  135SAPE   C3114593   5.713   3.120   9.976 -0.2931  0.2115  0.6440
  135SAPE   O3214594   5.704   3.221  10.041 -0.1021  0.3579  0.4951
  135SAPE   C3214595   5.628   3.086   9.849  0.6009 -0.0144 -0.2191
  135SAPE   H2X14596   5.581   2.986   9.856  2.0936 -0.8848 -2.1747
  135SAPE   H2Y14597   5.703   3.088   9.766  0.1842  0.3293 -0.5933
  135SAPE   C2314598   5.661   2.588  10.388 -0.3523  0.3072 -0.2053
  135SAPE   H3R14599   5.609   2.664  10.450  1.5999 -1.9870  4.5321
  135SAPE   H3S14600   5.683   2.503  10.457 -0.6414 -0.3516 -0.9187
  135SAPE   C2414601   5.568   2.526  10.280  0.3818 -0.4064  0.3010
  135SAPE   H4R14602   5.526   2.609  10.220 -0.8268 -0.1106  1.5362
  135SAPE   H4S14603   5.490   2.474  10.341  0.7229  1.7715  2.7011
  135SAPE   C2514604   5.643   2.424  10.201 -0.3657  0.5691 -0.4358
  135SAPE   H5R14605   5.686   2.339  10.257 -0.0340  0.7099 -0.4749
  135SAPE   C2614606   5.651   2.420  10.070  0.3071 -0.0803 -0.4926
  135SAPE   H6R14607   5.711   2.336  10.033 -1.0624 -0.2741 -2.3501
  135SAPE   C2714608   5.592   2.511   9.971  0.3009 -0.1066  0.8565
  135SAPE   H7R14609   5.484   2.536   9.986  0.0190 -0.2955 -0.7346
  135SAPE   H7S14610   5.596   2.460   9.872  0.2691 -2.9303  2.2589
  135SAPE   C2814611   5.669   2.637   9.970  0.0537 -1.1386  0.7784
  135SAPE   H8R14612   5.673   2.697  10.062 -5.0855  0.9090 -0.1732
  135SAPE   C2914613   5.730   2.697   9.859  0.2510  0.5829  0.6422
  135SAPE   H9R14614   5.755   2.803   9.876 -0.2603  0.9835 -0.9907
  135SAPE  C21014615   5.736   2.650   9.717  0.7918  0.0891 -0.2022
  135SAPE  H10R14616   5.641   2.607   9.680  2.2803 -4.3514  0.8425
  135SAPE  H10S14617   5.807   2.565   9.721 -1.7582 -2.1890 -1.4183
  135SAPE  C21114618   5.795   2.754   9.624  0.2571 -0.1711 -0.4975
  135SAPE  H11R14619   5.884   2.809   9.658  0.2802 -2.0124  2.5948
  135SAPE  C21214620   5.758   2.777   9.495  0.3630  0.3038  0.1093
  135SAPE  H12R14621   5.802   2.867   9.449 -0.4236  1.5353  1.6999
  135SAPE  C21314622   5.645   2.705   9.414  0.3467  0.8886 -0.0660
  135SAPE  H13R14623   5.621   2.605   9.457 -0.4838  1.4747  0.8753
  135SAPE  H13S14624   5.682   2.675   9.314 -0.0942 -1.1825  0.3787
  135SAPE  C21414625   5.514   2.783   9.431  0.2749 -0.3747  0.3904
  135SAPE  H14R14626   5.467   2.812   9.526 -1.3234 -1.3545 -0.0763
  135SAPE  C21514627   5.446   2.839   9.327  0.0949 -0.1615 -0.7426
  135SAPE  H15R14628   5.342   2.867   9.350  0.2542 -0.7857  0.8284
  135SAPE  C21614629   5.479   2.825   9.183  0.0291 -0.0749 -0.3444
  135SAPE  H16R14630   5.413   2.740   9.154 -0.2752  0.9960 -2.9561
  135SAPE  H16S14631   5.585   2.796   9.163  0.7402  2.2157  0.0067
  135SAPE  C21714632   5.445   2.948   9.094 -0.1330  0.4731  1.0707
  135SAPE  H17R14633   5.529   3.020   9.102  0.7291 -0.4350  0.2931
  135SAPE  H17S14634   5.351   2.997   9.126 -1.0160 -0.9748  0.7321
  135SAPE  C21814635   5.406   2.911   8.949 -0.1685  0.0846 -0.1975
  135SAPE  H18R14636   5.377   3.000   8.889 -2.6987  0.4638  1.5113
  135SAPE  H18S14637   5.319   2.842   8.940  0.1765 -0.2235 -1.2134
  135SAPE  C21914638   5.514   2.834   8.869  0.2933  0.6512 -0.3268
  135SAPE  H19R14639   5.459   2.793   8.782  0.1258 -0.2701  0.2053
  135SAPE  H19S14640   5.542   2.747   8.933  0.6516  1.6418  0.8723
  135SAPE  C22014641   5.640   2.923   8.830  0.1076  0.1733  0.3564
  135SAPE  H20R14642   5.723   2.866   8.783 -0.4919  0.5421 -1.1783
  135SAPE  H20S14643   5.679   2.980   8.917 -0.3381 -0.2980  0.8664
  135SAPE  H20T14644   5.620   2.995   8.747 -1.1405 -0.9045 -0.3057
  135SAPE   C3314645   5.524   3.198   9.817  0.0906  0.2525  0.2226
  135SAPE   H3X14646   5.455   3.235   9.896 -0.4490 -0.5506  0.1323
  135SAPE   H3Y14647   5.456   3.151   9.743  0.7983 -1.4767  0.6359
  135SAPE   C3414648   5.593   3.316   9.748 -0.3427 -0.3967 -0.6860
  135SAPE   H4X14649   5.678   3.285   9.683  2.9501  2.5485  1.9977
  135SAPE   H4Y14650   5.629   3.396   9.818  1.3441 -0.8674 -0.9824
  135SAPE   C3514651   5.502   3.384   9.641 -0.5210  0.3648 -0.3522
  135SAPE   H5X14652   5.408   3.396   9.699 -0.5204  0.2276 -0.3237
  135SAPE   H5Y14653   5.484   3.305   9.564 -0.0106 -0.3644  0.2729
  135SAPE   C3614654   5.560   3.510   9.581 -0.1706 -0.6936 -0.4977
  135SAPE   H6X14655   5.659   3.483   9.538  0.4569 -1.0580  1.1167
  135SAPE   H6Y14656   5.588   3.578   9.665  0.1051  0.3935 -1.4661
  135SAPE   C3714657   5.459   3.581   9.485 -0.1641  0.4574  0.6345
  135SAPE   H7X14658   5.505   3.667   9.432  1.3139 -0.4363  0.4438
  135SAPE   H7Y14659   5.378   3.611   9.555  0.4573 -0.0628  1.5835
  135SAPE   C3814660   5.393   3.506   9.376 -0.3523 -0.0715 -0.1216
  135SAPE   H8X14661   5.322   3.573   9.322  0.9648  0.6460 -0.9758
  135SAPE   H8Y14662   5.323   3.426   9.410 -0.8136  0.0647 -0.7389
  135SAPE   C3914663   5.489   3.453   9.265  0.4450 -0.1297  0.8454
  135SAPE   H9X14664   5.554   3.370   9.302 -0.3760 -1.3979 -0.4918
  135SAPE   H9Y14665   5.550   3.539   9.231 -2.0208  1.4218  0.2538
  135SAPE  C31014666   5.392   3.406   9.158  0.0578  0.0117 -0.3137
  135SAPE  H10X14667   5.295   3.459   9.164  1.5562  2.6980  0.9391
  135SAPE  H10Y14668   5.377   3.299   9.186  0.6184 -0.1280 -0.5461
  135SAPE  C31114669   5.454   3.417   9.021 -0.4054  0.0599  0.7501
  135SAPE  H11X14670   5.562   3.388   9.023 -0.6012 -0.6576  1.1792
  135SAPE  H11Y14671   5.449   3.522   8.986 -1.4163 -0.3320 -0.3038
  135SAPE  C31214672   5.381   3.331   8.920 -0.0214  0.1908  0.1161
  135SAPE  H12X14673   5.272   3.329   8.941  0.1661 -1.3334  0.9638
  135SAPE  H12Y14674   5.425   3.229   8.918 -0.1575  0.1403 -0.5398
  135SAPE  C31314675   5.389   3.380   8.773 -0.1853 -0.6506  0.7462
  135SAPE  H13X14676   5.356   3.486   8.775 -0.3830 -0.7128  3.1712
  135SAPE  H13Y14677   5.329   3.321   8.700  2.8931 -1.6512 -1.0614
  135SAPE  C31414678   5.529   3.383   8.710 -0.0866 -0.6135  0.0733
  135SAPE  H14X14679   5.567   3.279   8.708 -2.4513 -1.4738 -0.8030
  135SAPE  H14Y14680   5.599   3.446   8.770  0.5434  0.2595 -1.5475
  135SAPE  C31514681   5.517   3.428   8.566  0.0135 -0.6768 -0.2427
  135SAPE  H15X14682   5.486   3.534   8.573 -0.4360 -0.9036  1.3321
  135SAPE  H15Y14683   5.435   3.382   8.507  1.5483 -0.5320 -2.5448
  135SAPE  C31614684   5.645   3.407   8.491 -0.4882  0.8005  0.2413
  135SAPE  H16X14685   5.660   3.299   8.469  0.9764  0.8856  0.7792
  135SAPE  H16Y14686   5.725   3.454   8.552  0.3246  1.9337 -1.6764
  135SAPE  C31714687   5.641   3.483   8.360  0.0662 -0.0933  0.1336
  135SAPE  H17X14688   5.595   3.579   8.392  3.3050  1.7736 -0.6397
  135SAPE  H17Y14689   5.577   3.443   8.279 -0.8089  2.3172 -0.4286
  135SAPE  C31814690   5.777   3.513   8.303  0.0174 -0.3161 -0.3363
  135SAPE  H18X14691   5.774   3.586   8.219  1.7016 -0.4415 -0.5186
  135SAPE  H18Y14692   5.817   3.420   8.257  0.2345  1.1516 -3.2643
  135SAPE  H18Z14693   5.832   3.564   8.385 -2.9267 -1.8141  2.6894
  136SAPE     N14694   1.756   2.433  10.955  0.3001 -0.3657 -0.4393
  136SAPE   HN114695   1.772   2.331  10.964 -1.1744 -0.6309 -0.7181
  136SAPE   HN214696   1.662   2.452  10.995  1.2242 -1.7685  2.5615
  136SAPE   HN314697   1.748   2.459  10.854  1.5138  0.6192 -0.3008
  136SAPE   C1214698   1.855   2.509  11.042  0.7766  0.2360  0.3066
  136SAPE  H12A14699   1.878   2.441  11.127 -1.4017 -2.1862 -0.9485
  136SAPE  H12B14700   1.806   2.602  11.078 -0.0802  0.2126 -0.7617
  136SAPE   C1114701   1.986   2.544  10.967 -0.3742  0.0948 -0.3202
  136SAPE  H11A14702   2.032   2.447  10.938 -1.9218 -0.6060 -0.4992
  136SAPE  H11B14703   2.057   2.589  11.039 -1.8645  0.4875  0.9357
  136SAPE     P14704   1.957   2.779  10.851  0.1948 -0.2257  0.1094
  136SAPE   O1314705   1.835   2.830  10.916 -0.3140  0.0768 -0.3918
  136SAPE   O1414706   2.081   2.819  10.915 -0.2677 -0.4120  0.6158
  136SAPE   O1214707   1.957   2.620  10.848 -0.0541  0.1965 -0.6644
  136SAPE   O1114708   1.974   2.819  10.701  0.8236  0.7724  0.0385
  136SAPE    C114709   2.082   2.769  10.626 -0.1303  0.3044 -0.2815
  136SAPE    HA14710   2.168   2.838  10.618 -0.4385  0.5674 -1.5286
  136SAPE    HB14711   2.130   2.676  10.662  3.5031  0.8920 -3.3225
  136SAPE    C214712   2.037   2.738  10.482 -0.5528  1.0292 -0.0787
  136SAPE    HS14713   2.133   2.711  10.433 -0.9166  1.0695 -0.8137
  136SAPE   O2114714   1.950   2.838  10.411  0.2452 -0.0444  0.3002
  136SAPE   C2114715   2.018   2.941  10.374  0.8955  0.3791 -0.0886
  136SAPE   O2214716   2.138   2.958  10.399  0.2909 -0.0789 -0.6269
  136SAPE   C2214717   1.923   3.049  10.316 -1.0346 -0.4310  1.0232
  136SAPE   H2R14718   1.859   2.999  10.240 -1.2693 -0.7862  1.4546
  136SAPE   H2S14719   1.874   3.098  10.402 -3.1031 -2.1946  0.8952
  136SAPE    C314720   1.965   2.603  10.493  0.6038 -0.2399  0.4926
  136SAPE    HX14721   1.909   2.589  10.587  2.1476 -1.4804  1.2596
  136SAPE    HY14722   2.040   2.522  10.504 -2.0808 -3.3626 -3.1092
  136SAPE   O3114723   1.874   2.568  10.386  0.8548 -0.6312  0.0250
  136SAPE   C3114724   1.935   2.526  10.271  0.6727  0.1920  0.4206
  136SAPE   O3214725   2.056   2.520  10.254 -0.3910 -0.2159 -0.3626
  136SAPE   C3214726   1.828   2.481  10.174  0.5114 -1.1408  0.0585
  136SAPE   H2X14727   1.763   2.568  10.150  1.9148  0.6279  2.4124
  136SAPE   H2Y14728   1.770   2.405  10.231 -0.0752 -2.2109 -1.9270
  136SAPE   C2314729   2.005   3.157  10.240  0.6157 -0.1766 -0.1414
  136SAPE   H3R14730   2.082   3.108  10.177 -1.5530 -3.3206 -0.4672
  136SAPE   H3S14731   2.052   3.229  10.310 -1.3741  0.0581  1.0151
  136SAPE   C2414732   1.907   3.230  10.142 -0.2897 -0.4445  0.1496
  136SAPE   H4R14733   1.823   3.267  10.206  0.5611 -0.1546  1.1183
  136SAPE   H4S14734   1.885   3.153  10.066  0.9033 -0.8057  0.1653
  136SAPE   C2514735   1.992   3.344  10.086 -0.2976  0.4927  0.5554
  136SAPE   H5R14736   2.033   3.414  10.160 -0.1576  0.9321  0.0616
  136SAPE   C2614737   2.034   3.348   9.957 -0.3733  0.1010  0.2155
  136SAPE   H6R14738   2.096   3.435   9.933 -0.4678  0.2404  0.4747
  136SAPE   C2714739   1.994   3.251   9.844 -0.2701 -0.5152 -0.0517
  136SAPE   H7R14740   1.996   3.309   9.749  1.4061  1.7742  1.3176
  136SAPE   H7S14741   1.888   3.218   9.855 -0.7823  1.2706  0.5009
  136SAPE   C2814742   2.094   3.135   9.828  0.1260  0.0216 -0.0018
  136SAPE   H8R14743   2.199   3.158   9.846  0.1342 -0.4069  0.5316
  136SAPE   C2914744   2.070   3.007   9.802  0.5478 -0.3325  0.5927
  136SAPE   H9R14745   2.157   2.939   9.798  0.1967 -0.8274  1.3498
  136SAPE  C21014746   1.945   2.930   9.775 -0.8110 -0.0147  0.1068
  136SAPE  H10R14747   1.868   2.987   9.720  0.8113 -0.0656 -2.2671
  136SAPE  H10S14748   1.893   2.914   9.872 -0.2526 -1.4374  0.1839
  136SAPE  C21114749   1.981   2.800   9.709  0.4693  0.0874 -0.3437
  136SAPE  H11R14750   1.976   2.710   9.773 -1.8199 -0.3058 -1.0305
  136SAPE  C21214751   1.994   2.770   9.578  0.5098 -0.0899  0.6011
  136SAPE  H12R14752   2.023   2.668   9.551  4.6936  0.7265  1.7072
  136SAPE  C21314753   1.969   2.864   9.463 -0.1299  0.7840  0.0509
  136SAPE  H13R14754   1.930   2.964   9.490 -0.6938  0.3600  0.8217
  136SAPE  H13S14755   1.890   2.821   9.397 -0.6846  0.5227  0.8761
  136SAPE  C21414756   2.093   2.880   9.385 -0.3396  0.1259 -0.1522
  136SAPE  H14R14757   2.163   2.952   9.429 -0.3695 -0.7047  1.2992
  136SAPE  C21514758   2.121   2.825   9.264 -0.0580  0.8163  0.3379
  136SAPE  H15R14759   2.220   2.849   9.223  1.2058 -1.7188  1.8070
  136SAPE  C21614760   2.051   2.717   9.183  0.1023 -0.2511  0.6326
  136SAPE  H16R14761   1.976   2.666   9.247 -0.8786  0.2670 -0.0809
  136SAPE  H16S14762   2.118   2.638   9.143 -0.4779  0.0015 -0.8698
  136SAPE  C21714763   1.984   2.782   9.060  0.4518  0.4163  0.1283
  136SAPE  H17R14764   1.922   2.706   9.008  0.3658 -0.9406  2.1712
  136SAPE  H17S14765   2.052   2.825   8.983 -0.0735 -0.5402 -0.8854
  136SAPE  C21814766   1.888   2.900   9.094  0.1043 -0.1772 -0.1566
  136SAPE  H18R14767   1.938   2.982   9.150 -1.5246  0.0589  0.9708
  136SAPE  H18S14768   1.807   2.874   9.165  1.2639  1.5450  1.8601
  136SAPE  C21914769   1.807   2.945   8.973  0.4109 -0.3742  0.2557
  136SAPE  H19R14770   1.755   2.852   8.943  0.4400  0.2636 -1.8346
  136SAPE  H19S14771   1.882   2.992   8.906 -0.5328  0.2188 -0.3972
  136SAPE  C22014772   1.698   3.045   9.005  0.7732  0.2357 -0.1516
  136SAPE  H20R14773   1.636   3.011   9.090  1.0095  1.6572  0.6057
  136SAPE  H20S14774   1.638   3.058   8.912 -0.6491  1.6111  0.9332
  136SAPE  H20T14775   1.737   3.140   9.049 -1.2082  1.9341 -1.9091
  136SAPE   C3314776   1.888   2.414  10.049 -0.3062  0.2401 -0.4472
  136SAPE   H3X14777   1.917   2.312  10.079 -4.0868 -0.6196  0.6291
  136SAPE   H3Y14778   1.969   2.479  10.008 -0.8079  1.4666  0.4544
  136SAPE   C3414779   1.777   2.395   9.951  0.2404  0.6631 -0.1497
  136SAPE   H4X14780   1.742   2.495   9.917  1.2970  1.9104  2.2971
  136SAPE   H4Y14781   1.694   2.330   9.986 -0.8442  1.3761 -1.3591
  136SAPE   C3514782   1.825   2.321   9.820 -0.0219  0.2631  0.1630
  136SAPE   H5X14783   1.841   2.214   9.845  1.9954  0.2543 -1.0410
  136SAPE   H5Y14784   1.928   2.359   9.801 -1.2044  2.5846 -1.9597
  136SAPE   C3614785   1.734   2.356   9.702 -0.2089  0.6325 -0.9208
  136SAPE   H6X14786   1.724   2.466   9.691  0.9215  0.9947  1.4107
  136SAPE   H6Y14787   1.643   2.304   9.738  0.3745  1.8092  2.3689
  136SAPE   C3714788   1.768   2.292   9.565  0.1341 -0.3031 -0.3714
  136SAPE   H7X14789   1.781   2.183   9.584  1.0265 -0.2343 -0.5548
  136SAPE   H7Y14790   1.868   2.327   9.529 -0.5084 -0.4419 -2.3711
  136SAPE   C3814791   1.663   2.317   9.457 -0.2389  0.0645 -0.6799
  136SAPE   H8X14792   1.630   2.423   9.463 -0.9667 -0.1973  0.0900
  136SAPE   H8Y14793   1.575   2.253   9.479  0.1875  0.0313  0.9930
  136SAPE   C3914794   1.705   2.290   9.312  0.3438  0.5452  0.0911
  136SAPE   H9X14795   1.761   2.194   9.312  0.5676  0.6654  1.6950
  136SAPE   H9Y14796   1.780   2.360   9.269  0.4320  1.5044  1.7786
  136SAPE  C31014797   1.594   2.274   9.206  0.9705 -0.3661 -0.4633
  136SAPE  H10X14798   1.553   2.377   9.218 -1.1781 -1.4709  2.2036
  136SAPE  H10Y14799   1.513   2.205   9.238  2.4273 -0.9958  2.0516
  136SAPE  C31114800   1.639   2.257   9.064  0.3952  0.1081 -0.5224
  136SAPE  H11X14801   1.545   2.268   9.006  0.9460  0.0313 -1.4455
  136SAPE  H11Y14802   1.675   2.154   9.044  0.0798 -0.2274  0.5745
  136SAPE  C31214803   1.734   2.358   9.006  0.3367 -0.1902 -0.0003
  136SAPE  H12X14804   1.841   2.339   9.030  0.4528 -1.8487 -1.6925
  136SAPE  H12Y14805   1.715   2.460   9.046  1.1966 -0.6110  1.5151
  136SAPE  C31314806   1.714   2.374   8.855  0.1019  0.0370  0.4273
  136SAPE  H13X14807   1.608   2.404   8.840 -1.1615 -3.2310  2.1493
  136SAPE  H13Y14808   1.737   2.274   8.812  1.5845 -0.0928  1.4664
  136SAPE  C31414809   1.809   2.466   8.778  0.3839  0.4516 -0.8171
  136SAPE  H14X14810   1.919   2.459   8.794  0.3759 -0.7395 -1.2016
  136SAPE  H14Y14811   1.772   2.568   8.800  0.9695  0.3149  0.8406
  136SAPE  C31514812   1.791   2.443   8.629  0.8748 -0.4321  0.1020
  136SAPE  H15X14813   1.827   2.534   8.576  1.1406 -0.5181  0.1362
  136SAPE  H15Y14814   1.682   2.445   8.605  0.8819 -1.5451 -0.0293
  136SAPE  C31614815   1.860   2.327   8.575  0.4091  0.1044  0.2546
  136SAPE  H16X14816   1.836   2.231   8.626 -0.8245 -0.1411 -0.7680
  136SAPE  H16Y14817   1.970   2.336   8.591  0.5177  1.6806 -1.2846
  136SAPE  C31714818   1.818   2.292   8.438  0.3360  0.8126  0.5670
  136SAPE  H17X14819   1.875   2.361   8.372 -0.3864 -0.1239 -1.0700
  136SAPE  H17Y14820   1.709   2.311   8.429  0.0516  0.6141  3.1882
  136SAPE  C31814821   1.841   2.149   8.383 -0.1819  0.5404  0.1629
  136SAPE  H18X14822   1.950   2.123   8.384  0.1731  2.0020  0.1721
  136SAPE  H18Y14823   1.802   2.146   8.279  0.6760  0.5314 -0.1636
  136SAPE  H18Z14824   1.784   2.077   8.446  0.5085  0.8375  1.1440
  137SAPE     N14825   0.193   6.055  11.260 -0.6052 -0.2779  0.2049
  137SAPE   HN114826   0.180   6.145  11.309 -1.8738 -0.0351 -0.5377
  137SAPE   HN214827   0.114   6.023  11.200 -1.4435 -0.5161  1.4163
  137SAPE   HN314828   0.213   5.978  11.327  0.5867  0.6026  0.8622
  137SAPE   C1214829   0.319   6.051  11.175  0.0685 -0.4840  0.2362
  137SAPE  H12A14830   0.348   5.947  11.145  0.3462  0.0772 -1.5243
  137SAPE  H12B14831   0.398   6.095  11.240  2.3143  1.7203 -3.7521
  137SAPE   C1114832   0.296   6.139  11.053 -0.5352 -0.6103 -0.6748
  137SAPE  H11A14833   0.372   6.173  10.980 -0.1855  2.0905  0.8629
  137SAPE  H11B14834   0.270   6.236  11.100  0.0301 -0.9433  0.3232
  137SAPE     P14835   0.187   5.994  10.866 -0.5148  0.3611 -0.3800
  137SAPE   O1314836   0.312   5.919  10.884 -0.0198 -0.4001 -0.0686
  137SAPE   O1414837   0.061   5.916  10.861 -0.0486  0.2326  0.1482
  137SAPE   O1214838   0.178   6.098  10.985 -0.0473 -0.0966  0.0148
  137SAPE   O1114839   0.200   6.075  10.738 -0.3523  0.5983 -0.5740
  137SAPE    C114840   0.121   6.195  10.723  1.0049  0.2524  0.1731
  137SAPE    HA14841   0.025   6.190  10.778  1.3009 -1.4657  0.5454
  137SAPE    HB14842   0.190   6.269  10.770  1.5633 -0.8685  1.1594
  137SAPE    C214843   0.102   6.236  10.575  0.7293  0.4452  0.5254
  137SAPE    HS14844   0.041   6.327  10.559 -0.2795 -0.0620  1.3816
  137SAPE   O2114845   0.041   6.122  10.512  0.1283  0.9336 -0.3386
  137SAPE   C2114846  -0.082   6.094  10.549  0.0670 -0.0312 -0.2076
  137SAPE   O2214847  -0.161   6.172  10.599 -0.0668  0.0796 -0.5834
  137SAPE   C2214848  -0.104   5.947  10.510  0.1250 -0.4343  0.3467
  137SAPE   H2R14849  -0.104   5.953  10.399 -0.3784  1.6267  0.4389
  137SAPE   H2S14850  -0.016   5.887  10.542 -0.7410 -1.8600  0.1193
  137SAPE    C314851   0.243   6.265  10.514  0.6900  0.1102 -0.2396
  137SAPE    HX14852   0.323   6.194  10.544  0.0898 -0.5691 -0.2482
  137SAPE    HY14853   0.269   6.365  10.556 -0.4572  1.0571 -1.7092
  137SAPE   O3114854   0.230   6.279  10.375 -0.1540  0.1401  0.0257
  137SAPE   C3114855   0.250   6.182  10.291  0.5335 -0.5403  0.0046
  137SAPE   O3214856   0.301   6.075  10.313 -0.1167 -0.3131  0.4658
  137SAPE   C3214857   0.231   6.242  10.149  0.5651 -0.0562  0.3312
  137SAPE   H2X14858   0.308   6.323  10.146  0.4110  0.2139  2.5242
  137SAPE   H2Y14859   0.124   6.270  10.149  0.7948  0.8865  1.6813
  137SAPE   C2314860  -0.243   5.888  10.560  0.3662  0.5563  0.0031
  137SAPE   H3R14861  -0.276   5.937  10.655  3.2259  1.9674  0.3049
  137SAPE   H3S14862  -0.230   5.782  10.593  0.7877  0.8105  0.6534
  137SAPE   C2414863  -0.349   5.897  10.452 -0.0647  0.8124 -0.5451
  137SAPE   H4R14864  -0.429   5.829  10.488  1.2099 -0.2114  0.3881
  137SAPE   H4S14865  -0.325   5.834  10.364 -3.5478 -2.5682  0.7523
  137SAPE   C2514866  -0.386   6.040  10.420 -0.5089  0.5100 -0.0526
  137SAPE   H5R14867  -0.388   6.108  10.506  0.2357 -0.5899  0.8649
  137SAPE   C2614868  -0.414   6.089  10.302  0.2615  0.0165  0.6006
  137SAPE   H6R14869  -0.443   6.195  10.295  2.2058  0.5457  0.3220
  137SAPE   C2714870  -0.423   6.007  10.177  0.5448 -0.0926  0.1523
  137SAPE   H7R14871  -0.361   5.917  10.195 -2.2354 -1.8255  1.2715
  137SAPE   H7S14872  -0.382   6.065  10.091  1.3055  2.5457  2.2285
  137SAPE   C2814873  -0.559   5.940  10.170 -0.4315  0.6997  0.2218
  137SAPE   H8R14874  -0.576   5.877  10.258  1.8350  0.8390  0.8100
  137SAPE   C2914875  -0.649   5.942  10.070 -0.3976  0.2136 -0.6026
  137SAPE   H9R14876  -0.735   5.876  10.084  0.2375  0.1146  3.4674
  137SAPE  C21014877  -0.639   6.021   9.936 -0.1084 -0.4867 -0.2607
  137SAPE  H10R14878  -0.641   6.127   9.969  0.8339 -0.7985  0.8135
  137SAPE  H10S14879  -0.735   6.012   9.881 -1.4164 -1.7227  2.1306
  137SAPE  C21114880  -0.519   6.000   9.847  1.0278 -0.8254 -0.5286
  137SAPE  H11R14881  -0.437   5.946   9.895  2.4509 -0.9858 -3.0352
  137SAPE  C21214882  -0.494   6.070   9.730 -0.1688  0.2682 -0.0018
  137SAPE  H12R14883  -0.407   6.036   9.673 -2.4823 -1.7044 -2.5458
  137SAPE  C21314884  -0.578   6.177   9.664 -0.4833  0.4678  0.1652
  137SAPE  H13R14885  -0.656   6.215   9.733 -0.5683  1.8383 -0.6564
  137SAPE  H13S14886  -0.624   6.143   9.569  1.8948 -2.1030 -0.1472
  137SAPE  C21414887  -0.507   6.308   9.634 -0.1842 -0.2416  0.1121
  137SAPE  H14R14888  -0.439   6.344   9.713 -1.1253 -0.2094  0.9140
  137SAPE  C21514889  -0.527   6.390   9.531  0.3502 -0.3584  0.4002
  137SAPE  H15R14890  -0.454   6.471   9.516 -0.4229 -0.3459 -3.9529
  137SAPE  C21614891  -0.636   6.380   9.426  0.4400 -0.5192  0.5568
  137SAPE  H16R14892  -0.723   6.435   9.469 -0.1455 -1.3581  0.4570
  137SAPE  H16S14893  -0.664   6.274   9.411 -2.3841  0.6806 -3.6477
  137SAPE  C21714894  -0.583   6.435   9.295 -0.4577  0.5717 -0.5187
  137SAPE  H17R14895  -0.501   6.509   9.305  1.4338 -1.5133 -0.2061
  137SAPE  H17S14896  -0.666   6.484   9.239 -0.3276 -0.1521 -1.3588
  137SAPE  C21814897  -0.537   6.317   9.211 -0.6363  0.4117  0.0241
  137SAPE  H18R14898  -0.630   6.264   9.182  0.3963 -2.0548  1.0928
  137SAPE  H18S14899  -0.483   6.245   9.276 -2.5910 -1.7275 -0.6370
  137SAPE  C21914900  -0.452   6.359   9.100  0.2822 -0.2096 -0.2615
  137SAPE  H19R14901  -0.360   6.398   9.149  0.2673  1.2027 -1.3120
  137SAPE  H19S14902  -0.505   6.450   9.064  0.0036 -0.0628  0.5039
  137SAPE  C22014903  -0.424   6.260   8.983 -0.2369 -1.0042 -0.2872
  137SAPE  H20R14904  -0.381   6.163   9.016  0.7889 -0.5648 -0.3103
  137SAPE  H20S14905  -0.346   6.310   8.922 -0.4310  0.4317  0.6333
  137SAPE  H20T14906  -0.517   6.246   8.924  0.3959  0.3334 -1.6417
  137SAPE   C3314907   0.257   6.137  10.032  0.4875 -0.6618 -0.6884
  137SAPE   H3X14908   0.175   6.062  10.036  0.6031 -0.7193  0.7001
  137SAPE   H3Y14909   0.356   6.088  10.045  0.4490 -0.5837 -0.0939
  137SAPE   C3414910   0.263   6.199   9.892  0.0903  0.2394 -0.1571
  137SAPE   H4X14911   0.324   6.291   9.905 -3.0467  2.5609 -1.2731
  137SAPE   H4Y14912   0.159   6.222   9.859 -0.0753 -1.9994 -1.2837
  137SAPE   C3514913   0.330   6.107   9.792 -0.4411 -0.8419  0.2077
  137SAPE   H5X14914   0.287   6.005   9.782 -0.1143 -0.7503 -2.6075
  137SAPE   H5Y14915   0.435   6.092   9.825 -0.1228 -0.8438 -0.7743
  137SAPE   C3614916   0.334   6.179   9.658 -0.4845  0.0068 -0.2212
  137SAPE   H6X14917   0.428   6.237   9.648  0.6103 -1.6309  0.2814
  137SAPE   H6Y14918   0.255   6.256   9.671 -1.7351 -1.4784  1.3214
  137SAPE   C3714919   0.292   6.092   9.540 -0.7088 -1.0900  0.0286
  137SAPE   H7X14920   0.184   6.065   9.532 -0.1524 -2.9842 -1.8692
  137SAPE   H7Y14921   0.335   5.993   9.566  2.0171 -0.1563 -0.7466
  137SAPE   C3814922   0.353   6.136   9.407  0.1610  0.1619 -0.2355
  137SAPE   H8X14923   0.339   6.053   9.335 -1.1205  0.2888 -0.1514
  137SAPE   H8Y14924   0.460   6.165   9.416 -0.0912  1.5270 -1.4211
  137SAPE   C3914925   0.278   6.267   9.360 -0.1769  0.5039 -0.6914
  137SAPE   H9X14926   0.302   6.349   9.432 -0.6344  0.6246 -0.6703
  137SAPE   H9Y14927   0.169   6.246   9.360 -0.3721  1.4356  0.3719
  137SAPE  C31014928   0.308   6.304   9.216  0.5015 -1.0259  0.1130
  137SAPE  H10X14929   0.417   6.303   9.196  0.6124 -0.5402  0.6668
  137SAPE  H10Y14930   0.273   6.408   9.196 -1.4780 -1.7962 -0.5032
  137SAPE  C31114931   0.237   6.222   9.114  0.0036 -0.2694 -0.6687
  137SAPE  H11X14932   0.127   6.229   9.133 -0.6112 -0.5539 -3.8949
  137SAPE  H11Y14933   0.252   6.112   9.124  0.0580 -0.1448  0.7867
  137SAPE  C31214934   0.265   6.264   8.965 -0.0573  0.0235  0.2030
  137SAPE  H12X14935   0.372   6.292   8.955  0.2926 -1.7472 -1.3272
  137SAPE  H12Y14936   0.198   6.349   8.939  0.9262  0.6687 -0.2306
  137SAPE  C31314937   0.230   6.157   8.861  0.4317  0.9085  0.0217
  137SAPE  H13X14938   0.125   6.128   8.885  0.1256  1.6382 -0.4253
  137SAPE  H13Y14939   0.298   6.069   8.867 -1.8496 -1.0693 -2.1876
  137SAPE  C31414940   0.244   6.206   8.711 -0.2628 -0.2106  0.4343
  137SAPE  H14X14941   0.181   6.297   8.717 -0.8465 -0.7521  3.8535
  137SAPE  H14Y14942   0.188   6.137   8.645  1.0481 -0.3417 -0.5733
  137SAPE  C31514943   0.380   6.245   8.658 -0.4598 -0.4313  0.4207
  137SAPE  H15X14944   0.437   6.151   8.669  0.9305  0.4015  0.4129
  137SAPE  H15Y14945   0.434   6.315   8.725  0.4468 -0.2507 -0.4796
  137SAPE  C31614946   0.381   6.301   8.516  0.1207 -0.7306  0.7742
  137SAPE  H16X14947   0.480   6.345   8.492 -1.2427  2.7462  1.3055
  137SAPE  H16Y14948   0.319   6.393   8.513  1.5634  0.2218 -1.1360
  137SAPE  C31714949   0.342   6.205   8.404 -0.1409 -0.1195  0.1871
  137SAPE  H17X14950   0.248   6.153   8.435 -0.4252 -0.3504 -1.0371
  137SAPE  H17Y14951   0.418   6.124   8.399 -1.7134 -1.6512  0.5029
  137SAPE  C31814952   0.338   6.266   8.267  0.3136 -0.3082 -0.3802
  137SAPE  H18X14953   0.443   6.296   8.250  0.8044 -1.8925 -0.2374
  137SAPE  H18Y14954   0.278   6.360   8.267  0.3643 -0.2757 -0.0456
  137SAPE  H18Z14955   0.303   6.193   8.191 -0.0438 -1.3884  0.8049
  138SAPE     N14956   2.856   0.025  10.757 -0.2457  0.9095 -0.0122
  138SAPE   HN114957   2.765  -0.004  10.718 -1.1670  1.8963  1.3437
  138SAPE   HN214958   2.920  -0.057  10.755 -0.3550  0.8089  0.4298
  138SAPE   HN314959   2.832   0.050  10.855 -0.3719 -1.6427  0.6457
  138SAPE   C1214960   2.906   0.142  10.680  1.1224  0.1661  0.0864
  138SAPE  H12A14961   2.849   0.230  10.714  0.3780 -0.9249  1.7367
  138SAPE  H12B14962   2.894   0.123  10.572  0.6098 -0.5695  0.2669
  138SAPE   C1114963   3.059   0.162  10.702 -0.2829  0.3214  0.2391
  138SAPE  H11A14964   3.096   0.186  10.804  3.0193 -2.3881 -0.2057
  138SAPE  H11B14965   3.067   0.262  10.655 -1.8859  1.0123  1.4036
  138SAPE     P14966   3.194  -0.059  10.726  0.2009  0.1560  0.0048
  138SAPE   O1314967   3.293   0.005  10.813  0.6318 -0.2124 -0.8408
  138SAPE   O1414968   3.085  -0.117  10.806 -0.0419 -0.2429 -0.2385
  138SAPE   O1214969   3.141   0.061  10.648  0.0911  0.4083  0.0197
  138SAPE   O1114970   3.257  -0.166  10.620 -0.1470  0.2694  0.0374
  138SAPE    C114971   3.365  -0.115  10.543 -0.6468 -0.2651 -0.4087
  138SAPE    HA14972   3.393  -0.010  10.567  0.7107 -0.0024 -3.0000
  138SAPE    HB14973   3.452  -0.183  10.552 -2.2848 -2.9858 -3.9307
  138SAPE    C214974   3.327  -0.112  10.388  0.2088 -0.0135  0.2594
  138SAPE    HS14975   3.423  -0.100  10.334  0.5650  2.3156  1.3589
  138SAPE   O2114976   3.234  -0.007  10.352  0.6131 -0.1184  0.4054
  138SAPE   C2114977   3.295   0.110  10.339 -0.4841  0.1846  0.1665
  138SAPE   O2214978   3.416   0.127  10.351  0.0002 -0.2584  0.4692
  138SAPE   C2214979   3.194   0.215  10.298 -0.3579  0.0725 -0.1206
  138SAPE   H2R14980   3.098   0.161  10.286  0.1895 -0.9032 -0.1502
  138SAPE   H2S14981   3.197   0.290  10.379 -0.8742  1.2653 -1.1797
  138SAPE    C314982   3.264  -0.250  10.347  0.3524 -0.0920  0.3922
  138SAPE    HX14983   3.155  -0.239  10.362  0.7204  3.2333  0.9688
  138SAPE    HY14984   3.305  -0.332  10.410  2.0173  1.2528  1.1218
  138SAPE   O3114985   3.282  -0.272  10.209 -0.3085 -0.3075  0.0860
  138SAPE   C3114986   3.396  -0.315  10.165  0.1842  0.5161  0.1942
  138SAPE   O3214987   3.500  -0.337  10.228 -0.1717  0.3914  0.6072
  138SAPE   C3214988   3.389  -0.353  10.022 -0.6465 -0.0840 -0.2444
  138SAPE   H2X14989   3.285  -0.336   9.987 -1.3790 -0.7368  1.5184
  138SAPE   H2Y14990   3.406  -0.463  10.013 -2.4155 -0.4929  1.0057
  138SAPE   C2314991   3.225   0.276  10.154 -0.4166 -0.4219 -0.1717
  138SAPE   H3R14992   3.304   0.348  10.183  0.0502  0.1286 -2.6511
  138SAPE   H3S14993   3.138   0.334  10.115  0.4074  0.3000 -0.9518
  138SAPE   C2414994   3.279   0.179  10.048  0.0527 -0.2018 -0.6121
  138SAPE   H4R14995   3.201   0.101  10.031 -1.4794  1.3678 -0.9254
  138SAPE   H4S14996   3.373   0.128  10.077  0.3218 -0.2752 -1.5985
  138SAPE   C2514997   3.330   0.257   9.926  0.0537 -0.1096 -0.1497
  138SAPE   H5R14998   3.431   0.297   9.940  0.4400 -1.4977  1.1319
  138SAPE   C2614999   3.257   0.301   9.819  1.0278 -0.2024 -0.3936
  138SAPE   H6R15000   3.308   0.366   9.746  1.5658  0.8642  0.9026
  138SAPE   C2715001   3.109   0.289   9.783 -0.2823 -0.0041 -0.0842
  138SAPE   H7R15002   3.053   0.285   9.879  0.4392  1.5372  0.4110
  138SAPE   H7S15003   3.095   0.188   9.738  0.5801 -0.8234  1.4426
  138SAPE   C2815004   3.054   0.399   9.690 -0.2469 -0.1601 -0.5865
  138SAPE   H8R15005   3.006   0.490   9.730  1.1129 -0.0930  0.9467
  138SAPE   C2915006   3.078   0.412   9.562  0.8742  0.1459 -0.0178
  138SAPE   H9R15007   3.019   0.486   9.507 -1.2012 -0.0921  1.7894
  138SAPE  C21015008   3.154   0.316   9.483  0.7679  0.4024 -0.0539
  138SAPE  H10R15009   3.086   0.277   9.403 -0.2038 -0.9222  1.3937
  138SAPE  H10S15010   3.202   0.240   9.548  0.4395  1.2135  1.1417
  138SAPE  C21115011   3.260   0.381   9.394  0.1917 -0.2005  0.1212
  138SAPE  H11R15012   3.297   0.477   9.432 -0.5927 -0.6527  2.0808
  138SAPE  C21215013   3.311   0.322   9.282  0.3612  0.3956 -0.4888
  138SAPE  H12R15014   3.375   0.384   9.217  0.2381 -1.1254 -2.0934
  138SAPE  C21315015   3.281   0.185   9.233 -0.1290  0.9025  0.9591
  138SAPE  H13R15016   3.201   0.190   9.156  0.0037 -1.3273  0.6188
  138SAPE  H13S15017   3.241   0.113   9.308 -1.0962  2.3407  1.8217
  138SAPE  C21415018   3.399   0.125   9.163 -0.3182 -0.1749 -0.5440
  138SAPE  H14R15019   3.458   0.191   9.097  2.6231  0.1660  2.2806
  138SAPE  C21515020   3.433  -0.005   9.168  0.0562  0.1136 -0.5261
  138SAPE  H15R15021   3.520  -0.037   9.108  1.3879 -0.7927  1.8459
  138SAPE  C21615022   3.370  -0.121   9.231 -0.0180 -0.8905  0.0594
  138SAPE  H16R15023   3.350  -0.201   9.156 -1.7444 -1.0088  0.6232
  138SAPE  H16S15024   3.271  -0.097   9.275  1.3098  1.8208  1.6902
  138SAPE  C21715025   3.485  -0.173   9.327 -0.4001  0.1034  0.0646
  138SAPE  H17R15026   3.581  -0.179   9.271 -0.5090  0.4803 -0.1649
  138SAPE  H17S15027   3.469  -0.275   9.368 -0.9517 -0.0745 -0.6012
  138SAPE  C21815028   3.502  -0.079   9.446 -0.0916  0.2442  0.0278
  138SAPE  H18R15029   3.537   0.021   9.414  2.6023 -0.9062 -0.6821
  138SAPE  H18S15030   3.568  -0.133   9.517 -1.5621 -3.0912 -1.0306
  138SAPE  C21915031   3.372  -0.062   9.522 -0.0945  0.1336  0.2417
  138SAPE  H19R15032   3.348  -0.162   9.564  0.2513 -0.9876 -2.1638
  138SAPE  H19S15033   3.288  -0.029   9.458  0.4038 -0.0209 -0.4893
  138SAPE  C22015034   3.389   0.035   9.637 -0.2090  0.3313  0.1018
  138SAPE  H20R15035   3.393   0.139   9.596  1.4976 -0.7305 -2.5950
  138SAPE  H20S15036   3.481   0.017   9.696 -0.6963 -3.7984 -0.2459
  138SAPE  H20T15037   3.293   0.028   9.693 -1.2330 -1.4255 -1.7984
  138SAPE   C3315038   3.486  -0.275   9.935 -1.1868 -0.6674 -0.3557
  138SAPE   H3X15039   3.590  -0.282   9.972 -1.5411  0.0824  0.8195
  138SAPE   H3Y15040   3.453  -0.169   9.937 -0.6631 -0.5154  0.2043
  138SAPE   C3415041   3.487  -0.303   9.787  0.3228 -0.4582 -0.0751
  138SAPE   H4X15042   3.555  -0.233   9.735 -0.0255 -1.8929 -2.5537
  138SAPE   H4Y15043   3.385  -0.283   9.747 -0.3135  0.2885  1.8487
  138SAPE   C3515044   3.530  -0.447   9.756 -0.8107 -0.5732 -0.5269
  138SAPE   H5X15045   3.498  -0.527   9.825  1.8154 -0.4944  0.8450
  138SAPE   H5Y15046   3.641  -0.436   9.757 -0.7569 -1.0940 -0.6518
  138SAPE   C3615047   3.486  -0.483   9.613  0.1956 -0.3391 -0.2907
  138SAPE   H6X15048   3.463  -0.393   9.553 -1.1473 -2.3968 -2.9302
  138SAPE   H6Y15049   3.402  -0.555   9.624 -0.4846  0.5375  0.3468
  138SAPE   C3715050   3.602  -0.540   9.534 -0.0389  1.1422 -0.1017
  138SAPE   H7X15051   3.626  -0.640   9.576 -2.3395 -0.8867 -3.3431
  138SAPE   H7Y15052   3.687  -0.469   9.546  2.0216 -1.5610  2.2026
  138SAPE   C3815053   3.577  -0.551   9.379  0.8552  0.5895 -0.9092
  138SAPE   H8X15054   3.548  -0.453   9.334  1.5235  1.4000  0.3840
  138SAPE   H8Y15055   3.494  -0.624   9.365  0.0838  1.2685 -0.0033
  138SAPE   C3915056   3.690  -0.618   9.310 -0.2417  1.3039 -0.8563
  138SAPE   H9X15057   3.694  -0.719   9.357  0.8982  0.9553 -1.6640
  138SAPE   H9Y15058   3.782  -0.561   9.336 -0.5014  0.6230  1.7657
  138SAPE  C31015059   3.668  -0.631   9.164  0.1331  0.3177 -0.3141
  138SAPE  H10X15060   3.566  -0.675   9.154 -0.3233  0.5330  2.7383
  138SAPE  H10Y15061   3.740  -0.707   9.125 -0.0326 -0.9306  1.7167
  138SAPE  C31115062   3.677  -0.501   9.086 -0.3247 -0.5699 -0.4621
  138SAPE  H11X15063   3.765  -0.494   9.019  0.5106 -2.7390  0.3690
  138SAPE  H11Y15064   3.705  -0.418   9.155  0.8755 -1.7730  0.5223
  138SAPE  C31215065   3.551  -0.480   8.999  0.3414  0.7657 -0.1727
  138SAPE  H12X15066   3.461  -0.463   9.061  1.3412 -2.4449  2.3104
  138SAPE  H12Y15067   3.518  -0.569   8.942  0.0661 -0.2261  1.5215
  138SAPE  C31315068   3.577  -0.372   8.893 -0.4196 -0.7456  0.1737
  138SAPE  H13X15069   3.673  -0.396   8.843  0.2667 -1.2026  1.6683
  138SAPE  H13Y15070   3.602  -0.271   8.933  1.3208 -1.4657  0.9352
  138SAPE  C31415071   3.462  -0.352   8.804 -0.4277 -0.6013 -0.0691
  138SAPE  H14X15072   3.380  -0.309   8.866  1.2417 -0.0080  1.7558
  138SAPE  H14Y15073   3.434  -0.451   8.760  0.1926 -1.2973  1.0923
  138SAPE  C31515074   3.489  -0.243   8.698 -0.3467 -0.3720  0.1773
  138SAPE  H15X15075   3.559  -0.279   8.620  1.6674  0.7598  1.4268
  138SAPE  H15Y15076   3.537  -0.156   8.748  0.6432 -0.7365 -0.1371
  138SAPE  C31615077   3.363  -0.177   8.631  0.0563  0.1726 -0.7851
  138SAPE  H16X15078   3.306  -0.140   8.719  0.0872  2.7230 -1.7790
  138SAPE  H16Y15079   3.297  -0.256   8.590 -0.6517  0.0559  0.5729
  138SAPE  C31715080   3.379  -0.065   8.529 -0.9989  0.2197 -0.4189
  138SAPE  H17X15081   3.432  -0.105   8.439  1.2183  0.7660  0.5990
  138SAPE  H17Y15082   3.447   0.011   8.575  2.0706 -1.6550 -1.6637
  138SAPE  C31815083   3.248  -0.010   8.487  0.3677 -0.9440  0.8066
  138SAPE  H18X15084   3.192   0.017   8.579  2.5176 -0.3055  1.9789
  138SAPE  H18Y15085   3.194  -0.092   8.436  0.1693 -1.2722  1.5397
  138SAPE  H18Z15086   3.259   0.080   8.422 -1.6059 -0.5497  0.9812
  139SAPE     N15087   3.079   4.876  10.914 -0.7390  0.0789  0.5637
  139SAPE   HN115088   3.176   4.878  10.952 -0.1647  2.8905 -0.9167
  139SAPE   HN215089   3.014   4.873  10.996 -2.0170 -2.4371 -0.4947
  139SAPE   HN315090   3.048   4.789  10.865 -0.1987  0.7094 -0.9106
  139SAPE   C1215091   3.065   5.007  10.843  0.4532  0.1653 -0.1236
  139SAPE  H12A15092   3.128   4.997  10.753  1.4783  0.6424  0.5286
  139SAPE  H12B15093   3.103   5.089  10.908 -1.3969  2.0343 -1.3285
  139SAPE   C1115094   2.917   5.053  10.815 -0.4293  0.2972  0.2136
  139SAPE  H11A15095   2.860   5.060  10.911 -1.9405 -2.0800 -0.4712
  139SAPE  H11B15096   2.867   4.971  10.758 -2.3047  1.4844  0.0986
  139SAPE     P15097   2.918   5.188  10.585 -0.3054  0.2488 -0.0600
  139SAPE   O1315098   2.788   5.156  10.527 -0.4558 -0.3000 -0.4107
  139SAPE   O1415099   2.967   5.325  10.552  0.8593 -0.3429  0.1630
  139SAPE   O1215100   2.907   5.175  10.744 -0.4769  0.4340  1.3599
  139SAPE   O1115101   3.014   5.078  10.547 -0.2955  0.0680  0.5016
  139SAPE    C115102   3.141   5.107  10.492  0.0948  0.1674  0.0617
  139SAPE    HA15103   3.178   5.209  10.513  2.2161  0.0366 -2.7389
  139SAPE    HB15104   3.220   5.039  10.531 -0.2404 -0.0117  0.4435
  139SAPE    C215105   3.153   5.082  10.342 -0.2148  0.1565  0.5173
  139SAPE    HS15106   3.260   5.080  10.311  0.0659 -0.3677  1.4928
  139SAPE   O2115107   3.076   5.172  10.258 -0.1079 -0.2691 -0.0419
  139SAPE   C2115108   3.124   5.298  10.261  0.5617 -0.5761  0.4067
  139SAPE   O2215109   3.221   5.333  10.324  0.1837 -0.3716  0.0299
  139SAPE   C2215110   3.041   5.379  10.167 -0.0536 -0.4250 -0.7401
  139SAPE   H2R15111   3.004   5.325  10.078  2.3968 -0.3202 -1.8829
  139SAPE   H2S15112   2.952   5.404  10.228 -0.5344  1.2093 -2.0827
  139SAPE    C315113   3.096   4.942  10.311  0.5029 -0.1109  0.7472
  139SAPE    HX15114   2.989   4.950  10.338  0.4333  0.1160  0.3991
  139SAPE    HY15115   3.148   4.864  10.371 -1.3705 -2.0139 -0.0558
  139SAPE   O3115116   3.100   4.908  10.171  0.6898 -0.1019 -0.4453
  139SAPE   C3115117   3.220   4.895  10.110 -0.0682 -0.3494  0.4155
  139SAPE   O3215118   3.327   4.886  10.174 -0.3557  0.0211  0.2630
  139SAPE   C3215119   3.202   4.890   9.963 -0.1102 -0.7785  0.2770
  139SAPE   H2X15120   3.100   4.856   9.935 -0.3544  1.3987 -1.5598
  139SAPE   H2Y15121   3.273   4.816   9.920  1.1100  0.4242  0.1882
  139SAPE   C2315122   3.111   5.522  10.142  0.2959  0.0900  0.2796
  139SAPE   H3R15123   3.190   5.508  10.065  0.4695  1.4925  0.1815
  139SAPE   H3S15124   3.159   5.554  10.237 -0.0515 -3.0993  1.5771
  139SAPE   C2415125   3.007   5.623  10.098 -0.3532 -0.6287  0.7651
  139SAPE   H4R15126   3.071   5.711  10.079  0.8361 -1.4300  0.9842
  139SAPE   H4S15127   2.944   5.653  10.185  1.3978  0.0007  1.8472
  139SAPE   C2515128   2.933   5.572   9.977  0.6063  0.1398  0.1227
  139SAPE   H5R15129   2.845   5.508   9.997  0.8801 -1.0262 -2.1934
  139SAPE   C2615130   2.960   5.601   9.849  0.0151  0.2045 -0.2640
  139SAPE   H6R15131   2.897   5.546   9.777  1.0687 -1.9210  0.4298
  139SAPE   C2715132   3.068   5.693   9.798  0.3019  0.1889  0.1153
  139SAPE   H7R15133   3.149   5.694   9.875 -0.5915  0.4026  1.0659
  139SAPE   H7S15134   3.044   5.801   9.789  1.8830  0.6552  1.1017
  139SAPE   C2815135   3.125   5.657   9.659  0.3944 -0.2865 -0.2389
  139SAPE   H8R15136   3.218   5.599   9.664  1.1802  0.6543 -2.8791
  139SAPE   C2915137   3.078   5.684   9.531  0.7385 -0.0379 -0.1419
  139SAPE   H9R15138   3.132   5.650   9.442  0.0425  1.5366 -1.1830
  139SAPE  C21015139   2.943   5.747   9.494 -0.1449  0.4460 -0.3976
  139SAPE  H10R15140   2.952   5.816   9.408  1.6637  0.7458  0.0096
  139SAPE  H10S15141   2.898   5.803   9.579 -0.5832 -0.0946 -0.2723
  139SAPE  C21115142   2.851   5.633   9.458  0.5931 -0.1234 -0.0549
  139SAPE  H11R15143   2.825   5.583   9.552  0.1247  0.4257  0.1093
  139SAPE  C21215144   2.802   5.594   9.337 -0.4531 -0.2735 -0.1344
  139SAPE  H12R15145   2.743   5.501   9.330 -0.1219 -0.7543  2.8810
  139SAPE  C21315146   2.842   5.655   9.214  0.0253 -0.5563  0.4894
  139SAPE  H13R15147   2.845   5.592   9.122 -2.2360  0.7974 -0.5599
  139SAPE  H13S15148   2.951   5.679   9.218  0.0305 -0.1672 -1.5534
  139SAPE  C21415149   2.749   5.769   9.174 -0.1192 -0.0376  0.1602
  139SAPE  H14R15150   2.697   5.816   9.258  0.0002 -0.4197  0.4537
  139SAPE  C21515151   2.726   5.810   9.046 -0.1751 -0.4802 -0.2747
  139SAPE  H15R15152   2.659   5.898   9.049  0.8427  0.3413 -1.1971
  139SAPE  C21615153   2.781   5.764   8.912  0.2224 -0.2625  0.2472
  139SAPE  H16R15154   2.878   5.710   8.912  2.2393  3.1413  1.7410
  139SAPE  H16S15155   2.812   5.850   8.848  0.4237 -0.3752  0.1916
  139SAPE  C21715156   2.672   5.678   8.833 -0.5693  0.0315  0.4069
  139SAPE  H17R15157   2.574   5.729   8.844 -1.5355 -2.2420  2.9773
  139SAPE  H17S15158   2.666   5.583   8.890 -0.9398  1.2794  2.5109
  139SAPE  C21815159   2.718   5.655   8.690 -1.0748  0.2683  0.1836
  139SAPE  H18R15160   2.651   5.578   8.647  1.0772 -1.7080  0.3032
  139SAPE  H18S15161   2.820   5.610   8.691 -0.9917  0.1544 -3.6256
  139SAPE  C21915162   2.722   5.776   8.594 -0.2782  0.3181 -0.2335
  139SAPE  H19R15163   2.764   5.748   8.495  0.1366  0.6248 -0.1469
  139SAPE  H19S15164   2.783   5.853   8.646 -0.4714  0.3565 -0.0646
  139SAPE  C22015165   2.586   5.844   8.567 -0.5102  0.7777 -0.7020
  139SAPE  H20R15166   2.535   5.864   8.663  0.2149 -1.6641  0.2226
  139SAPE  H20S15167   2.528   5.771   8.506  0.0275 -0.4220  0.2001
  139SAPE  H20T15168   2.602   5.937   8.509 -0.8319  1.4058  0.2137
  139SAPE   C3315169   3.233   5.012   9.878 -0.6402 -0.2225 -0.0602
  139SAPE   H3X15170   3.216   4.990   9.770 -1.4361  2.7179 -0.5863
  139SAPE   H3Y15171   3.336   5.051   9.894 -1.0286  0.1315  1.6871
  139SAPE   C3415172   3.132   5.120   9.915 -0.5679  0.7108  0.0057
  139SAPE   H4X15173   3.153   5.164  10.015  0.3216 -1.3191  0.7430
  139SAPE   H4Y15174   3.026   5.088   9.920  0.2105 -2.0761 -0.4096
  139SAPE   C3515175   3.113   5.232   9.817 -0.2490  0.0719 -0.1382
  139SAPE   H5X15176   3.214   5.270   9.792  0.3601 -2.4370 -1.7026
  139SAPE   H5Y15177   3.052   5.312   9.866 -0.1722 -0.6648  1.2068
  139SAPE   C3615178   3.047   5.186   9.681 -0.5898 -0.6345  0.3439
  139SAPE   H6X15179   2.949   5.144   9.713  0.1292 -2.6074  0.0144
  139SAPE   H6Y15180   3.116   5.116   9.629 -3.1173 -3.6520  0.8827
  139SAPE   C3715181   3.019   5.308   9.590  0.8386  0.3570  0.7632
  139SAPE   H7X15182   3.119   5.355   9.575  1.9038 -1.3009  2.4983
  139SAPE   H7Y15183   2.966   5.379   9.656  2.4749 -0.3931  2.9447
  139SAPE   C3815184   2.952   5.278   9.459  1.1048 -0.5724 -0.0138
  139SAPE   H8X15185   2.942   5.364   9.389  0.1131 -0.5498  0.1479
  139SAPE   H8Y15186   2.853   5.237   9.489  0.5291 -1.0608 -2.4731
  139SAPE   C3915187   3.020   5.174   9.369 -0.2727 -1.2669  0.1577
  139SAPE   H9X15188   3.001   5.082   9.428  3.6271 -1.0958  1.8522
  139SAPE   H9Y15189   3.130   5.190   9.369 -0.5016  0.3747  0.9683
  139SAPE  C31015190   2.978   5.151   9.224 -0.4148 -0.2925  0.2270
  139SAPE  H10X15191   3.052   5.087   9.171 -0.9231  1.0567 -2.2180
  139SAPE  H10Y15192   2.996   5.248   9.173 -1.9969 -0.5085 -0.7805
  139SAPE  C31115193   2.827   5.119   9.195  0.2248 -0.0156 -0.1437
  139SAPE  H11X15194   2.754   5.176   9.257 -0.0023 -1.6712  1.1355
  139SAPE  H11Y15195   2.806   5.013   9.218 -0.8506 -0.0839 -1.3790
  139SAPE  C31215196   2.785   5.135   9.047  0.7585 -0.0845 -0.5227
  139SAPE  H12X15197   2.687   5.087   9.024  0.8612 -1.0129  0.9142
  139SAPE  H12Y15198   2.863   5.076   8.994  2.2118 -0.5913  2.1249
  139SAPE  C31315199   2.783   5.278   8.991  0.2164 -0.1120  0.8014
  139SAPE  H13X15200   2.881   5.331   8.991  0.9635 -1.4936  1.3942
  139SAPE  H13Y15201   2.702   5.332   9.044  0.3511  0.1570  0.7345
  139SAPE  C31415202   2.736   5.286   8.842 -1.1641 -0.5064 -0.3197
  139SAPE  H14X15203   2.744   5.394   8.815  1.4931 -0.3781  0.8155
  139SAPE  H14Y15204   2.630   5.253   8.842 -1.7483  1.3371 -0.0503
  139SAPE  C31515205   2.819   5.199   8.756  0.4373 -0.5952  0.8556
  139SAPE  H15X15206   2.810   5.092   8.787 -0.7497 -0.5317  0.7566
  139SAPE  H15Y15207   2.926   5.227   8.764 -0.0646  1.2217  1.2900
  139SAPE  C31615208   2.769   5.197   8.607 -0.0151  0.6460 -0.4948
  139SAPE  H16X15209   2.699   5.113   8.593  0.3859  0.2701 -0.2745
  139SAPE  H16Y15210   2.730   5.295   8.572 -2.2080  0.5860  1.6307
  139SAPE  C31715211   2.894   5.162   8.520  0.4016  0.6045  0.8585
  139SAPE  H17X15212   2.920   5.055   8.536 -0.5493  0.4212  1.1537
  139SAPE  H17Y15213   2.973   5.239   8.536  0.1918  0.8298  0.8180
  139SAPE  C31815214   2.851   5.160   8.367 -0.3462 -0.5287  0.2032
  139SAPE  H18X15215   2.751   5.111   8.365 -0.7508  0.3580 -1.6201
  139SAPE  H18Y15216   2.926   5.102   8.310 -1.5084 -2.0405  0.1816
  139SAPE  H18Z15217   2.859   5.263   8.326 -1.6995 -0.7615 -0.6570
  140SAPE     N15218   6.497   1.936  11.028  0.6721 -0.0473 -0.6758
  140SAPE   HN115219   6.548   1.936  10.938 -0.9114 -1.1377 -1.5898
  140SAPE   HN215220   6.471   2.032  11.060  0.2876 -0.2510 -0.3719
  140SAPE   HN315221   6.571   1.882  11.077  1.2433  1.0148 -0.3448
  140SAPE   C1215222   6.375   1.853  11.008  0.5263 -0.2070  0.0864
  140SAPE  H12A15223   6.323   1.832  11.104 -1.9235  1.4306 -0.8244
  140SAPE  H12B15224   6.406   1.759  10.957 -1.1142 -0.7983  0.1526
  140SAPE   C1115225   6.272   1.926  10.918 -0.0493  0.9329  0.0120
  140SAPE  H11A15226   6.207   1.839  10.893  1.4316  0.6827 -3.1530
  140SAPE  H11B15227   6.320   1.962  10.824  1.2410  2.1043  1.0982
  140SAPE     P15228   6.074   1.989  11.059  0.0738  0.2930 -0.5296
  140SAPE   O1315229   6.104   1.908  11.179 -0.5428 -0.1930 -0.2129
  140SAPE   O1415230   6.000   2.109  11.080  0.0003 -0.2933  0.2523
  140SAPE   O1215231   6.208   2.028  10.992  0.3536  0.0863  0.5677
  140SAPE   O1115232   5.996   1.915  10.950 -0.4529  0.6481  0.0243
  140SAPE    C115233   5.866   1.967  10.901  0.0455 -0.0931 -0.0831
  140SAPE    HA15234   5.778   1.939  10.963 -0.3576  1.0603 -0.1126
  140SAPE    HB15235   5.867   2.078  10.898  0.3338 -0.0612  0.9287
  140SAPE    C215236   5.840   1.931  10.756  0.0718  0.4301 -0.4154
  140SAPE    HS15237   5.858   1.822  10.742 -3.5022 -0.0423 -2.1546
  140SAPE   O2115238   5.922   2.009  10.674  0.1037 -0.2276  0.2395
  140SAPE   C2115239   6.049   1.964  10.645  0.0160  0.2416 -0.6371
  140SAPE   O2215240   6.079   1.847  10.666  0.3292 -0.3617  0.0113
  140SAPE   C2215241   6.130   2.062  10.563 -0.2907  0.7982  0.3135
  140SAPE   H2R15242   6.077   2.160  10.567  0.1284  1.1645 -2.0928
  140SAPE   H2S15243   6.229   2.071  10.613  0.3053  0.2955 -0.7455
  140SAPE    C315244   5.691   1.960  10.719 -0.0279 -1.1470  0.0024
  140SAPE    HX15245   5.665   2.067  10.734 -0.9570 -1.4676  0.7276
  140SAPE    HY15246   5.623   1.907  10.788 -0.2357 -0.3566  0.4172
  140SAPE   O3115247   5.670   1.919  10.586  0.4597  0.0073  0.3442
  140SAPE   C3115248   5.643   2.002  10.485  0.5080 -0.6548  0.1355
  140SAPE   O3215249   5.632   2.124  10.488  0.7008 -0.0389 -0.4211
  140SAPE   C3215250   5.632   1.921  10.354 -0.3642  0.0319 -0.6182
  140SAPE   H2X15251   5.549   1.850  10.369 -2.0395  1.6858 -1.8477
  140SAPE   H2Y15252   5.725   1.862  10.341 -0.4326 -0.4313  0.9270
  140SAPE   C2315253   6.161   2.012  10.423 -0.2923 -0.1413  0.6547
  140SAPE   H3R15254   6.217   1.916  10.430 -0.2032 -0.2571 -1.3097
  140SAPE   H3S15255   6.232   2.084  10.376  0.0142 -0.1668  1.0826
  140SAPE   C2415256   6.045   2.011  10.322  0.7640 -0.5935  0.6226
  140SAPE   H4R15257   5.963   1.948  10.363 -0.3040 -0.9971 -2.0787
  140SAPE   H4S15258   6.079   1.958  10.231 -1.9645 -2.0545  0.3901
  140SAPE   C2515259   5.990   2.146  10.266  0.1030  0.1376  0.1014
  140SAPE   H5R15260   5.957   2.215  10.345  0.5465 -1.1894  1.4772
  140SAPE   C2615261   5.975   2.195  10.137  0.7897 -0.0812 -0.4645
  140SAPE   H6R15262   5.960   2.303  10.128 -1.7770 -0.2806  0.9769
  140SAPE   C2715263   6.005   2.115  10.008  0.7593 -0.4606 -0.9227
  140SAPE   H7R15264   5.925   2.051   9.966 -1.3386  0.7701  1.1421
  140SAPE   H7S15265   6.087   2.041  10.021  1.0176  0.2919  1.9658
  140SAPE   C2815266   6.023   2.201   9.883 -0.0293  0.0072 -0.4302
  140SAPE   H8R15267   6.124   2.229   9.851  0.0828 -0.4463 -0.4701
  140SAPE   C2915268   5.924   2.233   9.803 -0.1116 -0.6750  0.2712
  140SAPE   H9R15269   5.940   2.298   9.716  0.2539 -0.0776  0.7840
  140SAPE  C21015270   5.777   2.189   9.812 -0.5204  0.0062  0.2654
  140SAPE  H10R15271   5.714   2.279   9.800  2.4495  2.0110 -0.9934
  140SAPE  H10S15272   5.741   2.139   9.904  0.1423 -0.1354  0.4517
  140SAPE  C21115273   5.759   2.095   9.697 -0.1476  0.1205 -0.0271
  140SAPE  H11R15274   5.768   1.989   9.723  0.4565  0.2096  0.1344
  140SAPE  C21215275   5.720   2.120   9.574 -0.4374  0.4796 -0.2607
  140SAPE  H12R15276   5.717   2.041   9.497  2.5896 -0.2321  0.2777
  140SAPE  C21315277   5.695   2.256   9.519  0.9574  0.4059  0.6413
  140SAPE  H13R15278   5.660   2.323   9.600  1.0084 -0.9746  1.8258
  140SAPE  H13S15279   5.611   2.270   9.447  1.9726  1.4878 -0.3672
  140SAPE  C21415280   5.814   2.322   9.457 -0.1998  0.3860  0.2149
  140SAPE  H14R15281   5.871   2.385   9.528 -1.4118  3.4018 -1.3894
  140SAPE  C21515282   5.851   2.320   9.332  0.7726  0.6119  0.9460
  140SAPE  H15R15283   5.944   2.370   9.302  0.8699 -0.4362 -0.6048
  140SAPE  C21615284   5.784   2.241   9.218  0.5316 -0.1914  0.3353
  140SAPE  H16R15285   5.720   2.305   9.154 -0.4420  0.7602  2.2243
  140SAPE  H16S15286   5.718   2.158   9.251 -1.6175  1.3336 -0.0119
  140SAPE  C21715287   5.884   2.168   9.136 -0.2117  0.0750  0.2587
  140SAPE  H17R15288   5.825   2.129   9.050  1.8294  1.5146 -1.8518
  140SAPE  H17S15289   5.922   2.085   9.198 -0.1909  1.3703  2.0173
  140SAPE  C21815290   6.003   2.253   9.085 -0.4749  0.4417  0.1397
  140SAPE  H18R15291   6.063   2.290   9.170  0.9211 -1.7149  0.1271
  140SAPE  H18S15292   5.954   2.341   9.038 -2.2450  0.7065  2.3974
  140SAPE  C21915293   6.087   2.173   8.984  0.4912  0.1588  0.0660
  140SAPE  H19R15294   6.015   2.148   8.903 -0.4444 -0.4196  1.0624
  140SAPE  H19S15295   6.120   2.070   9.013 -0.9010  0.2049  1.8559
  140SAPE  C22015296   6.209   2.237   8.918 -0.4789  0.1873 -0.5104
  140SAPE  H20R15297   6.292   2.237   8.992  0.4732  0.0530 -1.5765
  140SAPE  H20S15298   6.185   2.333   8.869 -0.2036  0.6532  0.2557
  140SAPE  H20T15299   6.246   2.169   8.838 -0.1479 -0.7222  0.3989
  140SAPE   C3315300   5.614   2.027  10.244  0.6592  0.6227  0.7300
  140SAPE   H3X15301   5.687   2.110  10.255  0.1143  1.0326  1.2127
  140SAPE   H3Y15302   5.517   2.075  10.265  0.0680 -0.1369 -0.1907
  140SAPE   C3415303   5.606   1.963  10.100 -0.1631  0.5551 -0.0797
  140SAPE   H4X15304   5.702   1.912  10.078 -0.3427  0.7341 -1.3195
  140SAPE   H4Y15305   5.580   2.029  10.015  0.0479  0.1998 -0.4257
  140SAPE   C3515306   5.510   1.843  10.095 -0.5231  0.3511  0.1476
  140SAPE   H5X15307   5.415   1.874  10.144 -0.3424  2.7814 -0.9707
  140SAPE   H5Y15308   5.561   1.756  10.142 -0.0570  0.8804  0.6424
  140SAPE   C3615309   5.481   1.800   9.950  0.0370 -0.0970 -0.3952
  140SAPE   H6X15310   5.401   1.723   9.958  0.8741 -0.8356  1.1001
  140SAPE   H6Y15311   5.572   1.747   9.916  0.1989  0.2863 -0.5621
  140SAPE   C3715312   5.425   1.909   9.869  0.4179 -0.1208  0.6245
  140SAPE   H7X15313   5.487   1.997   9.843  0.3356  0.2919  1.8361
  140SAPE   H7Y15314   5.341   1.961   9.918  1.1602  2.3648 -0.6610
  140SAPE   C3815315   5.382   1.859   9.725 -0.5552  0.4100 -0.5673
  140SAPE   H8X15316   5.303   1.782   9.741 -0.1969  0.2480  0.4625
  140SAPE   H8Y15317   5.470   1.813   9.674 -0.2710 -0.5720  0.8028
  140SAPE   C3915318   5.318   1.963   9.631  0.2669  0.5613 -0.2497
  140SAPE   H9X15319   5.360   2.063   9.651 -0.6585  0.7674  0.6983
  140SAPE   H9Y15320   5.209   1.965   9.653  0.0038 -0.6213 -1.3523
  140SAPE  C31015321   5.349   1.920   9.488  0.2621  0.0890  0.4365
  140SAPE  H10X15322   5.336   1.811   9.468 -0.0240  0.6388 -2.7368
  140SAPE  H10Y15323   5.457   1.946   9.478  0.0115  2.2968  3.1254
  140SAPE  C31115324   5.278   2.011   9.390  0.6377  0.0109  0.2294
  140SAPE  H11X15325   5.321   2.111   9.411 -0.7895  0.6617  0.1298
  140SAPE  H11Y15326   5.168   2.016   9.401  0.6333 -0.4627  0.3840
  140SAPE  C31215327   5.320   1.992   9.243 -0.3401  0.2904 -0.9318
  140SAPE  H12X15328   5.279   2.075   9.182 -3.1546 -2.1148 -2.4414
  140SAPE  H12Y15329   5.287   1.893   9.204 -0.8527 -0.6340  1.7182
  140SAPE  C31315330   5.471   1.991   9.232 -0.4156  0.0605  0.0265
  140SAPE  H13X15331   5.513   1.900   9.279  0.7234 -0.9565 -2.8654
  140SAPE  H13Y15332   5.505   2.075   9.297 -2.7008  1.2737 -0.2657
  140SAPE  C31415333   5.526   1.982   9.090  0.2424 -0.5576  0.0958
  140SAPE  H14X15334   5.633   2.011   9.099 -0.2391  0.5790  2.7832
  140SAPE  H14Y15335   5.482   2.065   9.032 -0.8270  0.0497  1.7598
  140SAPE  C31515336   5.489   1.852   9.015 -0.4585  0.5905 -0.4152
  140SAPE  H15X15337   5.378   1.842   9.009 -0.5068 -0.7241  1.6998
  140SAPE  H15Y15338   5.524   1.768   9.079  1.0284  2.7582  1.6997
  140SAPE  C31615339   5.540   1.827   8.874 -0.4323  0.2596 -1.0046
  140SAPE  H16X15340   5.644   1.790   8.874 -1.2106 -2.1563 -3.4441
  140SAPE  H16Y15341   5.532   1.921   8.815 -2.2854  1.1923  0.6795
  140SAPE  C31715342   5.449   1.728   8.796 -0.3805 -0.0946  0.0448
  140SAPE  H17X15343   5.344   1.764   8.806 -0.5360 -0.5695  0.1181
  140SAPE  H17Y15344   5.445   1.628   8.843 -1.0674  0.4270  1.1350
  140SAPE  C31815345   5.485   1.739   8.656  0.7215 -0.1968 -0.5590
  140SAPE  H18X15346   5.512   1.844   8.630  1.3491 -0.5764 -1.4606
  140SAPE  H18Y15347   5.398   1.705   8.596  1.9678 -1.2684 -1.7913
  140SAPE  H18Z15348   5.568   1.669   8.631 -0.3884 -1.7665  0.0959
  141SAPE     N15349   6.525   2.629  11.176  0.5033  0.3719  0.0761
  141SAPE   HN115350   6.472   2.707  11.221  1.7197  1.7467 -0.8063
  141SAPE   HN215351   6.538   2.554  11.246  0.6672 -0.7201 -1.1022
  141SAPE   HN315352   6.620   2.667  11.158  1.5988 -0.2876  4.0757
  141SAPE   C1215353   6.455   2.575  11.047  0.1788  0.2509  0.1981
  141SAPE  H12A15354   6.413   2.657  10.984 -1.1491 -1.9975 -1.9653
  141SAPE  H12B15355   6.379   2.501  11.082 -0.7900  1.8004  1.4509
  141SAPE   C1115356   6.560   2.488  10.966  0.0904  0.0766  0.1700
  141SAPE  H11A15357   6.625   2.556  10.907  0.0367 -0.3029 -0.3310
  141SAPE  H11B15358   6.493   2.432  10.896 -0.9875 -1.4433  2.3368
  141SAPE     P15359   6.752   2.322  11.015  0.0828  0.2235 -0.0386
  141SAPE   O1315360   6.855   2.424  11.015 -0.1726 -0.1801 -0.8015
  141SAPE   O1415361   6.774   2.213  11.108  0.6759 -0.0943  0.2244
  141SAPE   O1215362   6.630   2.400  11.052  0.0122 -0.7504 -0.4259
  141SAPE   O1115363   6.716   2.263  10.875 -0.0688  0.2642  0.0490
  141SAPE    C115364   6.792   2.274  10.759  0.1151  0.4071 -0.5280
  141SAPE    HA15365   6.893   2.319  10.770  0.6711 -1.4739  2.6965
  141SAPE    HB15366   6.797   2.170  10.719  0.2357 -0.4856  1.7219
  141SAPE    C215367   6.736   2.360  10.638 -0.8041 -0.4774 -0.1847
  141SAPE    HS15368   6.749   2.464  10.675  1.0761  0.1576 -2.4808
  141SAPE   O2115369   6.599   2.322  10.611 -0.1488 -0.0184  0.1063
  141SAPE   C2115370   6.516   2.402  10.556 -0.1290 -1.1849  0.1578
  141SAPE   O2215371   6.518   2.524  10.555  0.3844 -0.8960  0.1466
  141SAPE   C2215372   6.422   2.315  10.481 -0.2138  0.1692  0.2495
  141SAPE   H2R15373   6.468   2.282  10.385 -1.2558 -0.2145 -0.1192
  141SAPE   H2S15374   6.382   2.232  10.542  2.2679 -0.9971  0.3371
  141SAPE    C315375   6.810   2.337  10.503  0.3020 -0.0317  0.9017
  141SAPE    HX15376   6.825   2.229  10.484 -1.3056 -0.3122  1.1194
  141SAPE    HY15377   6.912   2.381  10.504  0.3103  0.5038 -4.3980
  141SAPE   O3115378   6.730   2.395  10.389 -0.5091  0.7380 -0.2867
  141SAPE   C3115379   6.768   2.513  10.351  0.5127 -0.7176  0.3481
  141SAPE   O3215380   6.870   2.569  10.377 -0.0096 -0.3287  0.3099
  141SAPE   C3215381   6.662   2.574  10.258  0.5892  0.2691  0.9143
  141SAPE   H2X15382   6.639   2.680  10.279 -1.3199  0.6360 -2.5989
  141SAPE   H2Y15383   6.566   2.520  10.274 -0.0606 -0.1963 -3.7950
  141SAPE   C2315384   6.284   2.381  10.449  0.2416 -0.2861  0.1849
  141SAPE   H3R15385   6.251   2.435  10.541  0.5723  0.7583 -0.3013
  141SAPE   H3S15386   6.201   2.310  10.428 -0.5329  0.9343 -0.9211
  141SAPE   C2415387   6.263   2.465  10.324  0.8145 -0.2104  0.8605
  141SAPE   H4R15388   6.331   2.553  10.320 -2.0908  2.1579  1.1870
  141SAPE   H4S15389   6.163   2.512  10.339  0.5674 -0.2346 -0.6622
  141SAPE   C2515390   6.291   2.381  10.200 -0.0299 -0.0660 -0.0973
  141SAPE   H5R15391   6.326   2.278  10.220  2.1985  0.5345 -0.7351
  141SAPE   C2615392   6.269   2.426  10.075 -0.1717  0.0535  0.4366
  141SAPE   H6R15393   6.285   2.365   9.985  2.0871  0.0885  0.7840
  141SAPE   C2715394   6.224   2.568  10.045 -0.0860 -0.2340  0.5346
  141SAPE   H7R15395   6.194   2.616  10.140 -0.0828  0.6012  0.1211
  141SAPE   H7S15396   6.129   2.554   9.989  0.5995  0.8264 -0.9417
  141SAPE   C2815397   6.338   2.647   9.973 -0.1006  0.6730 -0.3597
  141SAPE   H8R15398   6.441   2.610   9.987  0.1727  1.2835 -0.7165
  141SAPE   C2915399   6.321   2.749   9.892  0.5210  0.2126 -0.6442
  141SAPE   H9R15400   6.401   2.819   9.862  0.5240  0.2973 -0.4473
  141SAPE  C21015401   6.183   2.805   9.847  0.1903 -0.2384  0.3919
  141SAPE  H10R15402   6.158   2.888   9.916  2.4959  3.9031 -3.4295
  141SAPE  H10S15403   6.098   2.734   9.843 -0.3126  0.2859  1.5981
  141SAPE  C21115404   6.191   2.862   9.710 -0.3513 -0.3423 -0.5605
  141SAPE  H11R15405   6.203   2.970   9.692 -0.2937 -0.6146 -2.2586
  141SAPE  C21215406   6.188   2.786   9.597 -0.2866  0.2911 -0.0094
  141SAPE  H12R15407   6.219   2.831   9.501  0.1488 -1.8976 -0.9307
  141SAPE  C21315408   6.186   2.643   9.592  0.0177 -0.0485 -0.5913
  141SAPE  H13R15409   6.108   2.617   9.517 -1.4623  1.7915  0.2619
  141SAPE  H13S15410   6.149   2.598   9.687  1.6666  2.4643  1.3203
  141SAPE  C21415411   6.324   2.598   9.553  0.3979 -0.0786 -0.4599
  141SAPE  H14R15412   6.403   2.602   9.629 -1.2632  1.0498  1.2569
  141SAPE  C21515413   6.368   2.537   9.437  0.1475  0.8272 -0.0045
  141SAPE  H15R15414   6.471   2.499   9.440  0.8699  2.5201 -2.2252
  141SAPE  C21615415   6.288   2.501   9.314  0.0274 -0.7411 -0.0291
  141SAPE  H16R15416   6.207   2.430   9.345  0.6740 -0.9374  1.2398
  141SAPE  H16S15417   6.360   2.436   9.258  1.2142 -2.5633  3.4669
  141SAPE  C21715418   6.221   2.614   9.235  0.2906 -0.3888 -0.4793
  141SAPE  H17R15419   6.311   2.672   9.205  0.9200 -0.4794  1.1621
  141SAPE  H17S15420   6.149   2.671   9.297 -0.9933 -1.0368 -1.3547
  141SAPE  C21815421   6.153   2.563   9.109 -0.3765 -0.9404  0.0225
  141SAPE  H18R15422   6.049   2.525   9.119 -0.8011 -0.0483 -0.9168
  141SAPE  H18S15423   6.220   2.482   9.072  0.1030 -1.5687  2.2014
  141SAPE  C21915424   6.138   2.676   9.009  0.1932 -0.0734  0.2370
  141SAPE  H19R15425   6.086   2.647   8.916 -0.4523  0.3519  0.4642
  141SAPE  H19S15426   6.236   2.719   8.977  1.3412 -1.9904  1.0875
  141SAPE  C22015427   6.054   2.795   9.067 -0.2926 -0.4113  0.1014
  141SAPE  H20R15428   5.957   2.748   9.094 -1.1892  2.2485  1.7455
  141SAPE  H20S15429   6.048   2.876   8.992  0.2996 -0.8659 -0.4375
  141SAPE  H20T15430   6.098   2.830   9.163 -0.6768  1.8139 -0.5165
  141SAPE   C3315431   6.721   2.568  10.115 -0.8474  0.3861  0.2489
  141SAPE   H3X15432   6.813   2.631  10.116 -0.8074  0.3212  1.6780
  141SAPE   H3Y15433   6.644   2.622  10.054  0.7226  0.7286 -1.4825
  141SAPE   C3415434   6.747   2.428  10.052  0.7335  0.5702  0.5940
  141SAPE   H4X15435   6.691   2.352  10.110  0.7005  1.8225  2.2344
  141SAPE   H4Y15436   6.854   2.399  10.062  0.7465  0.5649  0.4396
  141SAPE   C3515437   6.696   2.444   9.906 -0.4244  0.4451  0.5719
  141SAPE   H5X15438   6.764   2.519   9.862  0.0735 -0.8029 -0.8167
  141SAPE   H5Y15439   6.591   2.480   9.901 -0.2642  1.3798  2.9752
  141SAPE   C3615440   6.719   2.323   9.810  0.0008  0.6833 -0.1408
  141SAPE   H6X15441   6.649   2.245   9.846  3.0199 -3.0838 -2.0731
  141SAPE   H6Y15442   6.821   2.280   9.812  0.1729  1.0722 -0.4328
  141SAPE   C3715443   6.689   2.362   9.664 -0.8378  0.1148 -0.1236
  141SAPE   H7X15444   6.785   2.407   9.629  0.4092 -1.3786  1.2684
  141SAPE   H7Y15445   6.602   2.428   9.648 -1.3678 -0.4329  0.4484
  141SAPE   C3815446   6.667   2.235   9.582  0.0378 -0.1863 -0.2762
  141SAPE   H8X15447   6.587   2.167   9.619  0.2765  0.6031  1.7029
  141SAPE   H8Y15448   6.762   2.178   9.582  0.1144 -0.0548  0.2621
  141SAPE   C3915449   6.639   2.264   9.433  0.0532  0.0063 -0.1760
  141SAPE   H9X15450   6.725   2.320   9.391 -1.9390  2.7716 -0.6891
  141SAPE   H9Y15451   6.543   2.318   9.421  0.6641  1.8389  2.6618
  141SAPE  C31015452   6.620   2.133   9.355 -0.5024 -0.4935  0.6220
  141SAPE  H10X15453   6.532   2.082   9.400 -1.5299  0.7413  0.0605
  141SAPE  H10Y15454   6.705   2.062   9.362  0.8501  0.9931 -0.4040
  141SAPE  C31115455   6.604   2.149   9.203  0.2633 -0.5085  0.4314
  141SAPE  H11X15456   6.693   2.208   9.170 -0.4045  0.3635  0.1567
  141SAPE  H11Y15457   6.513   2.207   9.177  1.7559  2.5237  1.7309
  141SAPE  C31215458   6.593   2.013   9.134  0.1922 -0.2995 -1.0158
  141SAPE  H12X15459   6.513   1.950   9.178  1.1224  0.2014  1.4248
  141SAPE  H12Y15460   6.690   1.965   9.155 -0.1585  0.0696  1.5136
  141SAPE  C31315461   6.573   2.029   8.981 -1.1222 -0.1687 -0.4994
  141SAPE  H13X15462   6.652   2.090   8.931  0.5436 -0.9354  1.1430
  141SAPE  H13Y15463   6.486   2.097   8.968  0.5657  2.1791 -0.0205
  141SAPE  C31415464   6.553   1.905   8.898  0.7202 -0.0198 -0.5622
  141SAPE  H14X15465   6.472   1.836   8.927  0.0481  0.7502 -0.5809
  141SAPE  H14Y15466   6.646   1.844   8.892  0.7353 -0.0332 -0.1946
  141SAPE  C31515467   6.531   1.949   8.745  0.5633 -0.3794  0.0975
  141SAPE  H15X15468   6.597   2.036   8.726 -0.3863 -0.2187 -2.6216
  141SAPE  H15Y15469   6.427   1.985   8.755  1.5135  2.3891  0.3696
  141SAPE  C31615470   6.549   1.830   8.647  0.3415  0.4505 -0.3231
  141SAPE  H16X15471   6.488   1.741   8.674  1.8602 -0.6091 -0.3277
  141SAPE  H16Y15472   6.656   1.800   8.648  0.0708 -0.5429 -0.9674
  141SAPE  C31715473   6.506   1.876   8.509  0.5747  0.6234  0.7226
  141SAPE  H17X15474   6.396   1.894   8.509  0.2725 -1.0825  2.7586
  141SAPE  H17Y15475   6.538   1.798   8.437 -0.1435  1.1499 -0.1782
  141SAPE  C31815476   6.573   2.007   8.456 -0.5535  0.6090  0.0843
  141SAPE  H18X15477   6.552   2.041   8.352  0.0199 -0.6244 -0.4441
  141SAPE  H18Y15478   6.683   1.993   8.466 -0.7045 -2.4035 -1.7192
  141SAPE  H18Z15479   6.537   2.091   8.519  1.1296  0.3061  1.5132
  142SAPE     N15480   6.324   1.221  11.004  0.2180  0.1618  0.8064
  142SAPE   HN115481   6.259   1.144  11.027  1.1393 -0.8624  0.0565
  142SAPE   HN215482   6.273   1.283  10.938  0.0037 -1.0072 -0.1416
  142SAPE   HN315483   6.413   1.180  10.968 -0.1392  0.0018  0.0841
  142SAPE   C1215484   6.353   1.292  11.129  0.2750  1.4304 -0.2329
  142SAPE  H12A15485   6.391   1.215  11.200 -0.3682  0.1086 -1.3077
  142SAPE  H12B15486   6.254   1.309  11.177  0.6009  2.3866  0.1028
  142SAPE   C1115487   6.445   1.404  11.108 -0.0761  0.2498 -0.2780
  142SAPE  H11A15488   6.440   1.468  11.199  1.1432 -0.1313  0.0624
  142SAPE  H11B15489   6.409   1.468  11.024  2.4600  1.4697 -0.4690
  142SAPE     P15490   6.698   1.438  11.050  0.2530  0.2565 -0.3778
  142SAPE   O1315491   6.710   1.541  11.160  0.2848 -0.3099  0.3845
  142SAPE   O1415492   6.814   1.352  11.039 -0.2043  0.7442  0.4049
  142SAPE   O1215493   6.574   1.350  11.070  0.0674  0.3583  0.1260
  142SAPE   O1115494   6.663   1.505  10.915 -0.6696  0.1036  0.1927
  142SAPE    C115495   6.622   1.432  10.795  0.0427  0.2216 -0.2864
  142SAPE    HA15496   6.669   1.332  10.796  2.8385  1.4664 -1.0055
  142SAPE    HB15497   6.512   1.417  10.786  0.0373  0.8644 -1.4396
  142SAPE    C215498   6.674   1.507  10.665  0.4070  0.3696 -0.0217
  142SAPE    HS15499   6.784   1.515  10.674  0.2573  0.1231  2.4919
  142SAPE   O2115500   6.616   1.638  10.656 -0.5956 -0.0779  0.0781
  142SAPE   C2115501   6.696   1.728  10.601  0.7065 -0.8388 -0.1427
  142SAPE   O2215502   6.804   1.707  10.543 -0.2016  0.1673  0.4251
  142SAPE   C2215503   6.636   1.870  10.627  0.2811 -0.3442  0.1140
  142SAPE   H2R15504   6.535   1.872  10.672 -0.0185 -0.8033 -0.5321
  142SAPE   H2S15505   6.702   1.918  10.703  0.8911 -1.4309  0.2786
  142SAPE    C315506   6.647   1.416  10.549  0.2026  0.5231  0.4921
  142SAPE    HX15507   6.538   1.397  10.544  0.4919 -0.4750 -3.1104
  142SAPE    HY15508   6.690   1.314  10.560  0.6249  0.3920 -2.1146
  142SAPE   O3115509   6.663   1.474  10.414  0.5918  0.1706 -0.4849
  142SAPE   C3115510   6.794   1.473  10.369 -0.0800 -0.0395 -0.2887
  142SAPE   O3215511   6.889   1.428  10.420 -0.3779 -0.0698  0.2301
  142SAPE   C3215512   6.797   1.535  10.231  0.3657  0.7951 -0.5208
  142SAPE   H2X15513   6.904   1.547  10.205  0.7507 -0.9872  0.1965
  142SAPE   H2Y15514   6.742   1.631  10.226  2.3521  2.0171  0.6114
  142SAPE   C2315515   6.648   1.960  10.498  0.0941  0.4496  0.1884
  142SAPE   H3R15516   6.750   1.946  10.456 -0.0029  1.4508 -0.3666
  142SAPE   H3S15517   6.636   2.062  10.538  2.1936  0.9201 -0.2961
  142SAPE   C2415518   6.545   1.935  10.386  0.1764 -0.3911 -0.1523
  142SAPE   H4R15519   6.443   1.958  10.424 -1.1193 -4.3421 -1.0556
  142SAPE   H4S15520   6.548   1.826  10.363 -0.5103 -0.7524  1.4037
  142SAPE   C2515521   6.570   2.025  10.269  0.3940 -1.1578 -0.0505
  142SAPE   H5R15522   6.599   2.126  10.302 -2.0670 -0.0702 -1.1437
  142SAPE   C2615523   6.558   1.993  10.142  0.0117 -1.0969 -0.4954
  142SAPE   H6R15524   6.575   2.076  10.073 -1.7712 -0.7020 -0.4663
  142SAPE   C2715525   6.510   1.865  10.088  0.0850  0.3876  0.3575
  142SAPE   H7R15526   6.399   1.864  10.100  0.1946  1.3603  1.5791
  142SAPE   H7S15527   6.552   1.778  10.143 -1.8640 -0.0804  1.1680
  142SAPE   C2815528   6.534   1.849   9.936 -0.7434 -0.6462  0.3490
  142SAPE   H8R15529   6.610   1.776   9.905  0.3078  0.3497  0.5539
  142SAPE   C2915530   6.452   1.895   9.836 -0.0733 -0.6297  0.0619
  142SAPE   H9R15531   6.488   1.888   9.732  1.3725  0.3002  0.4768
  142SAPE  C21015532   6.327   1.981   9.853 -0.4889  0.2689  0.1342
  142SAPE  H10R15533   6.298   2.012   9.955 -1.2769  0.4935 -0.1533
  142SAPE  H10S15534   6.245   1.915   9.819  0.1759 -0.5818  0.1546
  142SAPE  C21115535   6.340   2.096   9.753  0.1558  0.9671  0.6506
  142SAPE  H11R15536   6.400   2.183   9.785  1.5962  0.9491 -1.9018
  142SAPE  C21215537   6.283   2.114   9.633 -1.0216  0.6397 -0.1405
  142SAPE  H12R15538   6.291   2.208   9.576 -1.3096 -1.0647 -3.1069
  142SAPE  C21315539   6.192   2.020   9.553 -0.3758  0.2158 -0.5257
  142SAPE  H13R15540   6.090   2.062   9.560 -1.2213 -1.9208  0.3416
  142SAPE  H13S15541   6.171   1.928   9.612 -0.1269  1.0725  0.9316
  142SAPE  C21415542   6.243   2.003   9.412  0.0207  0.0687  0.0526
  142SAPE  H14R15543   6.227   2.097   9.357 -1.8476  1.0306  2.1498
  142SAPE  C21515544   6.301   1.900   9.354 -0.0050 -0.0969  0.3333
  142SAPE  H15R15545   6.333   1.905   9.249 -0.2765 -0.7966  0.2162
  142SAPE  C21615546   6.336   1.769   9.419 -0.2635  0.2529 -0.3319
  142SAPE  H16R15547   6.273   1.739   9.506  1.4222 -1.2969  0.3884
  142SAPE  H16S15548   6.441   1.777   9.456  0.3401  0.2115 -1.9746
  142SAPE  C21715549   6.335   1.649   9.318  0.5258 -0.0635 -0.6676
  142SAPE  H17R15550   6.248   1.642   9.250 -0.0936  1.6134 -0.0567
  142SAPE  H17S15551   6.326   1.553   9.374  0.6443  1.3623  1.8967
  142SAPE  C21815552   6.453   1.633   9.227  0.4303 -0.2713 -0.6245
  142SAPE  H18R15553   6.551   1.620   9.278 -0.3892  0.3863  1.1514
  142SAPE  H18S15554   6.462   1.730   9.175 -0.3678  1.8056  2.9062
  142SAPE  C21915555   6.449   1.521   9.127 -0.9128  0.5119 -0.3379
  142SAPE  H19R15556   6.357   1.519   9.064 -0.2765 -0.4714 -1.2572
  142SAPE  H19S15557   6.443   1.425   9.183  1.3276 -0.3712 -1.5530
  142SAPE  C22015558   6.576   1.524   9.052 -0.2607 -0.2806  0.7232
  142SAPE  H20R15559   6.587   1.612   8.985  2.0701 -1.3117 -0.3150
  142SAPE  H20S15560   6.585   1.439   8.981 -1.4594  0.1280  0.0538
  142SAPE  H20T15561   6.663   1.534   9.119  1.4416  0.7945 -1.5895
  142SAPE   C3315562   6.733   1.432  10.126 -0.5182 -1.1342 -0.2613
  142SAPE   H3X15563   6.625   1.414  10.145  0.1798 -3.0988  2.1364
  142SAPE   H3Y15564   6.783   1.333  10.136  0.1030 -0.6854  1.2577
  142SAPE   C3415565   6.744   1.482   9.980  0.1215  0.8172  0.6557
  142SAPE   H4X15566   6.831   1.548   9.961 -0.2712  0.9741 -0.6045
  142SAPE   H4Y15567   6.649   1.535   9.956  0.2971  1.0745  0.5350
  142SAPE   C3515568   6.739   1.362   9.886 -0.6491  0.0557 -0.6303
  142SAPE   H5X15569   6.647   1.301   9.892 -1.1353  0.7112 -1.2742
  142SAPE   H5Y15570   6.832   1.305   9.906 -0.3504  0.1550 -1.6660
  142SAPE   C3615571   6.758   1.411   9.742 -0.0155 -0.1406  0.5811
  142SAPE   H6X15572   6.858   1.455   9.725  0.1350 -0.5207  0.5028
  142SAPE   H6Y15573   6.683   1.491   9.723 -0.2407  0.3151  3.1139
  142SAPE   C3715574   6.745   1.312   9.628 -0.1248  0.5965  0.1581
  142SAPE   H7X15575   6.638   1.280   9.626  0.5244 -1.6349 -1.1538
  142SAPE   H7Y15576   6.804   1.223   9.661  0.9553  0.5949 -1.7364
  142SAPE   C3815577   6.787   1.355   9.485  0.7344  0.2599 -0.2381
  142SAPE   H8X15578   6.897   1.369   9.488  0.7842  0.7909 -3.1360
  142SAPE   H8Y15579   6.744   1.452   9.451 -1.0821  0.1661  1.6734
  142SAPE   C3915580   6.762   1.241   9.386  0.5715 -0.4678  0.3000
  142SAPE   H9X15581   6.656   1.208   9.388 -0.0259  1.4310  0.4038
  142SAPE   H9Y15582   6.821   1.159   9.433 -0.7792 -0.9288  1.2412
  142SAPE  C31015583   6.820   1.259   9.249  0.2892  0.2824  0.0958
  142SAPE  H10X15584   6.922   1.216   9.237 -0.1259 -0.7551  0.2563
  142SAPE  H10Y15585   6.836   1.368   9.231  1.6583  0.2563  1.1121
  142SAPE  C31115586   6.721   1.199   9.150 -0.3094 -0.0663 -0.2365
  142SAPE  H11X15587   6.630   1.263   9.146  1.1575  2.0759 -0.5542
  142SAPE  H11Y15588   6.687   1.100   9.186  0.3919  0.6822  2.5654
  142SAPE  C31215589   6.776   1.193   9.009 -0.8374  0.1693 -0.4176
  142SAPE  H12X15590   6.864   1.126   9.018 -1.4614 -0.6498 -0.4094
  142SAPE  H12Y15591   6.811   1.297   8.990  0.1659  0.2688  1.8229
  142SAPE  C31315592   6.673   1.157   8.898 -0.2095  0.0925 -0.0361
  142SAPE  H13X15593   6.597   1.238   8.897 -1.9754 -1.4915  1.3470
  142SAPE  H13Y15594   6.627   1.064   8.938  3.2500 -1.1255  1.2757
  142SAPE  C31415595   6.747   1.136   8.765  0.3522  0.0110 -0.6898
  142SAPE  H14X15596   6.823   1.058   8.783 -0.1701 -0.2319  0.4962
  142SAPE  H14Y15597   6.809   1.224   8.738 -0.0325  0.5247  0.1037
  142SAPE  C31515598   6.649   1.096   8.651  0.0214  0.2298 -0.2198
  142SAPE  H15X15599   6.567   1.170   8.645  0.1558  0.3383 -0.6990
  142SAPE  H15Y15600   6.601   0.999   8.675  0.0391  0.4144  0.5951
  142SAPE  C31615601   6.719   1.095   8.514 -0.0114 -0.2426  0.5363
  142SAPE  H16X15602   6.665   1.032   8.441 -1.0357 -0.9861  1.9081
  142SAPE  H16Y15603   6.825   1.066   8.528  0.1047  0.8242  2.0366
  142SAPE  C31715604   6.703   1.224   8.439 -0.4038 -0.3668 -0.1343
  142SAPE  H17X15605   6.741   1.310   8.500  2.3731 -1.4759 -0.2099
  142SAPE  H17Y15606   6.596   1.228   8.410 -0.0413 -0.1908 -1.5009
  142SAPE  C31815607   6.773   1.228   8.301 -0.2035 -0.2139  0.7874
  142SAPE  H18X15608   6.808   1.332   8.281 -0.4163  0.1998  2.5010
  142SAPE  H18Y15609   6.695   1.192   8.230  0.0218  0.6420  0.0920
  142SAPE  H18Z15610   6.864   1.164   8.297  0.2062  0.4399 -1.1428
  143SAPE     N15611   1.709   1.761  11.280  0.0197  0.2758  1.0486
  143SAPE   HN115612   1.741   1.808  11.367 -1.6460  0.1121  1.7762
  143SAPE   HN215613   1.611   1.732  11.296  0.1481 -0.6466  0.1857
  143SAPE   HN315614   1.767   1.679  11.254 -2.6175 -1.0747 -0.7724
  143SAPE   C1215615   1.728   1.853  11.158 -0.1901 -1.2466 -0.6062
  143SAPE  H12A15616   1.810   1.928  11.167 -0.9003 -0.5588  0.2859
  143SAPE  H12B15617   1.635   1.914  11.158  0.3069 -0.4885 -0.7774
  143SAPE   C1115618   1.757   1.781  11.028  0.2743  0.1283 -0.1294
  143SAPE  H11A15619   1.851   1.722  11.032 -0.7753 -1.6396 -1.1472
  143SAPE  H11B15620   1.775   1.861  10.953  1.7626  2.0392  2.1700
  143SAPE     P15621   1.537   1.730  10.909 -0.2298 -0.3054 -0.3674
  143SAPE   O1315622   1.429   1.639  10.918  0.3955  0.0017 -0.0207
  143SAPE   O1415623   1.499   1.872  10.939  0.4827 -0.0160  0.3533
  143SAPE   O1215624   1.649   1.693  10.999 -0.8478  0.2748 -0.2668
  143SAPE   O1115625   1.592   1.726  10.767 -0.1604 -0.2568 -0.0120
  143SAPE    C115626   1.616   1.837  10.685 -0.4439  0.2433 -0.2089
  143SAPE    HA15627   1.529   1.903  10.665  0.3903  1.5572  0.4383
  143SAPE    HB15628   1.691   1.901  10.736  0.6667 -0.4152 -0.9939
  143SAPE    C215629   1.670   1.786  10.547  0.2570  0.3200  0.2207
  143SAPE    HS15630   1.714   1.863  10.480  0.8858 -1.8975 -2.0070
  143SAPE   O2115631   1.567   1.709  10.480 -0.0426  0.6550 -0.4284
  143SAPE   C2115632   1.576   1.691  10.350 -0.4517 -0.0859  0.3563
  143SAPE   O2215633   1.662   1.730  10.271  0.0802 -0.5723 -0.6895
  143SAPE   C2215634   1.449   1.617  10.300  0.4271  0.3471 -0.0199
  143SAPE   H2R15635   1.423   1.659  10.200  1.1430 -0.5006 -0.5648
  143SAPE   H2S15636   1.483   1.513  10.281  0.1207 -0.1799  2.1704
  143SAPE    C315637   1.797   1.687  10.566  0.3259 -0.0938 -0.7327
  143SAPE    HX15638   1.767   1.592  10.613  3.4075 -0.1100  1.4127
  143SAPE    HY15639   1.868   1.745  10.630  0.5085 -1.1983  0.0715
  143SAPE   O3115640   1.867   1.657  10.448  0.3470  0.1750  0.0332
  143SAPE   C3115641   1.954   1.745  10.394 -0.0490  0.3756 -0.4555
  143SAPE   O3215642   1.976   1.849  10.450  0.0385  0.2342  0.6248
  143SAPE   C3215643   1.999   1.703  10.255 -0.1777  0.0025  0.3977
  143SAPE   H2X15644   1.948   1.611  10.219  2.2666 -0.1133 -3.0891
  143SAPE   H2Y15645   2.107   1.677  10.268 -0.2688  0.2228  1.6398
  143SAPE   C2315646   1.327   1.626  10.394  0.7613  0.0760 -0.3722
  143SAPE   H3R15647   1.316   1.731  10.428 -0.2645 -0.8733  2.3521
  143SAPE   H3S15648   1.338   1.572  10.490 -0.4773  0.0031 -0.2628
  143SAPE   C2415649   1.199   1.574  10.328  0.3418  0.4647  0.0821
  143SAPE   H4R15650   1.169   1.628  10.235  2.2328  0.7769 -0.3820
  143SAPE   H4S15651   1.113   1.596  10.395  0.2020  3.5712 -1.0247
  143SAPE   C2515652   1.210   1.424  10.302  0.5920 -0.0931 -0.2487
  143SAPE   H5R15653   1.215   1.363  10.393  0.8833 -0.3668 -0.4463
  143SAPE   C2615654   1.207   1.355  10.189 -0.1988 -0.0246  0.0183
  143SAPE   H6R15655   1.209   1.245  10.186 -1.6163 -0.0328 -2.5392
  143SAPE   C2715656   1.185   1.422  10.054 -0.2603  0.2872  0.4312
  143SAPE   H7R15657   1.135   1.522  10.059  0.0763  0.6307 -2.3923
  143SAPE   H7S15658   1.110   1.362   9.999 -2.1813  1.0386  2.1286
  143SAPE   C2815659   1.317   1.433   9.978  0.8297 -0.2205 -0.3001
  143SAPE   H8R15660   1.387   1.501  10.030 -0.0700  0.5570 -0.0925
  143SAPE   C2915661   1.357   1.388   9.870  0.4186  0.2157  0.2510
  143SAPE   H9R15662   1.462   1.406   9.843  0.6937 -0.3226  0.9419
  143SAPE  C21015663   1.270   1.299   9.780 -0.0917 -0.1888  0.5325
  143SAPE  H10R15664   1.162   1.321   9.785  0.1540  0.5491  3.2759
  143SAPE  H10S15665   1.274   1.199   9.829  1.3665  0.7581  2.4121
  143SAPE  C21115666   1.328   1.275   9.640  0.2100  0.0510  0.1413
  143SAPE  H11R15667   1.437   1.282   9.634  0.1268  1.1116 -0.2299
  143SAPE  C21215668   1.258   1.253   9.529  0.6704 -0.1530 -0.2680
  143SAPE  H12R15669   1.318   1.246   9.437  0.7695  1.0085 -0.2996
  143SAPE  C21315670   1.108   1.237   9.510  0.6837 -1.3059  0.3932
  143SAPE  H13R15671   1.062   1.319   9.450 -0.5695 -1.6728  0.8260
  143SAPE  H13S15672   1.048   1.261   9.601 -0.7234 -1.3217 -0.5216
  143SAPE  C21415673   1.054   1.109   9.457  0.7126  0.6805 -0.1222
  143SAPE  H14R15674   1.096   1.025   9.514  3.7190  1.8242 -0.5364
  143SAPE  C21515675   0.969   1.082   9.362  0.8537  0.5631 -0.1585
  143SAPE  H15R15676   0.940   0.981   9.327 -1.2102  1.1250 -0.1168
  143SAPE  C21615677   0.909   1.195   9.285 -0.6903  0.0334 -0.0084
  143SAPE  H16R15678   0.885   1.273   9.360 -1.4202 -0.1858 -0.0102
  143SAPE  H16S15679   0.817   1.163   9.230  0.6709 -0.8130 -1.8382
  143SAPE  C21715680   1.002   1.254   9.173  0.3551 -0.2019 -0.3285
  143SAPE  H17R15681   1.101   1.285   9.212  0.8539  0.7456 -2.2512
  143SAPE  H17S15682   0.971   1.357   9.148  0.0287  0.2650  1.8993
  143SAPE  C21815683   1.017   1.185   9.033 -0.4250 -0.1603 -0.2140
  143SAPE  H18R15684   1.048   1.250   8.948  0.1291  0.8327  0.7346
  143SAPE  H18S15685   0.924   1.127   9.013  0.0605 -2.1760  3.1408
  143SAPE  C21915686   1.126   1.084   9.029 -0.7355  0.5868 -1.0518
  143SAPE  H19R15687   1.123   1.014   9.115 -2.3997  1.7048 -0.1703
  143SAPE  H19S15688   1.225   1.134   9.029  0.3365 -1.4491 -1.4069
  143SAPE  C22015689   1.133   1.005   8.895 -0.4852  0.1677  0.1278
  143SAPE  H20R15690   1.128   1.078   8.811 -1.8337  1.5106  1.3475
  143SAPE  H20S15691   1.056   0.927   8.877  0.9354 -0.7379 -2.3055
  143SAPE  H20T15692   1.232   0.954   8.889 -1.5580 -1.9264  0.0533
  143SAPE   C3315693   1.976   1.825  10.163 -0.2379  0.3443  0.2049
  143SAPE   H3X15694   2.036   1.913  10.196 -0.2541  0.6622 -0.6003
  143SAPE   H3Y15695   1.868   1.850  10.162  0.1134  1.9137  0.0022
  143SAPE   C3415696   2.037   1.798  10.027  0.0203  0.5056  0.3579
  143SAPE   H4X15697   2.006   1.700   9.984  3.2470  0.9059 -3.1934
  143SAPE   H4Y15698   2.148   1.807  10.020 -0.1341  2.4687  0.3014
  143SAPE   C3515699   1.981   1.900   9.925 -0.4317  0.5671 -0.1432
  143SAPE   H5X15700   1.996   2.002   9.968  1.5802  0.5500 -0.7239
  143SAPE   H5Y15701   1.876   1.866   9.930  0.0355 -1.1161 -1.3730
  143SAPE   C3615702   2.039   1.866   9.788 -0.1528 -0.9815 -0.0487
  143SAPE   H6X15703   2.067   1.758   9.784 -0.5340 -1.2383  2.7286
  143SAPE   H6Y15704   2.134   1.923   9.788 -0.4280 -0.5308 -0.8429
  143SAPE   C3715705   1.965   1.920   9.666 -0.2212 -0.8169 -0.4998
  143SAPE   H7X15706   1.965   2.031   9.662 -0.2533 -0.7846  0.4383
  143SAPE   H7Y15707   1.862   1.880   9.673 -0.0640 -1.2370 -0.5326
  143SAPE   C3815708   2.029   1.858   9.543  0.6671  0.1458 -0.4714
  143SAPE   H8X15709   2.006   1.751   9.528 -0.1963  0.3851 -0.8837
  143SAPE   H8Y15710   2.139   1.866   9.529  0.5531  1.2735 -0.7989
  143SAPE   C3915711   1.976   1.913   9.406 -0.1714 -0.5554 -0.1556
  143SAPE   H9X15712   2.019   2.013   9.382  3.1507 -1.3876  1.9730
  143SAPE   H9Y15713   1.866   1.930   9.414 -0.2233  0.1626 -1.9956
  143SAPE  C31015714   1.999   1.806   9.291  0.1289 -0.2152 -0.3090
  143SAPE  H10X15715   1.945   1.717   9.330 -0.0329  0.2459  0.5229
  143SAPE  H10Y15716   2.108   1.784   9.285 -0.0237 -1.3935  0.9330
  143SAPE  C31115717   1.948   1.850   9.152 -0.0863  0.0090 -0.1068
  143SAPE  H11X15718   1.987   1.777   9.077  0.3520 -4.3609  4.0744
  143SAPE  H11Y15719   1.988   1.952   9.135  1.9672 -1.1517 -2.5550
  143SAPE  C31215720   1.792   1.844   9.138  0.2649  0.0285  0.1438
  143SAPE  H12X15721   1.758   1.926   9.204 -0.6442 -0.7888  0.7133
  143SAPE  H12Y15722   1.772   1.741   9.176 -1.3091 -0.0331 -0.8017
  143SAPE  C31315723   1.740   1.863   8.998  0.3331 -0.4168  0.1645
  143SAPE  H13X15724   1.803   1.797   8.935 -1.2980 -2.0035  0.1845
  143SAPE  H13Y15725   1.773   1.964   8.964  1.2294 -0.7365  0.0603
  143SAPE  C31415726   1.590   1.836   8.985  0.0371 -0.4591 -0.7676
  143SAPE  H14X15727   1.529   1.910   9.040  0.1091  0.7183 -2.2445
  143SAPE  H14Y15728   1.578   1.731   9.019  0.8482 -0.9076 -1.8063
  143SAPE  C31515729   1.538   1.837   8.837 -0.4008  0.2179  0.5063
  143SAPE  H15X15730   1.434   1.800   8.833 -0.5330  0.7907 -2.1711
  143SAPE  H15Y15731   1.612   1.783   8.774 -0.3031  1.0238 -0.0781
  143SAPE  C31615732   1.534   1.983   8.781 -0.2727  0.2093 -0.7895
  143SAPE  H16X15733   1.623   2.042   8.812  1.5345 -1.4195 -2.7011
  143SAPE  H16Y15734   1.451   2.036   8.834 -0.0554  2.0617 -2.2318
  143SAPE  C31715735   1.524   1.990   8.628  0.0401 -0.1177  1.0555
  143SAPE  H17X15736   1.445   1.919   8.595  0.2495  1.2862 -2.6354
  143SAPE  H17Y15737   1.605   1.932   8.578 -0.5470  0.5244 -0.6692
  143SAPE  C31815738   1.525   2.132   8.572  0.3185  0.3370  0.3112
  143SAPE  H18X15739   1.528   2.125   8.461  0.7725  0.7092  0.2975
  143SAPE  H18Y15740   1.618   2.184   8.603  1.7718 -1.2295 -1.2506
  143SAPE  H18Z15741   1.435   2.186   8.608  0.4618  0.1106  1.0025
  144SAPE     N15742   4.804   6.781  11.028 -0.3511  0.3680 -0.4459
  144SAPE   HN115743   4.890   6.780  11.086  0.5226  1.0075 -1.7021
  144SAPE   HN215744   4.759   6.874  11.046  0.9368  0.9556 -0.1990
  144SAPE   HN315745   4.736   6.706  11.053 -0.7383  0.5788 -0.8671
  144SAPE   C1215746   4.843   6.771  10.880 -0.2469 -0.0556 -0.1458
  144SAPE  H12A15747   4.867   6.663  10.866  1.5021  0.2050  0.6688
  144SAPE  H12B15748   4.938   6.829  10.882 -0.6072  0.5003  1.9237
  144SAPE   C1115749   4.725   6.825  10.795  0.3246  0.4752  0.5728
  144SAPE  H11A15750   4.635   6.764  10.820 -0.3633  1.3070  0.1502
  144SAPE  H11B15751   4.734   6.814  10.685  0.7897 -1.6605  0.8059
  144SAPE     P15752   4.767   7.075  10.763  0.1606  0.0633  0.1653
  144SAPE   O1315753   4.704   7.203  10.800 -0.4412  0.3065 -0.4604
  144SAPE   O1415754   4.908   7.068  10.795 -0.1235  0.0841 -0.3759
  144SAPE   O1215755   4.691   6.958  10.827 -0.6512 -0.2011 -0.3751
  144SAPE   O1115756   4.752   7.058  10.608  0.1539  0.0417  0.3290
  144SAPE    C115757   4.615   7.051  10.558 -0.5083 -0.3325  0.3209
  144SAPE    HA15758   4.555   6.991  10.630  0.2814 -0.4618  0.8811
  144SAPE    HB15759   4.582   7.155  10.536  3.3061  0.5253 -1.7321
  144SAPE    C215760   4.601   6.967  10.432  0.1444  0.5393  0.0456
  144SAPE    HS15761   4.629   6.862  10.453  1.6538  1.1225  1.0491
  144SAPE   O2115762   4.693   7.007  10.331 -0.3643 -1.1383 -0.1067
  144SAPE   C2115763   4.682   7.115  10.264 -0.1989  0.7948  0.8593
  144SAPE   O2215764   4.589   7.195  10.262 -0.3587  0.0655  0.1269
  144SAPE   C2215765   4.803   7.141  10.179  0.3740  0.1704  0.3368
  144SAPE   H2R15766   4.811   7.250  10.160 -0.4975  0.6624  2.5717
  144SAPE   H2S15767   4.881   7.108  10.251 -1.0560 -1.9231  0.9712
  144SAPE    C315768   4.454   6.967  10.387  1.0269  0.1764 -0.1724
  144SAPE    HX15769   4.424   7.074  10.390 -2.0754 -0.6619  0.0822
  144SAPE    HY15770   4.390   6.922  10.466  0.5658  1.0978 -0.0127
  144SAPE   O3115771   4.431   6.926  10.249 -0.4731  0.4375  0.2552
  144SAPE   C3115772   4.439   6.799  10.226 -0.3352  0.2476 -0.0368
  144SAPE   O3215773   4.474   6.710  10.296  0.4605 -0.1330 -0.5286
  144SAPE   C3215774   4.376   6.772  10.091 -0.1569  0.7343 -0.4658
  144SAPE   H2X15775   4.296   6.846  10.065 -1.0192 -0.0918 -0.1908
  144SAPE   H2Y15776   4.323   6.675  10.097  0.1979  0.5996  0.5993
  144SAPE   C2315777   4.819   7.064  10.043  0.3900  1.0211 -0.0121
  144SAPE   H3R15778   4.782   6.961  10.057  0.4788  1.2224  1.8231
  144SAPE   H3S15779   4.929   7.055  10.026 -0.1214  0.7237 -3.6144
  144SAPE   C2415780   4.750   7.130   9.926  0.9011 -0.5027  0.1185
  144SAPE   H4R15781   4.777   7.238   9.921  3.2210 -1.1227 -1.7987
  144SAPE   H4S15782   4.644   7.117   9.957  1.0108 -0.9199  0.3223
  144SAPE   C2515783   4.775   7.056   9.795  0.1490 -0.4581 -0.3184
  144SAPE   H5R15784   4.854   6.982   9.817 -0.5718 -1.1335  0.0261
  144SAPE   C2615785   4.750   7.068   9.665  0.9028 -0.1631  0.1892
  144SAPE   H6R15786   4.795   6.992   9.599  0.7279  0.0329 -0.1604
  144SAPE   C2715787   4.657   7.171   9.599  0.0048 -0.2041 -0.1419
  144SAPE   H7R15788   4.579   7.199   9.674 -1.2828 -2.9588 -0.3919
  144SAPE   H7S15789   4.604   7.119   9.516 -0.5132  0.8559 -0.4861
  144SAPE   C2815790   4.732   7.296   9.560 -0.2339 -0.8973  0.5403
  144SAPE   H8R15791   4.736   7.371   9.640 -0.0423 -0.3068 -0.0171
  144SAPE   C2915792   4.769   7.322   9.435  0.3738  0.4041 -0.0307
  144SAPE   H9R15793   4.812   7.420   9.409 -0.7449  0.7918 -0.4673
  144SAPE  C21015794   4.742   7.228   9.310 -0.1370 -0.2569 -0.2256
  144SAPE  H10R15795   4.638   7.225   9.271  0.0470  1.1487 -0.8543
  144SAPE  H10S15796   4.759   7.121   9.336 -0.9416 -0.2922  0.1613
  144SAPE  C21115797   4.833   7.246   9.190 -0.4805 -0.3796 -0.4561
  144SAPE  H11R15798   4.935   7.207   9.203  1.3384  4.8394  2.1184
  144SAPE  C21215799   4.807   7.329   9.089  0.0933 -0.2000  0.1137
  144SAPE  H12R15800   4.876   7.333   9.004 -3.0373  3.3546 -2.3921
  144SAPE  C21315801   4.686   7.407   9.062  0.5710 -0.0368  0.3285
  144SAPE  H13R15802   4.708   7.495   8.999 -0.5871  0.9422  1.2608
  144SAPE  H13S15803   4.653   7.464   9.151  0.0687 -1.0481  0.8005
  144SAPE  C21415804   4.562   7.338   9.007 -0.4304 -0.3879 -0.3573
  144SAPE  H14R15805   4.494   7.304   9.086 -1.0037  1.9106  0.1896
  144SAPE  C21515806   4.539   7.321   8.879  0.5463 -0.0573  0.5520
  144SAPE  H15R15807   4.438   7.290   8.847  0.3178 -0.8424  2.0046
  144SAPE  C21615808   4.630   7.376   8.768 -0.2115  0.4494 -0.0385
  144SAPE  H16R15809   4.727   7.413   8.807 -0.6140  2.3821 -0.7771
  144SAPE  H16S15810   4.578   7.463   8.723 -1.7244  0.3520  1.4651
  144SAPE  C21715811   4.669   7.269   8.656  0.3896  0.4429  0.2353
  144SAPE  H17R15812   4.576   7.224   8.614 -0.2691  0.3168  1.8000
  144SAPE  H17S15813   4.736   7.194   8.704  1.9922  1.6433 -0.1035
  144SAPE  C21815814   4.749   7.340   8.538  0.2118 -0.2476 -0.1451
  144SAPE  H18R15815   4.856   7.362   8.556  0.4183 -1.3121 -0.0599
  144SAPE  H18S15816   4.700   7.439   8.526 -1.8488 -1.1763  0.2870
  144SAPE  C21915817   4.728   7.271   8.397  0.6335  0.4160  0.4200
  144SAPE  H19R15818   4.777   7.343   8.330  1.7813 -2.6933 -2.2299
  144SAPE  H19S15819   4.619   7.265   8.377  0.5189 -1.3229  1.4197
  144SAPE  C22015820   4.786   7.133   8.378  0.4263  0.0529 -0.4082
  144SAPE  H20R15821   4.890   7.124   8.416  0.7217 -1.2531 -1.4901
  144SAPE  H20S15822   4.801   7.110   8.270  1.9422  0.7942 -0.3683
  144SAPE  H20T15823   4.717   7.066   8.433 -1.0827  1.9342  0.0787
  144SAPE   C3315824   4.464   6.766   9.963  0.1014  0.4027 -0.7194
  144SAPE   H3X15825   4.555   6.705   9.982 -0.9200 -1.0368 -0.3946
  144SAPE   H3Y15826   4.506   6.866   9.938 -1.9958  1.1743 -1.2427
  144SAPE   C3415827   4.386   6.714   9.843  0.5592 -0.0296  0.0037
  144SAPE   H4X15828   4.290   6.770   9.841  0.9415  0.6004 -0.9833
  144SAPE   H4Y15829   4.353   6.608   9.851  4.2683 -1.3867 -1.3239
  144SAPE   C3515830   4.466   6.725   9.711  0.4144 -0.0242 -0.1183
  144SAPE   H5X15831   4.566   6.678   9.725  1.1587  1.3803 -0.6874
  144SAPE   H5Y15832   4.492   6.832   9.697 -0.3986 -0.1303 -2.5775
  144SAPE   C3615833   4.388   6.684   9.584  0.3299 -0.1905 -0.4687
  144SAPE   H6X15834   4.290   6.735   9.579 -0.5841 -1.7667  1.2113
  144SAPE   H6Y15835   4.358   6.579   9.602 -0.3508  0.0143 -0.3960
  144SAPE   C3715836   4.468   6.714   9.453 -0.2821  0.0324 -0.6457
  144SAPE   H7X15837   4.566   6.661   9.459  0.6869  1.8776  0.4437
  144SAPE   H7Y15838   4.480   6.824   9.456 -2.0853  0.2261  0.2565
  144SAPE   C3815839   4.402   6.673   9.322  0.0280 -0.2194 -0.1520
  144SAPE   H8X15840   4.305   6.724   9.306  0.0443 -0.2925 -0.4956
  144SAPE   H8Y15841   4.390   6.563   9.333  3.3865 -0.5678  0.5967
  144SAPE   C3915842   4.500   6.700   9.202 -0.2068  0.2616 -0.0972
  144SAPE   H9X15843   4.590   6.635   9.208  0.4505  1.1668  0.0668
  144SAPE   H9Y15844   4.538   6.804   9.213  0.0151  0.0255  1.4559
  144SAPE  C31015845   4.440   6.656   9.072 -0.1503 -0.2098  0.8277
  144SAPE  H10X15846   4.393   6.556   9.082 -3.6446  1.1480 -0.9887
  144SAPE  H10Y15847   4.519   6.643   8.996 -1.7706 -0.8867 -0.7921
  144SAPE  C31115848   4.345   6.766   9.013 -0.1856 -0.2834  0.3567
  144SAPE  H11X15849   4.401   6.862   9.020 -0.7466  0.0948 -0.3446
  144SAPE  H11Y15850   4.257   6.763   9.081 -0.8889 -1.1671 -0.5805
  144SAPE  C31215851   4.309   6.742   8.863  0.6135 -0.0368 -0.4003
  144SAPE  H12X15852   4.260   6.642   8.862 -2.5764  1.4526 -1.1096
  144SAPE  H12Y15853   4.401   6.734   8.801  0.7509 -1.7351 -0.0079
  144SAPE  C31315854   4.228   6.859   8.802 -0.8065  0.3386 -0.3115
  144SAPE  H13X15855   4.262   6.954   8.847 -2.0254  2.1061 -2.9974
  144SAPE  H13Y15856   4.124   6.848   8.839 -0.8981  1.2075 -0.2939
  144SAPE  C31415857   4.242   6.885   8.659 -0.0135  0.2839  0.0814
  144SAPE  H14X15858   4.202   6.788   8.623  0.8195  0.4031 -1.2089
  144SAPE  H14Y15859   4.351   6.894   8.636  0.2970 -0.0078  1.4360
  144SAPE  C31515860   4.144   6.990   8.612  0.3052 -0.4561 -0.0474
  144SAPE  H15X15861   4.042   6.970   8.649  0.6060  0.2885  1.2124
  144SAPE  H15Y15862   4.139   6.982   8.501 -2.1171 -0.2135  0.0266
  144SAPE  C31615863   4.186   7.134   8.651  0.1489 -0.3745  0.1062
  144SAPE  H16X15864   4.221   7.145   8.756 -2.0359 -0.7888  0.8999
  144SAPE  H16Y15865   4.090   7.189   8.651 -0.5095 -1.4261 -2.7305
  144SAPE  C31715866   4.292   7.197   8.558  0.0090  0.2380 -0.4496
  144SAPE  H17X15867   4.375   7.125   8.540 -0.7581 -1.2909  1.8081
  144SAPE  H17Y15868   4.333   7.287   8.608 -0.6774  1.3806 -1.9404
  144SAPE  C31815869   4.223   7.246   8.429  0.1699 -0.6476 -0.5107
  144SAPE  H18X15870   4.297   7.292   8.359  0.4284 -0.8758 -0.3900
  144SAPE  H18Y15871   4.146   7.324   8.446  0.1703 -0.4441 -1.4026
  144SAPE  H18Z15872   4.181   7.158   8.376 -1.2359 -0.7331  0.7150
  145SAPE     N15873   1.640   1.170  11.200  0.1442  0.4215  0.0455
  145SAPE   HN115874   1.612   1.127  11.110  1.1853  0.6486 -0.3951
  145SAPE   HN215875   1.581   1.131  11.276 -0.5293  1.2290 -0.0657
  145SAPE   HN315876   1.628   1.273  11.195  2.6244  0.8861  2.2771
  145SAPE   C1215877   1.783   1.130  11.217 -1.0196  0.3640 -0.1780
  145SAPE  H12A15878   1.837   1.184  11.137  1.9806  1.8608  2.7148
  145SAPE  H12B15879   1.799   1.020  11.208 -0.3781  0.2886  1.5974
  145SAPE   C1115880   1.841   1.179  11.351  0.3697  0.3402  0.8583
  145SAPE  H11A15881   1.948   1.147  11.350  0.2800  0.0603  0.4304
  145SAPE  H11B15882   1.794   1.124  11.435 -1.2916  2.4197  1.3325
  145SAPE     P15883   1.890   1.445  11.330 -0.3629  0.0784 -0.5706
  145SAPE   O1315884   1.807   1.521  11.238 -0.3337 -0.0876 -0.1656
  145SAPE   O1415885   1.949   1.525  11.438  0.1917  0.5902 -0.8531
  145SAPE   O1215886   1.809   1.319  11.374 -0.3887  0.3488  0.3478
  145SAPE   O1115887   2.017   1.373  11.260 -0.4384  0.6455 -0.5797
  145SAPE    C115888   2.073   1.442  11.150 -0.3608  0.3671 -0.2332
  145SAPE    HA15889   2.029   1.539  11.122  2.3287  1.9465  0.8035
  145SAPE    HB15890   2.178   1.461  11.181 -0.2770 -0.5114  0.0604
  145SAPE    C215891   2.071   1.357  11.018 -0.1255 -0.0307 -0.8370
  145SAPE    HS15892   2.134   1.415  10.947 -1.4871 -0.7684 -2.6834
  145SAPE   O2115893   1.938   1.336  10.976  0.2036 -0.2185  0.2603
  145SAPE   C2115894   1.883   1.436  10.918 -0.3722  1.0724  0.5514
  145SAPE   O2215895   1.942   1.537  10.887 -0.2976 -0.0382  0.3588
  145SAPE   C2215896   1.752   1.388  10.860  0.0153 -0.8925  0.2908
  145SAPE   H2R15897   1.694   1.351  10.947  0.7926  1.2388  1.7475
  145SAPE   H2S15898   1.717   1.479  10.808  1.2090  0.1365  1.2695
  145SAPE    C315899   2.136   1.217  11.046  0.4709 -0.5156  0.2321
  145SAPE    HX15900   2.065   1.161  11.111 -0.8392  0.5203 -0.2951
  145SAPE    HY15901   2.232   1.222  11.102  0.2739  0.6930  0.4795
  145SAPE   O3115902   2.156   1.147  10.921 -0.5532 -0.7388  0.4625
  145SAPE   C3115903   2.278   1.158  10.868 -0.1357  0.4013 -0.2171
  145SAPE   O3215904   2.372   1.220  10.913  0.0680  0.0679  0.2632
  145SAPE   C3215905   2.299   1.062  10.745 -0.6310  0.4552  0.2066
  145SAPE   H2X15906   2.238   0.971  10.763 -1.2298  0.9981  1.0008
  145SAPE   H2Y15907   2.405   1.034  10.733 -0.5137 -0.3177  2.7128
  145SAPE   C2315908   1.761   1.275  10.749  0.0073 -0.5208 -1.1999
  145SAPE   H3R15909   1.659   1.235  10.729  0.3554 -1.2401 -1.5730
  145SAPE   H3S15910   1.824   1.195  10.794 -0.9628 -0.9751 -0.6358
  145SAPE   C2415911   1.820   1.307  10.619  0.6084 -0.2064 -0.5349
  145SAPE   H4R15912   1.923   1.345  10.638  0.2840  0.4607 -0.1141
  145SAPE   H4S15913   1.756   1.389  10.579 -2.1451 -2.0843 -0.1216
  145SAPE   C2515914   1.846   1.189  10.531 -0.2700  0.3901 -0.4604
  145SAPE   H5R15915   1.904   1.107  10.577  1.1822  0.2120 -2.5519
  145SAPE   C2615916   1.816   1.182  10.399  0.2399  0.7887 -0.7573
  145SAPE   H6R15917   1.842   1.094  10.338  0.6727 -1.1226  2.0742
  145SAPE   C2715918   1.755   1.285  10.307  0.6620 -0.1115  0.0269
  145SAPE   H7R15919   1.712   1.372  10.362  0.5374 -1.2136  1.7149
  145SAPE   H7S15920   1.672   1.241  10.248 -0.5946 -1.1028  2.4745
  145SAPE   C2815921   1.859   1.329  10.201  0.2705  0.7379  0.0032
  145SAPE   H8R15922   1.962   1.289  10.201 -1.4126 -3.9709 -3.4532
  145SAPE   C2915923   1.826   1.389  10.086 -0.2767 -0.1450  0.2529
  145SAPE   H9R15924   1.903   1.402  10.008  1.6285  0.2304  2.1604
  145SAPE  C21015925   1.687   1.422  10.033  0.6852 -0.6402  0.0384
  145SAPE  H10R15926   1.609   1.408  10.111 -0.1302 -0.8151 -0.8076
  145SAPE  H10S15927   1.658   1.355   9.949 -1.2323  0.6400 -0.3350
  145SAPE  C21115928   1.680   1.569   9.989 -0.6953  0.1523  0.0699
  145SAPE  H11R15929   1.625   1.641  10.051 -1.3010  1.0980 -1.5419
  145SAPE  C21215930   1.715   1.626   9.871  0.0437  0.1469 -0.4223
  145SAPE  H12R15931   1.689   1.732   9.860 -4.6702 -0.8247  0.1249
  145SAPE  C21315932   1.779   1.561   9.750  0.1657 -0.0899 -0.1757
  145SAPE  H13R15933   1.781   1.450   9.757 -0.1790 -0.1956 -1.4747
  145SAPE  H13S15934   1.888   1.579   9.751  0.1640 -0.0637 -0.3982
  145SAPE  C21415935   1.744   1.609   9.612 -0.1736 -0.0095 -0.7301
  145SAPE  H14R15936   1.745   1.719   9.601 -2.6743  0.1182  0.1053
  145SAPE  C21515937   1.725   1.538   9.501 -0.1965 -0.6306 -0.6665
  145SAPE  H15R15938   1.721   1.598   9.409 -3.8856  1.3780  0.7060
  145SAPE  C21615939   1.726   1.391   9.480  0.5661  0.6025 -0.0460
  145SAPE  H16R15940   1.661   1.345   9.558  0.7612  1.4804  0.6335
  145SAPE  H16S15941   1.830   1.352   9.489  0.6127  0.3477 -1.6021
  145SAPE  C21715942   1.673   1.337   9.344 -0.1570 -0.5376  0.6316
  145SAPE  H17R15943   1.571   1.381   9.334 -0.0547 -0.2901  0.6851
  145SAPE  H17S15944   1.664   1.227   9.357  1.3036 -0.9856 -1.7779
  145SAPE  C21815945   1.771   1.364   9.233 -0.1775 -0.1536  0.2639
  145SAPE  H18R15946   1.868   1.312   9.249  0.2329  0.8323  1.0320
  145SAPE  H18S15947   1.791   1.474   9.234 -0.5453 -0.0810 -0.1628
  145SAPE  C21915948   1.710   1.318   9.098  0.1351  0.1633  0.3558
  145SAPE  H19R15949   1.660   1.219   9.107 -3.4449  1.6438 -1.9838
  145SAPE  H19S15950   1.797   1.321   9.031  0.4545 -2.9497  0.5680
  145SAPE  C22015951   1.595   1.409   9.045 -0.2950  0.3970 -0.4330
  145SAPE  H20R15952   1.509   1.419   9.114  0.8094  3.0677  0.6136
  145SAPE  H20S15953   1.568   1.377   8.942  0.1334 -1.7101  0.0865
  145SAPE  H20T15954   1.635   1.512   9.031 -0.9673  0.8958  1.2648
  145SAPE   C3315955   2.260   1.117  10.607 -0.0018 -0.2080  0.8259
  145SAPE   H3X15956   2.320   1.209  10.590  0.1352 -0.2135  1.2539
  145SAPE   H3Y15957   2.153   1.149  10.609 -0.1304 -0.6577  1.3978
  145SAPE   C3415958   2.277   1.010  10.492  0.1089  0.2975 -0.0356
  145SAPE   H4X15959   2.222   0.919  10.525  1.2766 -1.0381 -1.6827
  145SAPE   H4Y15960   2.385   0.984  10.489 -0.1063 -0.4259 -1.9927
  145SAPE   C3515961   2.228   1.058  10.361 -0.0721 -0.7450 -0.1723
  145SAPE   H5X15962   2.304   1.133  10.333 -0.5543 -0.0528  0.3632
  145SAPE   H5Y15963   2.130   1.108  10.375 -0.1099 -1.4199  2.1835
  145SAPE   C3615964   2.219   0.961  10.246 -0.6922  0.4408  0.6889
  145SAPE   H6X15965   2.153   0.880  10.285  0.7783 -1.4110 -0.6117
  145SAPE   H6Y15966   2.325   0.929  10.247 -0.0321  2.5237  2.5427
  145SAPE   C3715967   2.166   1.015  10.111  0.1806 -0.3693  0.8269
  145SAPE   H7X15968   2.237   1.092  10.076  2.0557 -1.3202  2.4666
  145SAPE   H7Y15969   2.072   1.068  10.135  0.4753 -0.4444  2.1836
  145SAPE   C3815970   2.164   0.917   9.993  0.1380  0.1791 -0.9313
  145SAPE   H8X15971   2.070   0.858   9.998 -0.3051  1.0150  1.0813
  145SAPE   H8Y15972   2.247   0.844  10.000 -1.7411 -1.7579  1.8298
  145SAPE   C3915973   2.158   0.994   9.854 -0.1381 -0.2165 -0.9735
  145SAPE   H9X15974   2.257   1.035   9.826  2.3364 -2.4382  3.7744
  145SAPE   H9Y15975   2.071   1.064   9.855 -0.1211 -0.1046 -3.7142
  145SAPE  C31015976   2.133   0.903   9.738  0.3147  0.5783  0.7510
  145SAPE  H10X15977   2.040   0.843   9.750  0.1057  0.5857 -0.7777
  145SAPE  H10Y15978   2.208   0.822   9.725 -0.7530 -0.1292 -1.2643
  145SAPE  C31115979   2.099   0.976   9.603  0.5946 -1.1105  0.4954
  145SAPE  H11X15980   2.186   1.032   9.563  0.7571 -1.1081  0.8487
  145SAPE  H11Y15981   2.012   1.042   9.626 -0.0689 -2.5396  2.1976
  145SAPE  C31215982   2.046   0.887   9.489 -0.0107  0.2316 -0.2595
  145SAPE  H12X15983   1.974   0.809   9.522  1.0960 -0.7879 -0.2358
  145SAPE  H12Y15984   2.137   0.846   9.441  1.2852  1.1580  1.3578
  145SAPE  C31315985   1.971   0.970   9.379  0.6262 -0.4107  0.0002
  145SAPE  H13X15986   2.040   1.009   9.302  0.2394 -1.4714 -0.9046
  145SAPE  H13Y15987   1.914   1.055   9.421 -1.5571 -1.9916  0.3556
  145SAPE  C31415988   1.870   0.878   9.308 -0.1435 -0.7950 -0.1813
  145SAPE  H14X15989   1.793   0.836   9.376  1.0538  0.5194  2.0566
  145SAPE  H14Y15990   1.916   0.783   9.274  2.2774 -0.0410  0.8448
  145SAPE  C31515991   1.801   0.931   9.186  0.1480 -0.5687  0.0455
  145SAPE  H15X15992   1.869   0.993   9.123  0.7183 -1.1206  0.1205
  145SAPE  H15Y15993   1.719   0.997   9.220  1.1971  0.2673  1.0095
  145SAPE  C31615994   1.742   0.813   9.105 -0.1862  0.5232 -0.1501
  145SAPE  H16X15995   1.657   0.778   9.167 -0.6215  1.6103 -0.1295
  145SAPE  H16Y15996   1.811   0.727   9.088 -1.5088 -1.2086  2.8652
  145SAPE  C31715997   1.671   0.853   8.968  0.7312  0.1916 -0.1230
  145SAPE  H17X15998   1.752   0.904   8.911  2.0136 -2.0439 -0.3697
  145SAPE  H17Y15999   1.601   0.934   8.999 -0.2029 -1.8529  3.4563
  145SAPE  C31816000   1.599   0.746   8.892 -0.4181 -0.2490 -0.0873
  145SAPE  H18X16001   1.512   0.705   8.947  0.3827  0.4844  1.7748
  145SAPE  H18Y16002   1.669   0.659   8.888  0.0363 -0.0145  2.1619
  145SAPE  H18Z16003   1.578   0.777   8.787 -2.3849 -1.5715 -0.1059
  146SAPE     N16004   5.176   0.124  10.771 -0.1892 -0.0698  0.2462
  146SAPE   HN116005   5.200   0.026  10.795 -2.1895 -0.2279  1.7020
  146SAPE   HN216006   5.073   0.135  10.779 -0.2738 -1.4353  1.2201
  146SAPE   HN316007   5.188   0.132  10.668  0.1101 -1.0162  0.2038
  146SAPE   C1216008   5.255   0.224  10.851 -0.0156  0.0751  0.2678
  146SAPE  H12A16009   5.217   0.219  10.956  1.3845  0.4076  0.8033
  146SAPE  H12B16010   5.216   0.322  10.818  1.2417 -0.3929 -2.7420
  146SAPE   C1116011   5.416   0.222  10.836  0.5169  0.1011  0.4237
  146SAPE  H11A16012   5.466   0.308  10.884  2.6341  0.8995 -3.0299
  146SAPE  H11B16013   5.438   0.230  10.727 -2.0433 -0.0046 -0.1300
  146SAPE     P16014   5.566   0.096  10.999 -0.2263 -0.0536 -0.0509
  146SAPE   O1316015   5.536   0.212  11.089  0.0739 -0.0304  0.1930
  146SAPE   O1416016   5.574  -0.038  11.067  0.8689 -0.3815  0.0343
  146SAPE   O1216017   5.473   0.100  10.877  0.2218 -0.1351  0.0983
  146SAPE   O1116018   5.702   0.122  10.936 -0.6703 -0.0947 -0.7480
  146SAPE    C116019   5.761  -0.003  10.886 -0.0567 -0.1654  0.0066
  146SAPE    HA16020   5.763  -0.089  10.957  1.0778  0.6187  0.9354
  146SAPE    HB16021   5.701  -0.041  10.801 -0.4821  2.2229 -0.8078
  146SAPE    C216022   5.900   0.018  10.826 -0.1349 -0.1158  0.2374
  146SAPE    HS16023   5.969   0.047  10.908  0.4157 -2.0554  0.4665
  146SAPE   O2116024   5.900   0.119  10.715  0.5027  0.8088  0.6068
  146SAPE   C2116025   6.007   0.197  10.718 -0.3631 -0.0709  0.5638
  146SAPE   O2216026   6.091   0.206  10.802  0.0857  0.4449 -0.4239
  146SAPE   C2216027   6.004   0.266  10.583  0.5355  0.3058  0.3731
  146SAPE   H2R16028   5.962   0.200  10.504 -1.1744  2.2332 -0.3847
  146SAPE   H2S16029   5.934   0.351  10.600  0.1581  0.1945 -0.5604
  146SAPE    C316030   5.958  -0.123  10.777 -0.5318  0.0849  0.6274
  146SAPE    HX16031   5.874  -0.188  10.746  0.4352 -1.3786  1.0198
  146SAPE    HY16032   6.000  -0.162  10.872 -2.3908 -0.3541  1.2894
  146SAPE   O3116033   6.058  -0.128  10.676 -0.0796  0.0775 -0.2338
  146SAPE   C3116034   6.139  -0.230  10.670 -0.0597 -0.0027  0.3500
  146SAPE   O3216035   6.120  -0.336  10.726 -0.9932  0.1721 -0.4185
  146SAPE   C3216036   6.248  -0.199  10.569 -0.0715 -0.5753 -0.0955
  146SAPE   H2X16037   6.339  -0.253  10.602 -0.2738 -0.7145  0.2370
  146SAPE   H2Y16038   6.260  -0.089  10.569 -0.1556 -0.5509  1.5919
  146SAPE   C2316039   6.145   0.313  10.537  0.5592 -0.8177  0.4745
  146SAPE   H3R16040   6.186   0.370  10.624  0.7293 -1.8715  1.1022
  146SAPE   H3S16041   6.130   0.387  10.456  1.7823 -0.1492  0.8398
  146SAPE   C2416042   6.231   0.201  10.490 -0.0886 -0.0088 -0.1943
  146SAPE   H4R16043   6.229   0.127  10.573 -1.4168 -1.3039 -1.3547
  146SAPE   H4S16044   6.337   0.228  10.468 -0.3328  1.1500  0.0157
  146SAPE   C2516045   6.176   0.124  10.376 -0.9804  0.9111 -0.3353
  146SAPE   H5R16046   6.086   0.065  10.398  0.3891 -1.1175 -0.0881
  146SAPE   C2616047   6.217   0.129  10.244 -0.8508  0.8317  0.1723
  146SAPE   H6R16048   6.146   0.071  10.183  0.6948 -0.2391 -0.6287
  146SAPE   C2716049   6.334   0.208  10.188 -0.2572  0.1251 -0.4021
  146SAPE   H7R16050   6.422   0.143  10.211 -1.2930 -0.9615  0.5813
  146SAPE   H7S16051   6.356   0.306  10.236 -1.0558  0.0762  0.0780
  146SAPE   C2816052   6.322   0.225  10.040  0.1966 -0.1012  0.0089
  146SAPE   H8R16053   6.248   0.163   9.987  1.9283 -2.6404  0.4589
  146SAPE   C2916054   6.413   0.292   9.964 -0.1949  0.0645 -0.1135
  146SAPE   H9R16055   6.398   0.291   9.855  1.4769  0.6820 -0.3661
  146SAPE  C21016056   6.533   0.373  10.015 -0.6915  0.0677 -0.4034
  146SAPE  H10R16057   6.497   0.447  10.089 -1.6885 -1.4953  0.7008
  146SAPE  H10S16058   6.570   0.432   9.929  4.4917  0.5568  1.9979
  146SAPE  C21116059   6.639   0.288  10.081  0.0516  0.0480 -0.2709
  146SAPE  H11R16060   6.671   0.196  10.030  0.7864 -0.4481  1.0389
  146SAPE  C21216061   6.705   0.326  10.194  0.6563  0.5410 -0.3443
  146SAPE  H12R16062   6.778   0.258  10.240  0.0743 -0.6375 -1.1426
  146SAPE  C21316063   6.677   0.444  10.284 -0.0389 -0.1193  0.4039
  146SAPE  H13R16064   6.725   0.424  10.382 -0.4362 -0.1135  0.6000
  146SAPE  H13S16065   6.568   0.442  10.303 -0.3578  1.0138 -1.1876
  146SAPE  C21416066   6.723   0.583  10.223 -0.1677  0.6085  0.0494
  146SAPE  H14R16067   6.697   0.600  10.118  0.0707 -0.0777 -0.1262
  146SAPE  C21516068   6.785   0.680  10.300 -0.2192  0.8633  0.3078
  146SAPE  H15R16069   6.806   0.774  10.246 -2.9043  0.3774 -1.7012
  146SAPE  C21616070   6.826   0.674  10.444 -0.0333  0.2100 -0.6993
  146SAPE  H16R16071   6.869   0.579  10.484  0.1765 -0.3232 -2.1573
  146SAPE  H16S16072   6.734   0.699  10.501  0.6775 -0.8365  0.9305
  146SAPE  C21716073   6.931   0.781  10.479 -0.0124 -0.0696 -0.0846
  146SAPE  H17R16074   7.012   0.767  10.404 -0.4624 -1.4092 -0.3273
  146SAPE  H17S16075   6.983   0.763  10.575 -1.9742 -1.9220  0.6642
  146SAPE  C21816076   6.883   0.920  10.484  0.1248  0.3485  0.3996
  146SAPE  H18R16077   6.787   0.913  10.539 -0.3205  0.8074 -0.3195
  146SAPE  H18S16078   6.861   0.966  10.385 -2.0372 -1.3974  0.0321
  146SAPE  C21916079   6.980   1.015  10.558  0.2546  0.2467 -0.1603
  146SAPE  H19R16080   7.076   1.016  10.501  0.4650 -1.5906  0.1476
  146SAPE  H19S16081   6.995   0.960  10.653  0.1620  0.1557 -0.2001
  146SAPE  C22016082   6.930   1.153  10.592 -0.2623  0.1305  1.0059
  146SAPE  H20R16083   7.010   1.203  10.651  0.4258 -2.3102  2.1924
  146SAPE  H20S16084   6.847   1.150  10.665  1.6327 -3.2820  3.1406
  146SAPE  H20T16085   6.916   1.225  10.508  1.5195 -1.2900 -0.5443
  146SAPE   C3316086   6.208  -0.243  10.423 -0.0066  0.0131 -0.2178
  146SAPE   H3X16087   6.283  -0.191  10.360 -0.0802 -0.6808 -0.8783
  146SAPE   H3Y16088   6.104  -0.216  10.395  0.7488  1.5406 -1.6699
  146SAPE   C3416089   6.229  -0.395  10.409  0.4956  0.3848  0.0793
  146SAPE   H4X16090   6.175  -0.445  10.492  1.3735 -2.7433 -1.1942
  146SAPE   H4Y16091   6.333  -0.432  10.421 -0.0116 -1.1264 -0.0983
  146SAPE   C3516092   6.168  -0.456  10.280 -0.0786  0.4731 -0.2112
  146SAPE   H5X16093   6.063  -0.419  10.276 -0.2922  0.0661  1.3541
  146SAPE   H5Y16094   6.152  -0.563  10.303  0.9793  0.4597  0.4818
  146SAPE   C3616095   6.245  -0.431  10.154  0.0302 -0.2178  0.9327
  146SAPE   H6X16096   6.190  -0.477  10.069  1.9566  0.5307 -0.7862
  146SAPE   H6Y16097   6.344  -0.479  10.139  0.0112  0.5201 -1.8882
  146SAPE   C3716098   6.257  -0.280  10.111  0.0098 -0.2310  0.1952
  146SAPE   H7X16099   6.340  -0.226  10.163  0.8560  1.0020 -2.3169
  146SAPE   H7Y16100   6.160  -0.231  10.132 -0.8670 -1.2381 -1.4705
  146SAPE   C3816101   6.285  -0.272   9.961 -0.9642  0.7666  0.4717
  146SAPE   H8X16102   6.219  -0.345   9.909 -0.6610  0.5139  0.4432
  146SAPE   H8Y16103   6.389  -0.310   9.951 -1.2579 -0.0061  0.3427
  146SAPE   C3916104   6.287  -0.125   9.906 -0.3781  1.7143 -0.1761
  146SAPE   H9X16105   6.365  -0.057   9.948 -0.1125 -0.4623  3.0598
  146SAPE   H9Y16106   6.196  -0.075   9.945 -1.6924 -1.6590  1.3206
  146SAPE  C31016107   6.295  -0.129   9.752 -0.5091  0.0511  0.0990
  146SAPE  H10X16108   6.198  -0.162   9.709 -1.4372 -0.3032  2.4076
  146SAPE  H10Y16109   6.385  -0.185   9.719 -0.5722  0.4175 -0.7072
  146SAPE  C31116110   6.333   0.012   9.690 -0.3366 -0.1343  0.0336
  146SAPE  H11X16111   6.412   0.054   9.756 -1.7727  3.6973 -0.5959
  146SAPE  H11Y16112   6.245   0.079   9.691  0.2780  0.6925  1.7741
  146SAPE  C31216113   6.388   0.004   9.541  0.6257  0.0585  0.9205
  146SAPE  H12X16114   6.464  -0.076   9.534  0.9404  0.5872 -2.7222
  146SAPE  H12Y16115   6.443   0.097   9.513  2.3853 -1.4963 -0.9555
  146SAPE  C31316116   6.277  -0.027   9.433  0.5000 -0.2222 -0.9038
  146SAPE  H13X16117   6.192   0.042   9.455 -0.7986 -1.5163 -1.7467
  146SAPE  H13Y16118   6.234  -0.128   9.452 -0.0884  0.0164 -0.9386
  146SAPE  C31416119   6.338  -0.010   9.297  0.1574 -0.2580  0.2224
  146SAPE  H14X16120   6.425  -0.078   9.282  1.9644  2.2330 -1.0386
  146SAPE  H14Y16121   6.364   0.098   9.292  0.7641 -0.4481 -0.9067
  146SAPE  C31516122   6.242  -0.034   9.178 -0.5471  0.3797  0.4618
  146SAPE  H15X16123   6.162   0.042   9.166 -1.1515 -0.6525 -2.2404
  146SAPE  H15Y16124   6.179  -0.122   9.203 -0.7034  0.6441  1.0184
  146SAPE  C31616125   6.305  -0.058   9.040 -0.7234 -0.3662 -0.4893
  146SAPE  H16X16126   6.370  -0.145   9.064 -1.5056 -1.0610 -0.8650
  146SAPE  H16Y16127   6.372   0.028   9.022 -0.1799 -1.0570 -1.8409
  146SAPE  C31716128   6.215  -0.083   8.932 -0.3568  0.4377  0.5797
  146SAPE  H17X16129   6.154   0.006   8.908  1.3715  1.5105  0.1357
  146SAPE  H17Y16130   6.147  -0.169   8.950 -0.7604  0.2989 -1.5636
  146SAPE  C31816131   6.306  -0.111   8.810  0.8805  0.5089 -0.4257
  146SAPE  H18X16132   6.340  -0.216   8.811 -2.9088 -0.8599  4.4809
  146SAPE  H18Y16133   6.389  -0.037   8.802  3.0142 -1.7211  0.6395
  146SAPE  H18Z16134   6.251  -0.098   8.714 -0.4488 -2.1260 -0.0379
  147SAPE     N16135   2.611   4.698   6.157 -0.0342 -0.9796 -0.2929
  147SAPE   HN116136   2.708   4.673   6.127  0.1096 -0.2467 -0.4314
  147SAPE   HN216137   2.549   4.619   6.128 -0.7879 -0.8391  0.9209
  147SAPE   HN316138   2.585   4.780   6.099  2.3273 -0.6133 -0.9017
  147SAPE   C1216139   2.617   4.737   6.309  0.0043 -0.1005  0.3403
  147SAPE  H12A16140   2.708   4.801   6.312 -0.0338 -0.0844  1.2262
  147SAPE  H12B16141   2.631   4.647   6.373  1.2485 -0.9997 -1.1548
  147SAPE   C1116142   2.500   4.831   6.338  0.0851  0.2045 -0.0693
  147SAPE  H11A16143   2.513   4.870   6.442 -0.4605 -0.2317  0.1658
  147SAPE  H11B16144   2.418   4.756   6.342  0.7248 -0.5430 -0.9343
  147SAPE     P16145   2.571   5.049   6.215  0.1567 -0.0950 -0.0284
  147SAPE   O1316146   2.675   4.998   6.125  0.1089 -0.9628  0.3284
  147SAPE   O1416147   2.488   5.167   6.172  0.1347 -0.2677 -0.3045
  147SAPE   O1216148   2.477   4.929   6.239  0.0130  0.5934 -0.3444
  147SAPE   O1116149   2.633   5.079   6.350 -0.4390 -0.1596 -0.8248
  147SAPE    C116150   2.573   5.176   6.437  0.1282  0.5245  0.8634
  147SAPE    HA16151   2.595   5.274   6.389 -2.1008 -0.3707 -2.1710
  147SAPE    HB16152   2.466   5.157   6.461 -0.3636 -0.9378 -2.1572
  147SAPE    C216153   2.637   5.172   6.582 -0.4079  0.6743 -0.1981
  147SAPE    HS16154   2.742   5.205   6.566 -0.0569 -1.2647 -2.0919
  147SAPE   O2116155   2.627   5.041   6.629 -0.2263  0.7770 -0.3678
  147SAPE   C2116156   2.734   4.962   6.621 -0.5842  0.3003 -0.2617
  147SAPE   O2216157   2.834   4.994   6.557  0.4734  0.2354  0.2944
  147SAPE   C2216158   2.729   4.834   6.694 -0.5178  0.2744 -0.5477
  147SAPE   H2R16159   2.631   4.792   6.664 -1.1271  0.6096  0.9532
  147SAPE   H2S16160   2.812   4.776   6.647 -0.9250 -0.6009 -0.1971
  147SAPE    C316161   2.553   5.264   6.681 -0.2146  0.2850 -0.1794
  147SAPE    HX16162   2.443   5.250   6.669 -0.1766 -0.6668  0.5578
  147SAPE    HY16163   2.573   5.371   6.657  0.2727 -0.1952 -1.9920
  147SAPE   O3116164   2.583   5.238   6.819  0.5627 -0.4590  0.0299
  147SAPE   C3116165   2.702   5.284   6.857 -0.2373  0.0066 -0.6759
  147SAPE   O3216166   2.788   5.336   6.792  0.1846  0.2649  0.0580
  147SAPE   C3216167   2.727   5.242   6.999  0.7169 -0.4925 -0.0166
  147SAPE   H2X16168   2.777   5.143   6.999  1.3188 -0.1915  1.0080
  147SAPE   H2Y16169   2.626   5.227   7.044  0.4395  0.9527 -0.1206
  147SAPE   C2316170   2.726   4.833   6.847 -0.1797 -0.5588  0.2215
  147SAPE   H3R16171   2.703   4.737   6.898  1.9308 -0.3146  1.6807
  147SAPE   H3S16172   2.638   4.895   6.873  1.4124  1.7496  0.1921
  147SAPE   C2416173   2.861   4.878   6.909  0.2613  0.0361 -0.4624
  147SAPE   H4R16174   2.838   4.908   7.013  1.3018  0.3013 -0.2958
  147SAPE   H4S16175   2.887   4.972   6.856 -0.8109  0.3370 -0.4678
  147SAPE   C2516176   2.974   4.773   6.902  0.2375 -0.2510 -0.0173
  147SAPE   H5R16177   2.989   4.717   6.809  1.4079 -1.4547  0.8956
  147SAPE   C2616178   3.054   4.737   7.003 -0.3394  0.7533  0.5806
  147SAPE   H6R16179   3.125   4.655   6.982 -0.7808  1.1009 -2.4963
  147SAPE   C2716180   3.062   4.792   7.148 -0.0718  0.2687  0.0019
  147SAPE   H7R16181   3.021   4.895   7.152 -0.9355 -0.0954  0.6730
  147SAPE   H7S16182   3.167   4.805   7.183 -0.1153  0.7899 -0.0642
  147SAPE   C2816183   2.986   4.702   7.249  1.0357  0.0281  0.8962
  147SAPE   H8R16184   2.924   4.624   7.204  2.2608 -0.3086 -0.2497
  147SAPE   C2916185   3.004   4.717   7.386 -0.0602  0.0673 -0.7337
  147SAPE   H9R16186   2.955   4.649   7.457 -2.5861  0.4307 -2.0421
  147SAPE  C21016187   3.090   4.815   7.463  0.3332 -0.0710  0.6420
  147SAPE  H10R16188   3.024   4.887   7.516  0.0501 -0.5638  0.9601
  147SAPE  H10S16189   3.161   4.856   7.389 -1.8914  0.1033 -1.4682
  147SAPE  C21116190   3.153   4.717   7.574  0.1343  0.3153 -0.1944
  147SAPE  H11R16191   3.227   4.651   7.527 -0.1101  0.0601 -0.2195
  147SAPE  C21216192   3.113   4.691   7.703 -0.1644 -0.1976 -0.1877
  147SAPE  H12R16193   3.149   4.605   7.760 -3.9692 -1.9250 -0.2154
  147SAPE  C21316194   3.000   4.756   7.783  0.2159  0.3696  0.1282
  147SAPE  H13R16195   2.960   4.687   7.860  1.4036 -1.6795 -1.0413
  147SAPE  H13S16196   2.907   4.788   7.732 -0.5563 -1.0150  0.6495
  147SAPE  C21416197   3.050   4.884   7.845  1.0223  1.2238  0.2919
  147SAPE  H14R16198   3.010   4.974   7.796 -0.4583  0.3229 -0.1974
  147SAPE  C21516199   3.148   4.901   7.935 -0.4855  0.5070  0.3146
  147SAPE  H15R16200   3.174   5.006   7.959  1.1808  0.3821 -0.8588
  147SAPE  C21616201   3.231   4.791   7.997 -0.1457 -0.8847 -0.0176
  147SAPE  H16R16202   3.324   4.808   7.940 -0.3157  1.2841  0.2955
  147SAPE  H16S16203   3.185   4.691   7.979 -1.6327 -0.1568 -0.3695
  147SAPE  C21716204   3.257   4.817   8.151  0.2100  1.0521  0.1686
  147SAPE  H17R16205   3.162   4.827   8.208 -1.0205 -1.4298 -1.3735
  147SAPE  H17S16206   3.298   4.920   8.160  0.0450  1.0673  0.7619
  147SAPE  C21816207   3.368   4.725   8.209  0.3902  0.3027  0.3686
  147SAPE  H18R16208   3.468   4.741   8.163  1.5823  0.0200  2.8132
  147SAPE  H18S16209   3.352   4.617   8.189  1.8075  0.0584  0.4990
  147SAPE  C21916210   3.407   4.746   8.356 -0.5308 -0.2713  0.1873
  147SAPE  H19R16211   3.504   4.702   8.386 -0.1965  1.1377  1.2102
  147SAPE  H19S16212   3.329   4.705   8.424 -1.0322  0.5351  0.1144
  147SAPE  C22016213   3.403   4.897   8.389 -0.8720 -0.1143  0.1409
  147SAPE  H20R16214   3.448   4.912   8.489  0.4403 -1.3312 -0.2506
  147SAPE  H20S16215   3.296   4.927   8.381 -1.2855 -1.0820  1.7301
  147SAPE  H20T16216   3.464   4.952   8.315 -0.9881 -0.7384 -0.4275
  147SAPE   C3316217   2.828   5.337   7.067  0.5144 -0.4232  0.1948
  147SAPE   H3X16218   2.800   5.444   7.059  1.9414 -0.1835 -2.0660
  147SAPE   H3Y16219   2.922   5.336   7.007  0.1016 -1.9882 -0.4236
  147SAPE   C3416220   2.852   5.300   7.215  0.0198 -0.6207  0.3087
  147SAPE   H4X16221   2.899   5.200   7.211 -0.3406 -0.8993  2.6681
  147SAPE   H4Y16222   2.757   5.300   7.273 -0.1478  0.2207  0.0515
  147SAPE   C3516223   2.942   5.397   7.300 -0.6608 -0.2069 -0.8974
  147SAPE   H5X16224   2.879   5.486   7.321  0.8598  0.3361  1.5081
  147SAPE   H5Y16225   3.035   5.415   7.241 -1.2655  0.6750 -1.6025
  147SAPE   C3616226   2.988   5.359   7.438  1.5799  0.2029 -0.2834
  147SAPE   H6X16227   3.042   5.262   7.430  0.2791 -0.5204 -0.4133
  147SAPE   H6Y16228   2.897   5.342   7.500  0.4798  0.6423 -1.7687
  147SAPE   C3716229   3.059   5.474   7.507 -0.3593  0.2328 -0.3442
  147SAPE   H7X16230   2.995   5.564   7.521  0.3258  0.8332 -1.0676
  147SAPE   H7Y16231   3.154   5.493   7.454  0.2138  3.8880  1.8396
  147SAPE   C3816232   3.090   5.417   7.648 -0.3888 -0.2615 -0.2599
  147SAPE   H8X16233   3.131   5.315   7.637 -0.1549  0.0614 -2.4661
  147SAPE   H8Y16234   2.996   5.423   7.707  0.3713  1.4588  0.8412
  147SAPE   C3916235   3.202   5.492   7.725 -0.1685 -0.2602  0.6216
  147SAPE   H9X16236   3.178   5.599   7.743  0.4580 -0.3982  2.4163
  147SAPE   H9Y16237   3.298   5.486   7.669  0.3157  2.5075  1.0491
  147SAPE  C31016238   3.237   5.435   7.862  0.9874 -0.1835  0.2703
  147SAPE  H10X16239   3.328   5.484   7.902  1.1752  0.2382 -0.6606
  147SAPE  H10Y16240   3.247   5.324   7.867 -0.6899 -0.3366  0.3854
  147SAPE  C31116241   3.118   5.458   7.956  0.8407 -0.2612  0.8560
  147SAPE  H11X16242   3.056   5.366   7.945  1.0578 -0.5506  1.9647
  147SAPE  H11Y16243   3.063   5.544   7.912  0.1462 -1.7699 -1.3483
  147SAPE  C31216244   3.162   5.488   8.092  0.2376 -0.6537 -0.6140
  147SAPE  H12X16245   3.189   5.593   8.114  0.6419 -0.3784 -2.3336
  147SAPE  H12Y16246   3.256   5.431   8.109 -0.3180 -1.1875  0.7438
  147SAPE  C31316247   3.056   5.461   8.204 -0.2311 -0.2788 -0.6638
  147SAPE  H13X16248   3.109   5.483   8.300  1.9777 -0.1590 -1.8672
  147SAPE  H13Y16249   3.031   5.353   8.211  1.4272 -0.7218 -1.3367
  147SAPE  C31416250   2.925   5.543   8.193 -0.7854  0.3488  0.3565
  147SAPE  H14X16251   2.852   5.512   8.271 -1.4292 -0.1769 -0.4552
  147SAPE  H14Y16252   2.871   5.505   8.104 -0.1255 -2.6143  1.1742
  147SAPE  C31516253   2.943   5.702   8.172  0.5187  0.1827  0.2157
  147SAPE  H15X16254   3.000   5.727   8.080 -0.7082  0.0178 -0.6090
  147SAPE  H15Y16255   3.004   5.744   8.254  0.1154 -0.8974  1.0697
  147SAPE  C31616256   2.812   5.777   8.156 -0.2673  0.4511 -0.2234
  147SAPE  H16X16257   2.851   5.879   8.139 -0.5774  0.6713  0.3611
  147SAPE  H16Y16258   2.765   5.765   8.256  0.7012  1.8580  0.4160
  147SAPE  C31716259   2.722   5.740   8.031 -0.3360 -0.6527 -0.4004
  147SAPE  H17X16260   2.643   5.818   8.027  1.1352  0.9211  0.6585
  147SAPE  H17Y16261   2.680   5.642   8.061  0.3274 -1.0382 -0.7347
  147SAPE  C31816262   2.802   5.721   7.908 -0.3243  0.2967  0.0740
  147SAPE  H18X16263   2.831   5.619   7.877  1.0343  0.9132 -0.7418
  147SAPE  H18Y16264   2.886   5.795   7.905  0.0169 -0.1172 -0.9467
  147SAPE  H18Z16265   2.745   5.765   7.824 -0.2357  0.2925  0.0115
  148SAPE     N16266   3.396   2.782   6.540 -0.4615 -0.5260 -0.2453
  148SAPE   HN116267   3.494   2.802   6.511 -0.7333 -1.5796 -1.9575
  148SAPE   HN216268   3.382   2.693   6.487  1.7828 -1.5438  0.8223
  148SAPE   HN316269   3.337   2.855   6.496  0.0861  0.6346  0.9089
  148SAPE   C1216270   3.374   2.758   6.684  0.0814 -0.8556 -0.1077
  148SAPE  H12A16271   3.439   2.831   6.737 -0.6582 -1.3035  1.4324
  148SAPE  H12B16272   3.395   2.654   6.715  2.0056 -0.4809 -0.0764
  148SAPE   C1116273   3.227   2.780   6.715 -0.1634 -0.1538  0.0052
  148SAPE  H11A16274   3.214   2.773   6.825  0.7268  0.1731  0.1322
  148SAPE  H11B16275   3.176   2.691   6.671  2.7714 -0.8999 -2.0365
  148SAPE     P16276   3.184   3.040   6.673 -0.0031  0.2642 -0.0443
  148SAPE   O1316277   3.325   3.070   6.642 -0.2578  0.0853  0.1256
  148SAPE   O1416278   3.076   3.111   6.604  0.2557 -0.0637  0.0156
  148SAPE   O1216279   3.163   2.888   6.658  0.0346 -0.0893  0.1704
  148SAPE   O1116280   3.154   3.060   6.822  0.0198  0.4748 -0.3548
  148SAPE    C116281   3.025   3.021   6.883 -0.8852 -0.0293 -0.8192
  148SAPE    HA16282   2.953   2.964   6.820  0.2978 -0.3929 -1.8565
  148SAPE    HB16283   3.045   2.951   6.967 -1.5878  1.0515  0.2663
  148SAPE    C216284   2.958   3.134   6.962 -0.3858 -0.1378  0.5474
  148SAPE    HS16285   2.941   3.211   6.883  1.5224  0.0035  0.2363
  148SAPE   O2116286   3.053   3.177   7.062  0.2471 -0.2174 -0.3169
  148SAPE   C2116287   3.039   3.306   7.090  0.2149  0.3899  0.3405
  148SAPE   O2216288   2.964   3.384   7.033  0.3031  0.1323  0.8000
  148SAPE   C2216289   3.133   3.343   7.206 -0.3178 -0.1893 -0.2062
  148SAPE   H2R16290   3.230   3.370   7.159  0.8528 -0.3455  2.0293
  148SAPE   H2S16291   3.094   3.441   7.241 -0.9715 -0.7505  0.6488
  148SAPE    C316292   2.809   3.096   7.006  0.1670 -0.4702 -0.6275
  148SAPE    HX16293   2.820   3.007   7.071 -0.3398  0.6050  0.9685
  148SAPE    HY16294   2.742   3.071   6.921  0.0210 -0.2745 -0.5724
  148SAPE   O3116295   2.746   3.185   7.095 -0.0972 -0.8127  0.5132
  148SAPE   C3116296   2.684   3.292   7.036  0.0020  0.9205  0.2434
  148SAPE   O3216297   2.675   3.314   6.913  0.2131 -0.0532 -0.2925
  148SAPE   C3216298   2.629   3.385   7.138  0.5727 -0.4390  0.3629
  148SAPE   H2X16299   2.523   3.391   7.104  0.6214  2.0092  0.5252
  148SAPE   H2Y16300   2.669   3.484   7.106 -0.4801 -0.0565  0.2200
  148SAPE   C2316301   3.136   3.225   7.309 -0.2657  0.2281  0.0826
  148SAPE   H3R16302   3.184   3.132   7.274 -1.9523 -1.0123  0.9888
  148SAPE   H3S16303   3.031   3.212   7.343  0.1887  1.4980  2.0427
  148SAPE   C2416304   3.203   3.281   7.435  0.1246  0.7750  0.5419
  148SAPE   H4R16305   3.142   3.368   7.466 -1.0301 -0.1005  0.8049
  148SAPE   H4S16306   3.311   3.301   7.423  0.2562 -0.4380 -0.4138
  148SAPE   C2516307   3.183   3.180   7.549  0.1901  0.2099  0.5286
  148SAPE   H5R16308   3.136   3.088   7.512 -0.1463 -0.1764  1.8584
  148SAPE   C2616309   3.223   3.202   7.681 -0.4103 -0.0861 -0.8974
  148SAPE   H6R16310   3.203   3.137   7.767 -0.3323  0.7701 -0.2286
  148SAPE   C2716311   3.285   3.337   7.727 -0.0308  0.2423 -0.3193
  148SAPE   H7R16312   3.210   3.413   7.760  0.9463  0.1966  2.1462
  148SAPE   H7S16313   3.352   3.384   7.652 -1.9838  0.6335 -1.8528
  148SAPE   C2816314   3.376   3.309   7.849 -0.6895 -0.1252 -0.3078
  148SAPE   H8R16315   3.436   3.218   7.834 -0.4033  0.5385 -3.6076
  148SAPE   C2916316   3.359   3.362   7.972  0.1692  0.1052 -0.4164
  148SAPE   H9R16317   3.423   3.320   8.052 -0.9886  0.0253  0.4813
  148SAPE  C21016318   3.268   3.469   8.024 -0.8163  0.2951  0.1622
  148SAPE  H10R16319   3.227   3.526   7.938  0.3150  0.6934 -0.1239
  148SAPE  H10S16320   3.335   3.534   8.083 -0.4764 -1.9430  2.3351
  148SAPE  C21116321   3.156   3.433   8.108  0.3418  0.3127 -0.6109
  148SAPE  H11R16322   3.061   3.465   8.063  0.4513  2.3645  0.5612
  148SAPE  C21216323   3.156   3.375   8.234 -0.0112  0.4605  0.1087
  148SAPE  H12R16324   3.062   3.342   8.281 -0.3710  1.0090 -0.2236
  148SAPE  C21316325   3.276   3.349   8.315  0.1682 -0.6828 -0.7843
  148SAPE  H13R16326   3.365   3.340   8.249 -0.8913  1.2817 -2.5035
  148SAPE  H13S16327   3.272   3.253   8.372  1.9844  0.6105  1.6235
  148SAPE  C21416328   3.290   3.460   8.419 -0.2957 -0.6757  0.0943
  148SAPE  H14R16329   3.352   3.545   8.387  1.2029 -1.2755  1.3520
  148SAPE  C21516330   3.238   3.467   8.538  0.1838  0.7717 -0.0651
  148SAPE  H15R16331   3.257   3.552   8.605 -2.2931  1.0456  0.3182
  148SAPE  C21616332   3.144   3.368   8.606 -0.1945  0.5548  0.2600
  148SAPE  H16R16333   3.194   3.308   8.685  0.0647 -0.1311 -0.4182
  148SAPE  H16S16334   3.110   3.297   8.527 -0.1408 -1.3006  1.8688
  148SAPE  C21716335   3.014   3.440   8.669 -0.2083 -0.3025 -0.1428
  148SAPE  H17R16336   2.972   3.517   8.601  3.8761  0.1859 -2.2939
  148SAPE  H17S16337   3.049   3.490   8.762 -0.2450 -2.4317  1.0592
  148SAPE  C21816338   2.903   3.332   8.689  0.1022 -0.9895 -0.2975
  148SAPE  H18R16339   2.946   3.260   8.763  0.0511 -0.3367  0.3686
  148SAPE  H18S16340   2.886   3.277   8.594  1.1216 -1.7678 -0.0485
  148SAPE  C21916341   2.772   3.384   8.755 -0.6346 -0.0733 -0.5069
  148SAPE  H19R16342   2.713   3.292   8.776 -1.2621  0.6088  0.7806
  148SAPE  H19S16343   2.727   3.454   8.682 -1.1129 -0.0561 -0.1946
  148SAPE  C22016344   2.790   3.444   8.895 -0.1378  0.0473  0.7372
  148SAPE  H20R16345   2.816   3.365   8.969  0.2391 -1.2798 -0.7637
  148SAPE  H20S16346   2.686   3.470   8.925 -1.3586 -0.9973 -2.3175
  148SAPE  H20T16347   2.847   3.539   8.901  1.7626 -0.9849 -0.4182
  148SAPE   C3316348   2.633   3.344   7.277  0.0304 -0.4781  0.4467
  148SAPE   H3X16349   2.603   3.238   7.288 -0.0547 -0.6171 -1.0855
  148SAPE   H3Y16350   2.551   3.402   7.325 -1.2552 -0.4498 -1.6965
  148SAPE   C3416351   2.751   3.386   7.361 -0.4981  0.7596 -0.5951
  148SAPE   H4X16352   2.764   3.496   7.353  1.9772  0.5338 -0.2895
  148SAPE   H4Y16353   2.841   3.335   7.319 -1.2499 -0.5062 -0.7035
  148SAPE   C3516354   2.755   3.335   7.501 -0.5042 -0.4759 -0.1534
  148SAPE   H5X16355   2.727   3.227   7.504 -0.2268 -0.6122 -1.9654
  148SAPE   H5Y16356   2.679   3.387   7.563  0.3449 -1.9748  2.2094
  148SAPE   C3616357   2.889   3.374   7.575  0.4059  0.5117 -0.6917
  148SAPE   H6X16358   2.929   3.474   7.548  1.0311  1.0350  2.0943
  148SAPE   H6Y16359   2.958   3.293   7.540 -0.4205 -0.5972  0.2165
  148SAPE   C3716360   2.880   3.361   7.726  0.2905 -0.4216 -0.2002
  148SAPE   H7X16361   2.984   3.368   7.766 -0.3619 -1.0460  1.6725
  148SAPE   H7Y16362   2.853   3.254   7.743 -0.5861 -0.1767 -0.0816
  148SAPE   C3816363   2.786   3.454   7.810  0.1344  0.3111  0.3070
  148SAPE   H8X16364   2.681   3.434   7.780 -0.2697 -0.5063  2.1916
  148SAPE   H8Y16365   2.817   3.560   7.809 -0.4038  0.4629 -0.5572
  148SAPE   C3916366   2.794   3.398   7.952  0.7213  0.2429  0.1953
  148SAPE   H9X16367   2.902   3.404   7.979  0.7618 -3.3645  1.0767
  148SAPE   H9Y16368   2.767   3.290   7.959 -0.8579  0.7124  1.4180
  148SAPE  C31016369   2.703   3.462   8.051 -0.5181  0.0212 -0.4627
  148SAPE  H10X16370   2.595   3.462   8.025 -0.5444  1.2583 -0.3595
  148SAPE  H10Y16371   2.713   3.572   8.045 -1.7645  0.2704  1.5091
  148SAPE  C31116372   2.722   3.409   8.195  0.7105 -0.4674 -0.0105
  148SAPE  H11X16373   2.828   3.420   8.227 -0.3163  2.7177  2.5881
  148SAPE  H11Y16374   2.689   3.303   8.194 -1.6031  0.1938  2.1510
  148SAPE  C31216375   2.623   3.468   8.294 -0.3836 -0.0029 -0.2220
  148SAPE  H12X16376   2.649   3.437   8.397 -1.4777 -0.6340 -0.1250
  148SAPE  H12Y16377   2.516   3.448   8.267 -1.4495  2.4844  1.9778
  148SAPE  C31316378   2.630   3.623   8.303  0.0931  0.3801 -0.0543
  148SAPE  H13X16379   2.606   3.672   8.207  1.6314  1.8616  0.3050
  148SAPE  H13Y16380   2.735   3.642   8.335 -0.3641 -1.3904  2.7216
  148SAPE  C31416381   2.560   3.685   8.430 -0.9782 -0.0999  0.4478
  148SAPE  H14X16382   2.619   3.659   8.520  0.9317  0.9429 -0.4767
  148SAPE  H14Y16383   2.453   3.656   8.439 -1.2444  0.4254 -1.0029
  148SAPE  C31516384   2.560   3.836   8.428  0.2020  0.0587  0.2405
  148SAPE  H15X16385   2.504   3.867   8.337  1.2418  0.2015 -0.3604
  148SAPE  H15Y16386   2.660   3.876   8.402 -0.1252  1.6442  1.4036
  148SAPE  C31616387   2.498   3.901   8.556 -0.5829 -0.5166  0.2785
  148SAPE  H16X16388   2.570   3.868   8.633 -0.3006  0.6937  0.5376
  148SAPE  H16Y16389   2.396   3.868   8.583 -1.3867  0.9027 -0.8892
  148SAPE  C31716390   2.500   4.054   8.565 -0.0716 -0.8545  0.1132
  148SAPE  H17X16391   2.410   4.098   8.516  1.2775  0.1044 -1.5625
  148SAPE  H17Y16392   2.587   4.093   8.509 -1.0987 -0.5197 -1.2881
  148SAPE  C31816393   2.507   4.098   8.711  0.0087  0.1583  0.6771
  148SAPE  H18X16394   2.503   4.208   8.725 -0.0708  0.3458 -0.7621
  148SAPE  H18Y16395   2.609   4.067   8.744 -0.1050 -2.3804 -1.2241
  148SAPE  H18Z16396   2.421   4.072   8.776  0.7755 -1.5798  1.0324
  149SAPE     N16397   2.686   3.401   6.618  0.3512 -0.2126 -0.0444
  149SAPE   HN116398   2.631   3.403   6.530 -1.3449 -0.7475  0.9936
  149SAPE   HN216399   2.770   3.340   6.605  0.9408  0.5871  0.0228
  149SAPE   HN316400   2.629   3.337   6.677  1.2036 -1.4154 -0.4984
  149SAPE   C1216401   2.724   3.528   6.684 -0.0452 -0.1303  0.0277
  149SAPE  H12A16402   2.794   3.581   6.616 -0.4213  0.0629 -0.2093
  149SAPE  H12B16403   2.788   3.508   6.773 -0.9944 -0.8276  0.5613
  149SAPE   C1116404   2.613   3.619   6.711  0.6371  0.0534 -0.2622
  149SAPE  H11A16405   2.642   3.712   6.765  1.4168  0.1070 -0.7604
  149SAPE  H11B16406   2.554   3.569   6.791 -0.8071  2.7139  0.3913
  149SAPE     P16407   2.388   3.619   6.592  0.0207  0.0636 -0.5057
  149SAPE   O1316408   2.318   3.718   6.505  0.4336 -0.1822  0.2197
  149SAPE   O1416409   2.393   3.474   6.553  0.1370 -0.2139 -0.0997
  149SAPE   O1216410   2.539   3.662   6.598 -0.4703  0.6143  0.1228
  149SAPE   O1116411   2.340   3.629   6.742 -0.0632  0.7142  0.4322
  149SAPE    C116412   2.200   3.600   6.762  0.2519  0.3014 -0.5805
  149SAPE    HA16413   2.134   3.652   6.690  0.5835 -0.3521 -1.3568
  149SAPE    HB16414   2.177   3.494   6.741 -1.5164  0.3082  1.1660
  149SAPE    C216415   2.152   3.631   6.908 -0.2527  0.9444 -0.1011
  149SAPE    HS16416   2.041   3.625   6.912 -0.2385  0.8325  0.1228
  149SAPE   O2116417   2.199   3.754   6.963 -0.2719  0.4165 -0.8155
  149SAPE   C2116418   2.177   3.862   6.895 -0.3771  0.8782 -0.1752
  149SAPE   O2216419   2.101   3.872   6.804  0.3727 -0.1665 -0.3616
  149SAPE   C2216420   2.266   3.978   6.950 -0.2003 -0.1689 -0.1000
  149SAPE   H2R16421   2.352   3.939   7.008 -0.8255 -3.4348 -1.2707
  149SAPE   H2S16422   2.311   4.033   6.865 -0.9153  2.7551  1.3621
  149SAPE    C316423   2.191   3.517   7.000  0.1778 -0.4979  0.3912
  149SAPE    HX16424   2.302   3.519   7.002  0.1759  0.2887 -0.2760
  149SAPE    HY16425   2.158   3.424   6.948  2.5757 -0.8744 -0.5117
  149SAPE   O3116426   2.135   3.535   7.132 -0.2701 -0.0638 -0.4588
  149SAPE   C3116427   2.030   3.472   7.162  0.1423  0.3185 -0.3179
  149SAPE   O3216428   1.973   3.396   7.089 -0.3291 -0.6152  0.4289
  149SAPE   C3216429   2.004   3.495   7.315  0.4095  0.0654  0.0254
  149SAPE   H2X16430   2.026   3.603   7.329  3.3735 -0.1696 -2.3888
  149SAPE   H2Y16431   2.080   3.440   7.375  0.6734  0.2305 -0.1552
  149SAPE   C2316432   2.188   4.089   7.030  0.0198  0.7655 -0.2884
  149SAPE   H3R16433   2.083   4.086   6.994 -0.5721 -0.6275  1.4902
  149SAPE   H3S16434   2.228   4.190   7.006 -0.4658  1.1449  0.4911
  149SAPE   C2416435   2.188   4.063   7.182  0.7646  0.0969 -0.2005
  149SAPE   H4R16436   2.149   3.960   7.196 -0.1886  0.4123 -0.5413
  149SAPE   H4S16437   2.116   4.135   7.228 -0.7467 -0.3353 -1.8583
  149SAPE   C2516438   2.328   4.086   7.233  0.2314  0.0941  0.3045
  149SAPE   H5R16439   2.399   4.077   7.149  0.5749  0.5792  0.5454
  149SAPE   C2616440   2.379   4.097   7.359 -0.6914 -0.0584 -0.0596
  149SAPE   H6R16441   2.486   4.114   7.377 -0.7373 -0.3197  0.5061
  149SAPE   C2716442   2.288   4.112   7.478 -0.6919 -0.0332  0.6367
  149SAPE   H7R16443   2.221   4.024   7.481  0.3105 -0.7681  3.3588
  149SAPE   H7S16444   2.223   4.201   7.466  0.3998  0.8183  0.9412
  149SAPE   C2816445   2.370   4.112   7.609 -0.1994 -0.1462  0.0315
  149SAPE   H8R16446   2.476   4.084   7.601 -0.6135 -2.5367  2.3366
  149SAPE   C2916447   2.326   4.152   7.729  0.0442  0.2186 -0.4792
  149SAPE   H9R16448   2.395   4.164   7.814 -0.5177  2.1590 -0.2724
  149SAPE  C21016449   2.185   4.192   7.759  0.2555 -0.6332 -0.2239
  149SAPE  H10R16450   2.120   4.126   7.697  0.7472 -0.2635 -1.1313
  149SAPE  H10S16451   2.164   4.293   7.716  0.1369  0.9313  3.3124
  149SAPE  C21116452   2.148   4.175   7.902 -0.0234  0.5389  0.3106
  149SAPE  H11R16453   2.129   4.069   7.925 -0.6715  0.3096 -1.2275
  149SAPE  C21216454   2.131   4.264   7.999 -0.3464  0.4470 -0.4906
  149SAPE  H12R16455   2.126   4.232   8.104 -2.6621 -0.8355 -0.9733
  149SAPE  C21316456   2.150   4.414   7.978  0.0861  0.7113 -0.4358
  149SAPE  H13R16457   2.061   4.456   7.927 -1.5024 -0.3907  1.3669
  149SAPE  H13S16458   2.231   4.435   7.904 -0.7146 -1.5908 -2.0415
  149SAPE  C21416459   2.173   4.502   8.095  0.0620  0.1023  0.5873
  149SAPE  H14R16460   2.095   4.570   8.131 -0.4137  0.0260 -0.2713
  149SAPE  C21516461   2.281   4.498   8.178 -0.7052  0.1521 -0.2772
  149SAPE  H15R16462   2.288   4.562   8.267 -1.1940 -0.5820  0.3049
  149SAPE  C21616463   2.401   4.402   8.163 -0.0143 -0.3837  0.0941
  149SAPE  H16R16464   2.489   4.461   8.196  1.0071 -1.0544 -1.4064
  149SAPE  H16S16465   2.420   4.366   8.060  1.7908  0.2738  0.1816
  149SAPE  C21716466   2.390   4.270   8.242  0.7332 -0.1157 -0.2843
  149SAPE  H17R16467   2.283   4.241   8.250 -0.0081  1.8167 -2.6569
  149SAPE  H17S16468   2.426   4.283   8.346 -1.5148  3.2916  0.1340
  149SAPE  C21816469   2.475   4.158   8.174 -0.3548 -0.1847 -0.4656
  149SAPE  H18R16470   2.431   4.149   8.073 -2.1867  1.0289  0.1945
  149SAPE  H18S16471   2.459   4.054   8.209 -0.1244 -0.6069 -1.6105
  149SAPE  C21916472   2.622   4.192   8.167  0.4286  0.7155  0.1517
  149SAPE  H19R16473   2.661   4.216   8.267  0.9203  2.4536 -0.4481
  149SAPE  H19S16474   2.636   4.283   8.104  1.1513 -0.0789 -0.8629
  149SAPE  C22016475   2.699   4.068   8.111 -0.0669  0.0094  0.3891
  149SAPE  H20R16476   2.673   3.986   8.182 -0.5616  0.7098  1.0237
  149SAPE  H20S16477   2.808   4.090   8.113 -0.0587 -0.0139  0.1146
  149SAPE  H20T16478   2.664   4.043   8.009  1.4519  0.8298 -0.3447
  149SAPE   C3316479   1.866   3.443   7.359  0.1286 -0.1945  0.1691
  149SAPE   H3X16480   1.867   3.334   7.380  1.4982 -0.0985  0.6339
  149SAPE   H3Y16481   1.792   3.461   7.277 -1.4642 -0.5794  1.4926
  149SAPE   C3416482   1.821   3.497   7.495  0.3132  0.9370 -0.1088
  149SAPE   H4X16483   1.713   3.472   7.498  0.7223 -1.1030 -1.1563
  149SAPE   H4Y16484   1.819   3.607   7.505 -0.1657  0.9491 -0.3147
  149SAPE   C3516485   1.894   3.430   7.610 -0.0868  0.0268 -0.4701
  149SAPE   H5X16486   2.000   3.464   7.621  0.1121 -0.6792 -0.1833
  149SAPE   H5Y16487   1.904   3.321   7.592 -3.1536 -0.4841  0.7047
  149SAPE   C3616488   1.821   3.458   7.742 -0.2783  0.1039 -0.9057
  149SAPE   H6X16489   1.714   3.428   7.751 -0.1392 -0.3194 -0.6522
  149SAPE   H6Y16490   1.811   3.567   7.762  0.3397  0.0115 -0.0566
  149SAPE   C3716491   1.893   3.402   7.865 -0.8626  0.3725 -0.3564
  149SAPE   H7X16492   2.002   3.404   7.845 -0.8564 -1.4814 -0.5641
  149SAPE   H7Y16493   1.866   3.296   7.883 -0.6141  0.1130 -1.4951
  149SAPE   C3816494   1.866   3.480   7.992 -0.6370 -0.0477 -0.0945
  149SAPE   H8X16495   1.755   3.485   8.004 -0.6278 -0.6243  0.2310
  149SAPE   H8Y16496   1.902   3.584   7.975 -3.5469  0.7506 -1.7893
  149SAPE   C3916497   1.921   3.413   8.116 -0.0794 -0.3678 -0.2929
  149SAPE   H9X16498   2.025   3.389   8.084 -0.1098 -1.4757  0.3922
  149SAPE   H9Y16499   1.872   3.315   8.135  0.3948 -0.3792  0.8921
  149SAPE  C31016500   1.914   3.491   8.242 -0.1701  0.2398  0.3278
  149SAPE  H10X16501   1.958   3.429   8.324  0.2201  1.1236  0.7956
  149SAPE  H10Y16502   1.809   3.519   8.265 -0.5896 -1.9553  1.1740
  149SAPE  C31116503   1.997   3.619   8.233  0.0701 -0.6357 -1.1872
  149SAPE  H11X16504   1.950   3.689   8.160  0.0423  1.8157  1.0966
  149SAPE  H11Y16505   2.102   3.611   8.198  0.2834  1.6748 -1.1882
  149SAPE  C31216506   2.008   3.699   8.367  0.0519  0.4593 -0.0877
  149SAPE  H12X16507   2.039   3.629   8.448 -0.1896  0.5949  0.1211
  149SAPE  H12Y16508   1.908   3.739   8.397 -2.8408 -5.2425 -1.3404
  149SAPE  C31316509   2.094   3.820   8.365  0.2462  0.4057  0.2583
  149SAPE  H13X16510   2.198   3.799   8.330  0.7527  1.6060  1.0002
  149SAPE  H13Y16511   2.109   3.858   8.468  0.5781  0.5288  0.1659
  149SAPE  C31416512   2.034   3.941   8.279  0.6185 -0.7111 -0.1395
  149SAPE  H14X16513   2.018   3.901   8.177  0.6518 -1.6871  0.2315
  149SAPE  H14Y16514   2.113   4.019   8.273 -0.2672  0.1418 -0.8566
  149SAPE  C31516515   1.914   3.998   8.346  0.5956  0.3862 -0.6745
  149SAPE  H15X16516   1.823   3.935   8.355  0.2281  0.9611 -0.3669
  149SAPE  H15Y16517   1.876   4.075   8.276 -1.4206  0.7541  0.7772
  149SAPE  C31616518   1.942   4.073   8.483 -0.4336  0.5125 -0.2461
  149SAPE  H16X16519   2.046   4.111   8.494  0.0150 -0.8341  0.1604
  149SAPE  H16Y16520   1.925   4.005   8.568  2.1671 -2.0387 -1.6833
  149SAPE  C31716521   1.839   4.192   8.485 -0.5221 -0.4274  0.0403
  149SAPE  H17X16522   1.736   4.161   8.457 -0.4553  1.6599 -2.8438
  149SAPE  H17Y16523   1.883   4.261   8.410 -1.0190  0.7262  0.7887
  149SAPE  C31816524   1.829   4.261   8.618  0.0189 -0.2551  0.0659
  149SAPE  H18X16525   1.927   4.308   8.644 -1.0616  1.9122  0.3504
  149SAPE  H18Y16526   1.801   4.194   8.701 -1.7044 -0.3949 -0.6083
  149SAPE  H18Z16527   1.757   4.346   8.620  1.7131  1.2187  0.3328
  150SAPE     N16528   0.354   5.606   6.404 -0.0040 -0.2381 -0.1443
  150SAPE   HN116529   0.386   5.568   6.312  0.9272 -0.7610  0.3824
  150SAPE   HN216530   0.290   5.539   6.451 -0.5306  0.4326  0.1089
  150SAPE   HN316531   0.299   5.689   6.373 -0.9059 -0.1326  1.7224
  150SAPE   C1216532   0.473   5.642   6.490 -0.0248  0.1621 -0.1845
  150SAPE  H12A16533   0.442   5.647   6.596 -1.1347  0.3701 -0.5151
  150SAPE  H12B16534   0.506   5.746   6.469 -1.2454  0.3860 -1.0458
  150SAPE   C1116535   0.594   5.560   6.468  0.1093  0.7254 -0.1324
  150SAPE  H11A16536   0.670   5.599   6.539  1.7159  0.4727 -1.6831
  150SAPE  H11B16537   0.626   5.572   6.362  1.5750 -1.0508  0.0990
  150SAPE     P16538   0.648   5.307   6.483 -0.2502 -0.1286 -0.0702
  150SAPE   O1316539   0.615   5.184   6.563  0.1235 -0.0340 -0.2124
  150SAPE   O1416540   0.630   5.293   6.338 -0.1533 -0.5870 -0.5090
  150SAPE   O1216541   0.557   5.427   6.514  0.1301 -0.8082 -0.2894
  150SAPE   O1116542   0.796   5.350   6.514 -0.3400  0.3294  0.0256
  150SAPE    C116543   0.849   5.306   6.642 -0.3292  0.3317 -0.2572
  150SAPE    HA16544   0.775   5.322   6.723  1.2286 -1.3899  1.5424
  150SAPE    HB16545   0.856   5.195   6.638 -1.6038  0.1804  1.3310
  150SAPE    C216546   0.982   5.379   6.678  0.3861 -0.1900  0.3095
  150SAPE    HS16547   0.968   5.399   6.787 -2.2359  1.1778 -0.2460
  150SAPE   O2116548   1.004   5.500   6.605 -0.4133 -0.2132  0.8304
  150SAPE   C2116549   0.923   5.597   6.630  0.1728 -0.3931  0.2236
  150SAPE   O2216550   0.834   5.602   6.712 -0.0312  0.3305  0.4778
  150SAPE   C2216551   0.957   5.719   6.541  0.6687  0.6991 -0.1044
  150SAPE   H2R16552   1.053   5.694   6.490  1.2515 -0.9029  1.6896
  150SAPE   H2S16553   0.875   5.723   6.466  1.1431 -0.7646 -0.7246
  150SAPE    C316554   1.105   5.291   6.667  0.0404  0.0977  0.2424
  150SAPE    HX16555   1.197   5.346   6.696 -0.2269 -0.8315  2.9840
  150SAPE    HY16556   1.098   5.266   6.559 -0.5575  0.3087  0.2321
  150SAPE   O3116557   1.085   5.172   6.745 -0.1698 -0.5144 -0.7127
  150SAPE   C3116558   1.151   5.059   6.694 -0.1944 -0.5260 -0.0933
  150SAPE   O3216559   1.221   5.073   6.597 -0.1087 -0.2086 -0.3413
  150SAPE   C3216560   1.127   4.939   6.776  0.4990 -0.0173  0.3229
  150SAPE   H2X16561   1.153   4.853   6.711 -2.0316 -1.0538  0.6205
  150SAPE   H2Y16562   1.021   4.921   6.803  0.7541 -1.7041  0.2503
  150SAPE   C2316563   0.953   5.843   6.616 -0.5677 -0.2053 -0.4004
  150SAPE   H3R16564   0.870   5.844   6.690 -0.6895  0.4569 -0.5393
  150SAPE   H3S16565   0.930   5.934   6.556 -0.9118  0.3386  0.5476
  150SAPE   C2416566   1.089   5.864   6.681 -0.2574 -0.7979 -0.5436
  150SAPE   H4R16567   1.079   5.961   6.735  0.5029 -1.3605  0.6459
  150SAPE   H4S16568   1.155   5.876   6.593  1.3308 -2.8543  0.3207
  150SAPE   C2516569   1.152   5.766   6.783  0.1715  0.1958 -0.4243
  150SAPE   H5R16570   1.225   5.702   6.730  0.8139  2.3984 -2.2519
  150SAPE   C2616571   1.125   5.753   6.913  0.3259  0.7287 -0.1544
  150SAPE   H6R16572   1.183   5.685   6.977  1.0709  0.0887 -1.4938
  150SAPE   C2716573   1.017   5.836   6.989  0.5005 -0.8224 -0.1155
  150SAPE   H7R16574   0.996   5.926   6.928  1.9084 -0.0471  0.5146
  150SAPE   H7S16575   1.058   5.865   7.088  0.2649  0.1333 -0.2951
  150SAPE   C2816576   0.900   5.746   6.990 -0.0711 -0.0755 -0.2730
  150SAPE   H8R16577   0.845   5.752   6.895  0.7003 -1.7344 -0.8409
  150SAPE   C2916578   0.852   5.683   7.100  0.2715  0.2086 -0.2442
  150SAPE   H9R16579   0.760   5.627   7.079  1.4019 -1.4404 -0.9132
  150SAPE  C21016580   0.907   5.686   7.239 -0.0603 -0.8062 -0.1379
  150SAPE  H10R16581   1.016   5.705   7.233  0.1483 -2.4301 -2.0060
  150SAPE  H10S16582   0.904   5.586   7.286  0.1269  0.0641  1.7630
  150SAPE  C21116583   0.856   5.793   7.332 -0.1651 -0.1818  0.4055
  150SAPE  H11R16584   0.793   5.872   7.288 -1.0888 -1.0586  0.1272
  150SAPE  C21216585   0.862   5.791   7.461 -0.3020  0.0044 -0.4060
  150SAPE  H12R16586   0.818   5.878   7.513  0.7688  0.7889 -0.7890
  150SAPE  C21316587   0.927   5.686   7.547 -0.1038  0.0762  0.0053
  150SAPE  H13R16588   1.012   5.727   7.606  0.0383 -0.9009  0.4904
  150SAPE  H13S16589   0.970   5.602   7.488 -0.6480 -1.3702  1.6077
  150SAPE  C21416590   0.822   5.639   7.646 -0.0503 -0.0661  0.1405
  150SAPE  H14R16591   0.717   5.670   7.636 -0.0606 -0.6596 -1.7243
  150SAPE  C21516592   0.852   5.557   7.752 -0.6162  0.4695 -0.6834
  150SAPE  H15R16593   0.769   5.518   7.812  0.1586  1.1473  0.8534
  150SAPE  C21616594   0.987   5.509   7.799 -0.0678 -0.1512 -0.1895
  150SAPE  H16R16595   1.056   5.576   7.742  0.2762  0.7086  1.2047
  150SAPE  H16S16596   1.007   5.401   7.786  2.1985  0.3177 -0.8236
  150SAPE  C21716597   1.035   5.550   7.938  0.2189  0.1642  0.1290
  150SAPE  H17R16598   1.019   5.659   7.954  1.1031  0.6234 -1.9808
  150SAPE  H17S16599   1.141   5.522   7.949  0.7898  0.6868 -3.6837
  150SAPE  C21816600   0.951   5.488   8.055  0.7194 -0.2451  1.1909
  150SAPE  H18R16601   0.966   5.378   8.047 -0.7114 -0.2991 -1.5534
  150SAPE  H18S16602   0.842   5.506   8.041  1.1801  2.5850  0.8983
  150SAPE  C21916603   1.000   5.534   8.196  0.2162 -0.0861  0.6409
  150SAPE  H19R16604   0.997   5.644   8.189  0.5926 -0.1141  0.0532
  150SAPE  H19S16605   1.101   5.490   8.213  1.0948  1.2416 -1.0191
  150SAPE  C22016606   0.911   5.489   8.317  0.0568  0.6784 -0.6379
  150SAPE  H20R16607   0.807   5.527   8.303  0.4985  1.9180 -0.6907
  150SAPE  H20S16608   0.951   5.529   8.413  1.4742  2.3135 -1.8669
  150SAPE  H20T16609   0.908   5.378   8.313 -0.1223  0.6379  0.5453
  150SAPE   C3316610   1.204   4.930   6.910  0.3088 -0.4461  0.0175
  150SAPE   H3X16611   1.168   5.017   6.967  1.5872 -0.0268  0.2056
  150SAPE   H3Y16612   1.314   4.940   6.894  0.2400  0.7532  0.3052
  150SAPE   C3416613   1.173   4.802   6.978 -0.2161  0.0590 -0.5506
  150SAPE   H4X16614   1.204   4.722   6.908 -1.8919 -1.2050  0.1180
  150SAPE   H4Y16615   1.063   4.796   6.993 -0.5119  0.4589 -2.4366
  150SAPE   C3516616   1.253   4.786   7.108 -0.0794 -0.2834  0.1422
  150SAPE   H5X16617   1.240   4.883   7.160  2.0365  0.1581 -0.1131
  150SAPE   H5Y16618   1.362   4.788   7.087  0.3501 -0.6819  2.1849
  150SAPE   C3616619   1.213   4.671   7.207 -0.2047 -0.2827  0.0118
  150SAPE   H6X16620   1.215   4.570   7.160  1.6790 -0.5604  0.6501
  150SAPE   H6Y16621   1.108   4.682   7.241 -0.8017  1.4190 -2.2287
  150SAPE   C3716622   1.315   4.661   7.327 -0.1732 -0.3651  0.1159
  150SAPE   H7X16623   1.319   4.765   7.364  1.0813 -0.2275 -0.3745
  150SAPE   H7Y16624   1.416   4.647   7.281 -0.4230 -0.6222 -0.3534
  150SAPE   C3816625   1.282   4.573   7.440  0.7412  0.1546 -0.2776
  150SAPE   H8X16626   1.297   4.469   7.404  1.4348 -0.4773  1.8028
  150SAPE   H8Y16627   1.183   4.574   7.489  1.8329  1.2920  1.9568
  150SAPE   C3916628   1.380   4.582   7.554  0.1693 -0.4434 -0.2221
  150SAPE   H9X16629   1.367   4.687   7.587 -2.7367 -1.0833  0.7618
  150SAPE   H9Y16630   1.487   4.569   7.527  0.5291 -1.2694  1.5028
  150SAPE  C31016631   1.338   4.489   7.682  0.2036  0.0782 -0.6574
  150SAPE  H10X16632   1.333   4.387   7.638 -2.1971  0.1367 -0.5532
  150SAPE  H10Y16633   1.238   4.508   7.726  0.2604 -1.1560  0.0556
  150SAPE  C31116634   1.446   4.486   7.789  0.7183 -0.0287 -0.3761
  150SAPE  H11X16635   1.547   4.477   7.745  0.6490 -0.2519 -0.4905
  150SAPE  H11Y16636   1.429   4.394   7.849 -2.7906  0.9378  0.1980
  150SAPE  C31216637   1.447   4.602   7.885  1.0034  0.4929  0.1935
  150SAPE  H12X16638   1.360   4.587   7.952  1.1280 -0.0220  0.2382
  150SAPE  H12Y16639   1.435   4.694   7.823  1.1601 -0.4492 -1.2502
  150SAPE  C31316640   1.575   4.615   7.972  0.3238  0.8798  0.1944
  150SAPE  H13X16641   1.659   4.604   7.900  1.4472  3.4414  1.0617
  150SAPE  H13Y16642   1.572   4.530   8.043 -0.6324  1.9086  1.4061
  150SAPE  C31416643   1.589   4.759   8.028 -0.6784 -0.3432 -0.4717
  150SAPE  H14X16644   1.502   4.801   8.082 -0.3870 -0.6032  0.2094
  150SAPE  H14Y16645   1.606   4.833   7.947  2.5307 -1.5733 -0.9928
  150SAPE  C31516646   1.716   4.775   8.122  0.0095  0.1050 -0.0685
  150SAPE  H15X16647   1.733   4.883   8.141 -1.7317  0.3182  0.3822
  150SAPE  H15Y16648   1.803   4.729   8.070  0.2679 -0.8488  1.1759
  150SAPE  C31616649   1.694   4.703   8.254 -0.3151  0.6864  0.5464
  150SAPE  H16X16650   1.776   4.717   8.327 -1.3777  2.3270  1.4604
  150SAPE  H16Y16651   1.690   4.594   8.235 -1.9873  0.5048  1.8339
  150SAPE  C31716652   1.570   4.740   8.334  0.4768  0.0024 -0.0605
  150SAPE  H17X16653   1.569   4.673   8.422  1.0495  0.2531  0.1355
  150SAPE  H17Y16654   1.482   4.708   8.273 -0.1445 -2.7936  2.2251
  150SAPE  C31816655   1.565   4.887   8.375 -0.3829  0.2859  0.6069
  150SAPE  H18X16656   1.468   4.889   8.429 -0.3777 -0.9206  0.6810
  150SAPE  H18Y16657   1.571   4.955   8.287 -0.6952  2.4660  2.2200
  150SAPE  H18Z16658   1.653   4.921   8.434  0.6826 -2.7145  0.8420
  151SAPE     N16659   3.703   2.616   6.245  0.0560 -0.3133  1.0606
  151SAPE   HN116660   3.630   2.688   6.260 -0.6605 -0.4039 -1.8286
  151SAPE   HN216661   3.747   2.621   6.151 -0.7464 -1.1286  0.6393
  151SAPE   HN316662   3.655   2.524   6.246 -0.7775  0.0726 -1.0305
  151SAPE   C1216663   3.799   2.632   6.362  0.2466  0.3734  0.2145
  151SAPE  H12A16664   3.879   2.702   6.330 -1.0832  0.9754 -1.8934
  151SAPE  H12B16665   3.837   2.531   6.387 -1.5295 -0.9863 -2.2271
  151SAPE   C1116666   3.737   2.695   6.488  0.1976  0.4962  0.1325
  151SAPE  H11A16667   3.822   2.726   6.553  0.1861  1.4569 -0.3033
  151SAPE  H11B16668   3.671   2.624   6.541  1.2639 -1.9829 -1.6965
  151SAPE     P16669   3.718   2.953   6.426  0.2280  0.1726 -0.3730
  151SAPE   O1316670   3.853   2.935   6.371  0.3590  0.0958 -0.0861
  151SAPE   O1416671   3.614   3.025   6.351  0.0682  0.1306  0.3553
  151SAPE   O1216672   3.663   2.807   6.449  0.2793  0.3868  0.2329
  151SAPE   O1116673   3.719   3.024   6.571 -0.0039 -0.1464  0.6116
  151SAPE    C116674   3.730   2.951   6.694  0.1535 -0.6932 -0.6813
  151SAPE    HA16675   3.666   2.988   6.778 -0.5918  0.8322 -1.9087
  151SAPE    HB16676   3.702   2.845   6.682 -2.9708 -0.2351  1.8651
  151SAPE    C216677   3.870   2.948   6.754 -0.7049  0.4042  0.6686
  151SAPE    HS16678   3.936   2.883   6.692  0.9534  0.4085  2.4020
  151SAPE   O2116679   3.879   2.906   6.890  0.4914 -0.3555 -0.0743
  151SAPE   C2116680   3.900   2.773   6.893  0.1935 -0.6603 -0.2880
  151SAPE   O2216681   3.905   2.698   6.802 -0.5672 -0.1227  0.0728
  151SAPE   C2216682   3.929   2.741   7.043  0.2253  0.3900 -0.6313
  151SAPE   H2R16683   4.038   2.758   7.053  0.0036  1.2070  0.5393
  151SAPE   H2S16684   3.872   2.812   7.107  0.6441  0.1930 -0.0294
  151SAPE    C316685   3.933   3.091   6.739 -0.1218  1.0889  0.3724
  151SAPE    HX16686   3.901   3.130   6.640 -4.1476 -2.4202  0.1466
  151SAPE    HY16687   4.044   3.091   6.732 -0.2051  1.9020 -1.3611
  151SAPE   O3116688   3.881   3.180   6.833  0.4493 -0.2379 -0.4472
  151SAPE   C3116689   3.964   3.195   6.938  0.0605  1.0816  0.1625
  151SAPE   O3216690   4.069   3.136   6.959 -0.6985 -0.2494 -0.2580
  151SAPE   C3216691   3.890   3.284   7.042  0.1004  0.8210 -0.5063
  151SAPE   H2X16692   3.780   3.272   7.033  0.2282  0.1512 -1.3468
  151SAPE   H2Y16693   3.924   3.388   7.025  3.9877  0.0778  1.9180
  151SAPE   C2316694   3.892   2.604   7.095 -0.7183  0.1977  0.0852
  151SAPE   H3R16695   3.983   2.549   7.127  0.4140  1.3870 -1.0167
  151SAPE   H3S16696   3.841   2.536   7.023 -1.2978 -0.2437  0.9079
  151SAPE   C2416697   3.781   2.611   7.212  0.4888  0.0689 -0.0932
  151SAPE   H4R16698   3.700   2.671   7.167  1.7199  1.1353 -0.9437
  151SAPE   H4S16699   3.819   2.672   7.297 -0.5442  1.6397 -0.7478
  151SAPE   C2516700   3.723   2.479   7.252 -0.5729 -0.5308 -0.1582
  151SAPE   H5R16701   3.677   2.421   7.171  0.6061  0.9167 -1.9014
  151SAPE   C2616702   3.709   2.434   7.376 -0.2915  0.5021  0.6812
  151SAPE   H6R16703   3.664   2.333   7.384  0.2398  0.1881 -0.1653
  151SAPE   C2716704   3.746   2.500   7.505 -0.3556  0.0922  0.3142
  151SAPE   H7R16705   3.656   2.493   7.569 -1.4505 -0.6418 -1.2722
  151SAPE   H7S16706   3.772   2.607   7.491  0.5486  0.3331  3.4681
  151SAPE   C2816707   3.866   2.445   7.577  0.0060 -0.1563  0.2689
  151SAPE   H8R16708   3.944   2.406   7.511  1.3392  1.5030  0.8111
  151SAPE   C2916709   3.885   2.427   7.708  0.4828  0.3999  0.5205
  151SAPE   H9R16710   3.976   2.374   7.741 -0.2758 -0.9320  0.5158
  151SAPE  C21016711   3.788   2.460   7.816 -0.0441 -0.0578 -0.4570
  151SAPE  H10R16712   3.694   2.510   7.783 -0.3444  1.0946  2.0717
  151SAPE  H10S16713   3.834   2.531   7.888  0.1599 -1.5904  0.9506
  151SAPE  C21116714   3.752   2.326   7.870  0.0765 -0.1674 -0.0150
  151SAPE  H11R16715   3.732   2.245   7.799  2.2572 -1.5132  0.8676
  151SAPE  C21216716   3.735   2.302   7.999  0.4928 -0.3864 -0.8682
  151SAPE  H12R16717   3.708   2.199   8.026 -0.7263 -0.0251 -0.6702
  151SAPE  C21316718   3.765   2.388   8.118  0.1525  0.1024 -0.6108
  151SAPE  H13R16719   3.864   2.436   8.100  0.3932  0.5942  1.9281
  151SAPE  H13S16720   3.779   2.324   8.207 -3.4883  0.4533  0.2649
  151SAPE  C21416721   3.669   2.497   8.149 -0.0658 -0.0896  0.6598
  151SAPE  H14R16722   3.679   2.586   8.086  1.0490 -1.4568 -1.1514
  151SAPE  C21516723   3.576   2.498   8.247  0.0768 -0.7800 -0.7774
  151SAPE  H15R16724   3.513   2.588   8.256  0.7519 -0.1705 -1.9310
  151SAPE  C21616725   3.552   2.384   8.349 -0.4155 -0.2825 -0.1024
  151SAPE  H16R16726   3.555   2.284   8.302 -1.1502 -0.6194  0.5550
  151SAPE  H16S16727   3.446   2.396   8.383 -0.0259 -0.2813  1.1495
  151SAPE  C21716728   3.624   2.406   8.485  0.0639  0.9066 -0.0155
  151SAPE  H17R16729   3.607   2.511   8.516 -0.7395  0.4783  1.0137
  151SAPE  H17S16730   3.733   2.397   8.466 -0.0428  0.5228 -0.4738
  151SAPE  C21816731   3.585   2.303   8.592  0.3273 -0.1792  0.3127
  151SAPE  H18R16732   3.475   2.304   8.607  0.3860  2.2087  0.7975
  151SAPE  H18S16733   3.635   2.326   8.689  0.1182  0.8266  0.1853
  151SAPE  C21916734   3.618   2.159   8.556  0.1805  0.7294  0.0771
  151SAPE  H19R16735   3.724   2.143   8.528 -0.3494 -2.4109 -0.2297
  151SAPE  H19S16736   3.550   2.105   8.487  1.5476  0.9696 -1.4821
  151SAPE  C22016737   3.601   2.081   8.687  0.9110 -0.0323 -0.3551
  151SAPE  H20R16738   3.510   2.087   8.749 -0.0087  2.5679 -1.8559
  151SAPE  H20S16739   3.620   1.972   8.679 -0.0458 -0.5603  3.6867
  151SAPE  H20T16740   3.687   2.115   8.748  0.5120 -2.1182  1.4029
  151SAPE   C3316741   3.928   3.230   7.180 -0.5540  0.5825  0.8374
  151SAPE   H3X16742   4.032   3.262   7.204 -0.4689  2.8617 -2.3113
  151SAPE   H3Y16743   3.923   3.119   7.187 -0.8531  0.3902 -1.8975
  151SAPE   C3416744   3.831   3.274   7.289  0.9142 -0.1639 -1.3698
  151SAPE   H4X16745   3.725   3.249   7.268  1.1204 -1.7125 -0.6154
  151SAPE   H4Y16746   3.836   3.385   7.280  1.1052 -0.1534 -1.1256
  151SAPE   C3516747   3.842   3.242   7.439 -0.0726  0.5797 -0.9166
  151SAPE   H5X16748   3.823   3.132   7.438  0.3779  0.5107 -1.6659
  151SAPE   H5Y16749   3.770   3.299   7.501 -1.0733 -0.4659 -1.0959
  151SAPE   C3616750   3.983   3.276   7.498 -0.2507  0.0912  0.2978
  151SAPE   H6X16751   3.992   3.385   7.477 -2.0744 -0.0848 -1.6396
  151SAPE   H6Y16752   4.064   3.229   7.438 -0.9135  0.1421 -0.6518
  151SAPE   C3716753   3.995   3.252   7.649 -0.7387 -0.1371  0.5622
  151SAPE   H7X16754   4.013   3.142   7.647  0.9102  0.1312 -1.3158
  151SAPE   H7Y16755   3.900   3.267   7.705 -0.4441 -1.3724  1.4236
  151SAPE   C3816756   4.119   3.313   7.719 -0.2669  0.3133  0.4950
  151SAPE   H8X16757   4.102   3.419   7.745  0.3372  0.7364 -0.7873
  151SAPE   H8Y16758   4.210   3.317   7.655  0.2555 -1.6667  1.0743
  151SAPE   C3916759   4.173   3.237   7.839  0.0536  0.2189 -0.0000
  151SAPE   H9X16760   4.195   3.138   7.795  1.2332 -0.5172  2.2017
  151SAPE   H9Y16761   4.088   3.223   7.909  0.2740  0.1457  0.2533
  151SAPE  C31016762   4.281   3.319   7.913 -0.5010  0.3139  0.1319
  151SAPE  H10X16763   4.237   3.421   7.918 -2.7976 -0.5668 -1.2975
  151SAPE  H10Y16764   4.375   3.320   7.854  0.2185 -2.2127  1.1728
  151SAPE  C31116765   4.310   3.269   8.052  0.4852 -0.1760 -0.8813
  151SAPE  H11X16766   4.222   3.275   8.119  1.1832 -1.3585  0.1697
  151SAPE  H11Y16767   4.389   3.336   8.092  0.5469 -1.7618  1.7245
  151SAPE  C31216768   4.368   3.127   8.069  1.0241 -0.4689 -0.3155
  151SAPE  H12X16769   4.436   3.108   7.983  2.7180  0.6455  0.7151
  151SAPE  H12Y16770   4.286   3.053   8.065 -0.1039  0.7536 -0.2502
  151SAPE  C31316771   4.429   3.105   8.205 -0.2557 -0.6925  0.4500
  151SAPE  H13X16772   4.353   3.136   8.281 -1.2217 -1.0396 -0.3563
  151SAPE  H13Y16773   4.516   3.173   8.216  0.1826 -0.8757 -1.8272
  151SAPE  C31416774   4.454   2.955   8.240  0.4231  0.1888  0.2680
  151SAPE  H14X16775   4.518   2.913   8.160  1.0077  3.1344 -0.8782
  151SAPE  H14Y16776   4.355   2.905   8.242 -0.1279  1.2641  0.5593
  151SAPE  C31516777   4.523   2.938   8.368  0.3247 -0.1433  0.5948
  151SAPE  H15X16778   4.615   3.000   8.366  0.6750 -0.6781 -0.6189
  151SAPE  H15Y16779   4.544   2.829   8.359  0.5556 -0.2431  2.1848
  151SAPE  C31616780   4.443   2.957   8.503 -0.7295  0.3589  0.0916
  151SAPE  H16X16781   4.350   2.896   8.511 -1.5181  1.5645  0.3663
  151SAPE  H16Y16782   4.410   3.061   8.524  0.7407  0.6007  1.2552
  151SAPE  C31716783   4.528   2.895   8.625  0.1135 -0.0764 -0.0063
  151SAPE  H17X16784   4.625   2.948   8.642 -0.3650  0.6930  0.3559
  151SAPE  H17Y16785   4.559   2.790   8.606 -1.5486 -0.1929 -2.3168
  151SAPE  C31816786   4.451   2.899   8.763 -0.0073  0.4091 -0.1252
  151SAPE  H18X16787   4.524   2.882   8.845 -0.8884 -0.1820  0.5358
  151SAPE  H18Y16788   4.364   2.830   8.760  1.0439 -0.9056 -2.3539
  151SAPE  H18Z16789   4.408   3.001   8.779  0.0601  0.5527 -0.8382
  152SAPE     N16790   0.441   0.067   6.285  0.5103 -0.4636 -0.3543
  152SAPE   HN116791   0.495   0.127   6.350  0.4958 -0.2798 -0.5099
  152SAPE   HN216792   0.339   0.083   6.297  0.3730 -1.7531  0.3001
  152SAPE   HN316793   0.463  -0.030   6.317  0.5554  0.6180  3.0351
  152SAPE   C1216794   0.494   0.095   6.144 -0.2346 -0.2955  0.0405
  152SAPE  H12A16795   0.573   0.172   6.160 -0.4104 -0.1829  0.3763
  152SAPE  H12B16796   0.408   0.130   6.083  0.0301  1.0224  0.3994
  152SAPE   C1116797   0.568  -0.037   6.109  0.4307 -0.3567 -0.0439
  152SAPE  H11A16798   0.589  -0.055   6.001  1.6616  3.9355 -0.6221
  152SAPE  H11B16799   0.503  -0.122   6.140  1.1075 -0.8628  0.0073
  152SAPE     P16800   0.834  -0.064   6.141 -0.3161 -0.2240  0.2125
  152SAPE   O1316801   0.863   0.020   6.026  0.0438  0.7735  0.0731
  152SAPE   O1416802   0.924  -0.044   6.254  0.5053  0.7566  0.0332
  152SAPE   O1216803   0.691  -0.041   6.186  0.2130  0.5551  0.4231
  152SAPE   O1116804   0.854  -0.219   6.098 -0.2970  0.7256 -0.3224
  152SAPE    C116805   0.750  -0.314   6.133  0.0666  0.5734 -0.2925
  152SAPE    HA16806   0.656  -0.291   6.077  0.0791  0.4778 -0.3533
  152SAPE    HB16807   0.784  -0.411   6.092  0.7616  0.9531 -0.6177
  152SAPE    C216808   0.740  -0.344   6.287  0.3027 -0.0983 -0.0272
  152SAPE    HS16809   0.704  -0.252   6.337 -1.7422 -0.4579 -0.8204
  152SAPE   O2116810   0.872  -0.387   6.327  0.7647  0.6316  0.2443
  152SAPE   C2116811   0.923  -0.327   6.437  0.4260 -0.0005  0.6890
  152SAPE   O2216812   0.858  -0.245   6.503 -0.4974  0.0401 -0.2936
  152SAPE   C2216813   1.068  -0.361   6.451  0.9915  0.0296 -0.8548
  152SAPE   H2R16814   1.080  -0.470   6.469 -1.8790 -0.0459  0.9940
  152SAPE   H2S16815   1.117  -0.355   6.352  2.9809  0.0945  0.1123
  152SAPE    C316816   0.635  -0.459   6.301  0.3323  0.0014 -0.2379
  152SAPE    HX16817   0.670  -0.551   6.250 -1.5695  0.0357 -1.6581
  152SAPE    HY16818   0.545  -0.425   6.246 -0.6648 -1.4230  0.4852
  152SAPE   O3116819   0.600  -0.486   6.442  0.4088  0.6897 -0.1655
  152SAPE   C3116820   0.557  -0.609   6.456 -0.6405 -0.6962  0.1936
  152SAPE   O3216821   0.529  -0.684   6.368 -0.4554  0.1299 -0.3081
  152SAPE   C3216822   0.558  -0.645   6.605  0.0166 -0.1422  0.9813
  152SAPE   H2X16823   0.538  -0.754   6.612 -0.5681 -0.0798  0.3026
  152SAPE   H2Y16824   0.474  -0.594   6.655  0.5879  1.2718  0.5392
  152SAPE   C2316825   1.147  -0.278   6.553 -0.4440  0.2972 -0.2163
  152SAPE   H3R16826   1.096  -0.180   6.559 -0.0987  0.3726  1.6706
  152SAPE   H3S16827   1.256  -0.276   6.532 -0.1828 -2.3256  0.6325
  152SAPE   C2416828   1.130  -0.336   6.690  0.2675  0.2078 -0.0330
  152SAPE   H4R16829   1.144  -0.446   6.689  0.4136  0.2285 -0.0887
  152SAPE   H4S16830   1.025  -0.314   6.720  0.3469  1.3700 -0.5933
  152SAPE   C2516831   1.215  -0.260   6.782  0.2674  0.4263 -0.5816
  152SAPE   H5R16832   1.308  -0.219   6.740  0.6453  0.7102  0.5105
  152SAPE   C2616833   1.181  -0.222   6.909 -0.0817  0.1829  0.3298
  152SAPE   H6R16834   1.255  -0.162   6.963 -0.5882  1.1119  0.0085
  152SAPE   C2716835   1.071  -0.250   7.002  0.5135 -0.1585 -0.2935
  152SAPE   H7R16836   1.112  -0.301   7.092  1.2012 -1.2735 -1.2317
  152SAPE   H7S16837   1.002  -0.319   6.950  1.2468 -0.2850 -1.1123
  152SAPE   C2816838   0.998  -0.120   7.039  0.0457  0.3504 -0.4031
  152SAPE   H8R16839   0.938  -0.073   6.959  0.8577  1.8750 -0.1460
  152SAPE   C2916840   0.986  -0.064   7.161 -0.5686 -0.2100 -0.1938
  152SAPE   H9R16841   0.924   0.026   7.175  0.2738  0.5383 -1.1880
  152SAPE  C21016842   1.053  -0.111   7.293 -0.5701 -0.0049  1.6141
  152SAPE  H10R16843   1.155  -0.150   7.270 -0.6350  0.5481  0.3291
  152SAPE  H10S16844   1.010  -0.204   7.337 -0.0278 -1.0843 -0.0574
  152SAPE  C21116845   1.076   0.002   7.389  0.5470  0.8037 -0.1687
  152SAPE  H11R16846   1.079   0.103   7.344  0.5031  1.4335  1.2330
  152SAPE  C21216847   1.084   0.007   7.525  0.0349  0.0445  0.7720
  152SAPE  H12R16848   1.095   0.102   7.578  0.6662  0.6901 -0.5105
  152SAPE  C21316849   1.081  -0.114   7.617  0.4883 -0.3148  0.5013
  152SAPE  H13R16850   1.032  -0.204   7.574 -1.6755  0.0776  2.0539
  152SAPE  H13S16851   1.010  -0.099   7.701 -1.5959 -0.2290 -1.2088
  152SAPE  C21416852   1.216  -0.149   7.659 -0.7657  0.4138 -0.5185
  152SAPE  H14R16853   1.287  -0.165   7.577 -0.1702 -1.4546  0.3271
  152SAPE  C21516854   1.258  -0.152   7.787  0.0680  0.8318  0.2385
  152SAPE  H15R16855   1.363  -0.167   7.816 -0.2130  1.5144  1.6556
  152SAPE  C21616856   1.169  -0.120   7.907 -0.3034 -0.3260 -0.0605
  152SAPE  H16R16857   1.062  -0.137   7.882 -0.7497  1.9319  0.2811
  152SAPE  H16S16858   1.190  -0.015   7.934 -0.7715 -0.1944 -0.2138
  152SAPE  C21716859   1.207  -0.207   8.026 -0.0873  0.1337 -0.0278
  152SAPE  H17R16860   1.315  -0.200   8.049  0.6419  1.6293 -3.4988
  152SAPE  H17S16861   1.195  -0.317   8.010 -1.3289  0.0896  1.1069
  152SAPE  C21816862   1.120  -0.187   8.153 -0.5317  0.0255 -0.1242
  152SAPE  H18R16863   1.011  -0.208   8.146 -0.7096  0.5361  0.9508
  152SAPE  H18S16864   1.118  -0.078   8.176  0.8869 -0.4483  2.4586
  152SAPE  C21916865   1.169  -0.257   8.281 -0.2170 -0.7049  0.3105
  152SAPE  H19R16866   1.278  -0.240   8.295 -0.1793 -0.2742 -0.5050
  152SAPE  H19S16867   1.150  -0.366   8.275 -0.5491 -0.6570  0.4653
  152SAPE  C22016868   1.108  -0.183   8.400  0.0277 -0.9915 -0.7217
  152SAPE  H20R16869   1.144  -0.236   8.491  0.8919  1.1859  0.2171
  152SAPE  H20S16870   0.997  -0.195   8.396 -0.2656  1.4378 -0.3344
  152SAPE  H20T16871   1.130  -0.075   8.411  2.3177 -1.6776  1.9452
  152SAPE   C3316872   0.692  -0.616   6.674 -0.3824 -0.4038  0.2166
  152SAPE   H3X16873   0.690  -0.505   6.663 -0.2013 -0.4989 -0.8237
  152SAPE   H3Y16874   0.779  -0.661   6.621  1.2208  0.1423  2.3158
  152SAPE   C3416875   0.690  -0.664   6.817  0.6561 -0.3295  0.1522
  152SAPE   H4X16876   0.672  -0.773   6.829  0.6612 -0.6167 -2.0768
  152SAPE   H4Y16877   0.603  -0.614   6.864  0.8130 -1.4364  1.6495
  152SAPE   C3516878   0.820  -0.627   6.884  0.3073 -0.2885  0.1649
  152SAPE   H5X16879   0.842  -0.521   6.858 -0.0379 -0.6129 -1.5164
  152SAPE   H5Y16880   0.898  -0.698   6.851  1.9218  0.7084  1.7120
  152SAPE   C3616881   0.802  -0.650   7.033 -0.3266 -0.6726 -0.1487
  152SAPE   H6X16882   0.781  -0.759   7.035 -0.0145 -0.7840 -1.9677
  152SAPE   H6Y16883   0.700  -0.610   7.054 -0.6210 -0.9202 -1.0949
  152SAPE   C3716884   0.917  -0.595   7.113  0.1052  0.5950 -0.1913
  152SAPE   H7X16885   0.917  -0.487   7.088 -0.6635  0.2165 -1.8538
  152SAPE   H7Y16886   1.018  -0.633   7.087 -1.3629 -2.9172 -1.1020
  152SAPE   C3816887   0.897  -0.616   7.265 -0.0044 -0.9984  0.0829
  152SAPE   H8X16888   0.886  -0.724   7.286  1.1874 -1.3231 -0.9430
  152SAPE   H8Y16889   0.816  -0.562   7.320  0.2441 -0.7190  0.1733
  152SAPE   C3916890   1.024  -0.556   7.334  0.6649  0.1786 -0.5693
  152SAPE   H9X16891   1.030  -0.447   7.311  0.1946  0.0993 -1.1020
  152SAPE   H9Y16892   1.114  -0.603   7.289  1.8299 -0.7517  2.6238
  152SAPE  C31016893   1.024  -0.570   7.485 -0.4771  0.3784 -0.4267
  152SAPE  H10X16894   0.932  -0.529   7.532 -0.1485  0.3953  0.2040
  152SAPE  H10Y16895   1.106  -0.499   7.512 -0.4487  0.0082  0.4683
  152SAPE  C31116896   1.054  -0.708   7.540  0.3426 -0.0255 -0.0509
  152SAPE  H11X16897   1.130  -0.767   7.486  0.0093 -0.3946 -0.1188
  152SAPE  H11Y16898   0.962  -0.771   7.542 -0.9181  1.6783 -2.6747
  152SAPE  C31216899   1.112  -0.696   7.680  0.0822  0.3301  0.7192
  152SAPE  H12X16900   1.068  -0.607   7.729 -1.2441 -0.0294  0.1937
  152SAPE  H12Y16901   1.220  -0.669   7.668 -0.2988  1.1412 -0.9872
  152SAPE  C31316902   1.088  -0.817   7.772  0.0456  0.5267  0.8390
  152SAPE  H13X16903   1.141  -0.902   7.723 -1.1396 -0.1535  0.7288
  152SAPE  H13Y16904   0.979  -0.835   7.780 -0.2719  1.6547 -0.7404
  152SAPE  C31416905   1.144  -0.774   7.918  0.0824  0.1316 -0.3792
  152SAPE  H14X16906   1.079  -0.695   7.961 -0.0746  1.1372 -2.3808
  152SAPE  H14Y16907   1.243  -0.722   7.916 -0.2965  0.8792  0.0517
  152SAPE  C31516908   1.144  -0.890   8.017  0.7993 -0.8688 -0.3200
  152SAPE  H15X16909   1.187  -0.978   7.965  0.1118 -0.0135 -2.3780
  152SAPE  H15Y16910   1.036  -0.907   8.039  1.2013 -0.3386  2.2454
  152SAPE  C31616911   1.223  -0.845   8.140  0.7225 -0.6073  0.0179
  152SAPE  H16X16912   1.177  -0.745   8.161 -2.4417 -1.7515 -1.0763
  152SAPE  H16Y16913   1.324  -0.831   8.096  1.1518 -2.1444  0.4828
  152SAPE  C31716914   1.222  -0.942   8.273  0.4321 -0.3455  0.6146
  152SAPE  H17X16915   1.290  -0.902   8.351  0.4463  2.4875 -0.7657
  152SAPE  H17Y16916   1.261  -1.042   8.244  0.4972  0.5100 -2.4672
  152SAPE  C31816917   1.081  -0.944   8.331  0.3543  0.6166 -0.9294
  152SAPE  H18X16918   1.084  -1.005   8.425 -0.3820  0.8221 -0.7681
  152SAPE  H18Y16919   1.011  -0.993   8.260 -0.5421  0.1887  0.2135
  152SAPE  H18Z16920   1.051  -0.839   8.350 -0.5338  0.0866  0.7223
  153SAPE     N16921   4.219   6.473   6.199  0.4377  0.6841 -0.0011
  153SAPE   HN116922   4.124   6.437   6.219 -0.5751  2.6034 -1.1593
  153SAPE   HN216923   4.214   6.528   6.110 -1.0152  2.2841  1.0345
  153SAPE   HN316924   4.287   6.397   6.181 -1.4921 -0.9231 -0.6075
  153SAPE   C1216925   4.247   6.564   6.317 -0.0450  0.0632 -0.5619
  153SAPE  H12A16926   4.268   6.490   6.397 -0.9359 -1.2315 -1.5058
  153SAPE  H12B16927   4.153   6.612   6.351 -0.1272 -1.2503  1.1219
  153SAPE   C1116928   4.359   6.676   6.286  0.3352  0.2678 -1.2015
  153SAPE  H11A16929   4.447   6.624   6.244  1.3907  0.7552  0.3389
  153SAPE  H11B16930   4.381   6.723   6.384 -0.1206  0.1398 -1.0343
  153SAPE     P16931   4.236   6.893   6.196  0.1616  0.1635 -0.0825
  153SAPE   O1316932   4.236   6.959   6.064  0.6943  0.0463  0.5838
  153SAPE   O1416933   4.106   6.871   6.260 -0.4306 -0.3157 -0.3321
  153SAPE   O1216934   4.315   6.757   6.178 -0.6885 -0.1557 -0.3654
  153SAPE   O1116935   4.333   6.966   6.297 -0.1675  0.2207 -0.0200
  153SAPE    C116936   4.330   7.104   6.304  0.4791 -0.7955  0.8762
  153SAPE    HA16937   4.429   7.146   6.274 -1.4408  2.4675 -1.1574
  153SAPE    HB16938   4.266   7.142   6.221  0.4718 -0.2401  1.1350
  153SAPE    C216939   4.281   7.173   6.438 -0.4273 -0.2703 -0.8402
  153SAPE    HS16940   4.293   7.283   6.443 -1.6354 -0.1548 -0.1359
  153SAPE   O2116941   4.353   7.130   6.554  0.7060  0.1894 -0.6585
  153SAPE   C2116942   4.479   7.161   6.555 -0.2948  0.1998 -0.0073
  153SAPE   O2216943   4.539   7.222   6.467 -0.3239  0.4217 -0.1262
  153SAPE   C2216944   4.545   7.101   6.680 -0.3175  0.0583 -0.6900
  153SAPE   H2R16945   4.500   7.129   6.777  0.0655 -1.0997 -0.1662
  153SAPE   H2S16946   4.543   6.990   6.669  1.1719  0.1260 -2.0104
  153SAPE    C316947   4.131   7.141   6.463 -0.0511  0.0067  0.0562
  153SAPE    HX16948   4.128   7.031   6.481 -3.5513 -0.3765 -2.3118
  153SAPE    HY16949   4.078   7.169   6.370  0.4368  3.7944  0.8452
  153SAPE   O3116950   4.077   7.215   6.574  0.1997 -0.1410 -0.3170
  153SAPE   C3116951   3.961   7.161   6.626  0.0508 -0.3394  0.5968
  153SAPE   O3216952   3.913   7.056   6.584 -0.6882  0.5081  0.0611
  153SAPE   C3216953   3.906   7.253   6.725  0.1222  0.0484 -0.3107
  153SAPE   H2X16954   3.796   7.258   6.708  0.0911 -2.0276 -0.9641
  153SAPE   H2Y16955   3.947   7.356   6.724 -2.5571  1.1543  0.4325
  153SAPE   C2316956   4.695   7.146   6.679  0.5457 -0.1932  0.7153
  153SAPE   H3R16957   4.753   7.135   6.585  0.0530  1.2581  0.2219
  153SAPE   H3S16958   4.732   7.085   6.764  1.0293  1.7718  1.9558
  153SAPE   C2416959   4.727   7.291   6.722  0.2058  0.1288  0.6184
  153SAPE   H4R16960   4.689   7.296   6.826 -0.3672 -0.6569  0.4466
  153SAPE   H4S16961   4.672   7.367   6.662 -0.1704 -1.4203 -1.0111
  153SAPE   C2516962   4.876   7.332   6.708 -0.0068  0.6539  0.2918
  153SAPE   H5R16963   4.916   7.365   6.611 -0.4561 -0.7060 -0.3825
  153SAPE   C2616964   4.960   7.330   6.815 -0.2419 -0.0072 -0.3254
  153SAPE   H6R16965   5.065   7.358   6.797  1.0708 -3.6055  1.3374
  153SAPE   C2716966   4.937   7.280   6.950  1.0217 -0.7512  0.4311
  153SAPE   H7R16967   4.981   7.179   6.960 -0.5879 -1.2727  2.5619
  153SAPE   H7S16968   4.829   7.271   6.972  1.3737  1.0405  3.1655
  153SAPE   C2816969   5.009   7.353   7.061 -0.4041  0.6628  0.3055
  153SAPE   H8R16970   5.095   7.418   7.038  0.9050 -1.4016 -0.7370
  153SAPE   C2916971   4.966   7.347   7.187  0.4925 -0.2479  0.0846
  153SAPE   H9R16972   5.015   7.417   7.256 -0.2145  0.0491  0.2884
  153SAPE  C21016973   4.847   7.278   7.250 -0.2449 -0.4152 -0.4808
  153SAPE  H10R16974   4.894   7.198   7.311  0.4916 -0.0984 -0.6306
  153SAPE  H10S16975   4.781   7.221   7.180 -0.9377 -0.3985  0.1490
  153SAPE  C21116976   4.757   7.366   7.336 -0.2252 -0.3413  0.3356
  153SAPE  H11R16977   4.669   7.416   7.293 -0.9960  0.0044  2.2797
  153SAPE  C21216978   4.766   7.386   7.467  0.0852  0.5727  0.3957
  153SAPE  H12R16979   4.705   7.459   7.523  0.2110  1.4139 -0.5488
  153SAPE  C21316980   4.877   7.334   7.558 -0.4197  0.3238 -0.8697
  153SAPE  H13R16981   4.954   7.281   7.499 -0.8840 -1.2618 -0.0722
  153SAPE  H13S16982   4.832   7.253   7.619  1.4988 -2.0970 -2.5728
  153SAPE  C21416983   4.940   7.437   7.651 -0.4183 -0.1745 -0.1193
  153SAPE  H14R16984   5.044   7.436   7.617 -1.1524 -1.7591 -2.4303
  153SAPE  C21516985   4.899   7.501   7.761  0.2228  0.3030 -0.5142
  153SAPE  H15R16986   4.952   7.587   7.803 -0.6830  0.3061  0.6372
  153SAPE  C21616987   4.764   7.492   7.829  0.4615  0.2642 -0.1088
  153SAPE  H16R16988   4.678   7.487   7.759 -0.8974 -1.9720  1.6296
  153SAPE  H16S16989   4.734   7.582   7.886 -0.8163 -0.2869  0.1082
  153SAPE  C21716990   4.761   7.375   7.925 -0.0922  0.0798 -1.0198
  153SAPE  H17R16991   4.824   7.400   8.013 -0.4360  0.1422 -0.7903
  153SAPE  H17S16992   4.789   7.284   7.867 -0.4920  0.1905 -1.3855
  153SAPE  C21816993   4.612   7.336   7.954 -0.1082 -0.9966 -0.1734
  153SAPE  H18R16994   4.546   7.333   7.865 -0.3179  0.2068 -0.0603
  153SAPE  H18S16995   4.564   7.415   8.014 -1.6641 -1.6036 -0.6047
  153SAPE  C21916996   4.599   7.196   8.015 -0.2384  0.7147 -0.4182
  153SAPE  H19R16997   4.689   7.182   8.078 -1.1313  1.0731  0.9536
  153SAPE  H19S16998   4.600   7.128   7.928  2.2347  1.3781 -0.9794
  153SAPE  C22016999   4.472   7.171   8.091 -0.2250 -0.4744 -0.3184
  153SAPE  H20R17000   4.464   7.064   8.119 -2.5790 -0.0519  0.7440
  153SAPE  H20S17001   4.378   7.202   8.040 -0.6695 -0.7013  0.3632
  153SAPE  H20T17002   4.476   7.228   8.186 -2.8191  2.0870 -1.6402
  153SAPE   C3317003   3.934   7.203   6.868  0.2092  0.3080 -0.9747
  153SAPE   H3X17004   4.042   7.187   6.891  0.0731 -0.0352 -0.5562
  153SAPE   H3Y17005   3.901   7.098   6.884 -0.2979  0.8102  1.5129
  153SAPE   C3417006   3.886   7.297   6.981  0.0533 -0.0507 -0.3309
  153SAPE   H4X17007   3.776   7.309   6.984  0.3797  3.7457 -0.4606
  153SAPE   H4Y17008   3.926   7.395   6.946  0.0594 -0.4531 -1.4558
  153SAPE   C3517009   3.935   7.260   7.120  0.0020 -0.2751  0.2714
  153SAPE   H5X17010   4.045   7.244   7.121 -0.4722 -3.8449  0.1091
  153SAPE   H5Y17011   3.897   7.156   7.132 -0.1097 -0.3673 -0.8093
  153SAPE   C3617012   3.878   7.360   7.230  0.6465 -0.5673  0.6188
  153SAPE   H6X17013   3.768   7.348   7.235  0.5461 -0.2030 -0.5219
  153SAPE   H6Y17014   3.909   7.465   7.209  1.2628 -0.6381  1.1653
  153SAPE   C3717015   3.922   7.316   7.366 -0.3233 -0.1308 -0.0107
  153SAPE   H7X17016   4.033   7.314   7.366 -0.2136  3.0754 -1.0157
  153SAPE   H7Y17017   3.885   7.211   7.372  0.2350 -0.3319 -0.0620
  153SAPE   C3817018   3.870   7.393   7.488 -0.2199  0.7500  0.1611
  153SAPE   H8X17019   3.759   7.393   7.501 -0.2629  0.6754 -0.2017
  153SAPE   H8Y17020   3.896   7.501   7.482 -1.4914  1.2609  2.9542
  153SAPE   C3917021   3.932   7.334   7.607  0.5369  0.3708  0.0827
  153SAPE   H9X17022   4.040   7.308   7.597  0.4820 -0.4794  1.5545
  153SAPE   H9Y17023   3.888   7.237   7.636  1.5973  0.7177  3.0237
  153SAPE  C31017024   3.931   7.430   7.724  0.2874  0.2311 -0.2231
  153SAPE  H10X17025   3.838   7.490   7.725  0.5546  0.6666 -1.1475
  153SAPE  H10Y17026   4.016   7.502   7.718  0.6319 -0.1495  0.0274
  153SAPE  C31117027   3.943   7.360   7.861 -0.3580  0.2571 -0.3382
  153SAPE  H11X17028   3.986   7.436   7.929 -0.3402 -1.7700  1.9795
  153SAPE  H11Y17029   4.021   7.281   7.859 -1.9493 -1.3755 -0.0307
  153SAPE  C31217030   3.815   7.296   7.900  0.1569  0.5126 -0.5486
  153SAPE  H12X17031   3.772   7.227   7.825 -1.0358  0.8640 -0.1922
  153SAPE  H12Y17032   3.741   7.378   7.899  0.2271  0.5703 -1.2823
  153SAPE  C31317033   3.817   7.234   8.036  0.4974 -0.1621 -0.3443
  153SAPE  H13X17034   3.876   7.140   8.042 -1.6515 -1.4126  1.9403
  153SAPE  H13Y17035   3.710   7.207   8.047  0.9083 -1.9639 -0.5344
  153SAPE  C31417036   3.861   7.317   8.146 -0.4952  0.4189 -0.5578
  153SAPE  H14X17037   3.788   7.393   8.179 -1.7661 -1.3236  0.7441
  153SAPE  H14Y17038   3.956   7.368   8.119 -1.1572  0.2678 -3.2752
  153SAPE  C31517039   3.903   7.233   8.273 -0.5099  0.1115  0.3227
  153SAPE  H15X17040   3.914   7.294   8.365 -0.8019 -0.2869  0.6268
  153SAPE  H15Y17041   3.997   7.182   8.239  0.0421  1.2944  0.0534
  153SAPE  C31617042   3.794   7.137   8.318 -0.6422 -0.1245 -0.5162
  153SAPE  H16X17043   3.835   7.071   8.399  2.9166  1.2598 -1.0903
  153SAPE  H16Y17044   3.766   7.063   8.240 -0.1798 -1.8837  0.9240
  153SAPE  C31717045   3.672   7.216   8.375  0.0294  0.1011  0.2366
  153SAPE  H17X17046   3.657   7.292   8.295 -1.1711  2.3951  2.5579
  153SAPE  H17Y17047   3.706   7.282   8.458  1.4768 -1.3302  0.7951
  153SAPE  C31817048   3.544   7.135   8.402  0.2318  0.4222 -0.0103
  153SAPE  H18X17049   3.453   7.197   8.416 -1.4367 -1.3112 -2.6779
  153SAPE  H18Y17050   3.556   7.076   8.495  0.1479  1.4253  0.6412
  153SAPE  H18Z17051   3.531   7.061   8.320  2.3978  0.9732 -0.8839
  154SAPE     N17052   1.110   5.212   5.949 -0.1696 -0.3459 -0.1007
  154SAPE   HN117053   1.084   5.308   5.919 -1.2393 -1.0605 -1.5699
  154SAPE   HN217054   1.141   5.162   5.863  0.6417  0.2935 -0.1899
  154SAPE   HN317055   1.028   5.163   5.990  0.6594 -1.2375  0.4978
  154SAPE   C1217056   1.211   5.200   6.055 -0.2747 -0.0232  0.9103
  154SAPE  H12A17057   1.220   5.094   6.087 -0.3656  0.2328  1.7987
  154SAPE  H12B17058   1.178   5.256   6.145 -0.2238  0.1706  0.8091
  154SAPE   C1117059   1.348   5.257   6.003 -1.1423 -0.5398 -0.1123
  154SAPE  H11A17060   1.333   5.365   5.985  1.0969 -0.0680  0.7419
  154SAPE  H11B17061   1.377   5.209   5.907 -0.8351  0.3105 -0.4490
  154SAPE     P17062   1.572   5.341   6.113 -0.3908 -0.0905  0.4385
  154SAPE   O1317063   1.622   5.380   5.978  0.3831  0.3657 -0.9101
  154SAPE   O1417064   1.518   5.450   6.200 -0.3900 -0.0905 -0.2581
  154SAPE   O1217065   1.462   5.233   6.089  0.3280  0.1148 -0.4210
  154SAPE   O1117066   1.680   5.254   6.189 -0.4366 -0.0357  0.5497
  154SAPE    C117067   1.643   5.179   6.305 -0.0697  0.0162 -0.0151
  154SAPE    HA17068   1.541   5.138   6.294 -1.2712  2.8152  0.1970
  154SAPE    HB17069   1.702   5.086   6.295  1.2429  0.9868 -1.6003
  154SAPE    C217070   1.664   5.252   6.432  0.5710  0.3566  0.3251
  154SAPE    HS17071   1.660   5.360   6.406  1.0194 -0.1140 -1.8262
  154SAPE   O2117072   1.786   5.222   6.487  0.3261  0.3312 -0.0820
  154SAPE   C2117073   1.856   5.323   6.542  0.2416  1.0031 -0.5048
  154SAPE   O2217074   1.832   5.443   6.520  0.2214 -0.2634 -0.2844
  154SAPE   C2217075   1.963   5.269   6.631 -0.5499 -0.1240  1.1507
  154SAPE   H2R17076   1.927   5.178   6.682  0.3155 -1.4637 -0.5341
  154SAPE   H2S17077   2.046   5.237   6.563 -1.2648 -2.4297  1.2963
  154SAPE    C317078   1.562   5.214   6.540 -0.1448 -0.5078  0.4254
  154SAPE    HX17079   1.560   5.109   6.578  0.6272 -1.3679 -1.8263
  154SAPE    HY17080   1.461   5.233   6.496 -0.3562 -2.9922 -0.2191
  154SAPE   O3117081   1.591   5.297   6.657  0.1786  0.0621 -0.2668
  154SAPE   C3117082   1.525   5.412   6.662 -0.2296  0.1863  0.3962
  154SAPE   O3217083   1.448   5.448   6.573 -0.5942 -0.2525 -0.0495
  154SAPE   C3217084   1.544   5.483   6.794  0.1414 -0.5167  0.3542
  154SAPE   H2X17085   1.466   5.562   6.803 -1.1836 -1.6678 -0.7623
  154SAPE   H2Y17086   1.645   5.527   6.781 -0.0935  1.0604  3.4372
  154SAPE   C2317087   2.018   5.362   6.743  0.1307 -0.0688 -0.9571
  154SAPE   H3R17088   2.071   5.448   6.697  1.5290  0.0549  0.8612
  154SAPE   H3S17089   2.092   5.304   6.801 -0.5929  1.7080  1.8522
  154SAPE   C2417090   1.903   5.398   6.837  0.7182  0.1934  0.5101
  154SAPE   H4R17091   1.862   5.309   6.890 -2.0949  0.2966 -1.3607
  154SAPE   H4S17092   1.817   5.437   6.780  0.5271 -0.1930  0.5323
  154SAPE   C2517093   1.938   5.503   6.943  1.0635 -0.1216  0.9964
  154SAPE   H5R17094   1.969   5.600   6.901  0.9280 -0.6950 -0.4646
  154SAPE   C2617095   1.929   5.495   7.078  0.1904  0.2950  0.0540
  154SAPE   H6R17096   1.949   5.582   7.142  0.1763 -1.5342  2.6185
  154SAPE   C2717097   1.872   5.380   7.155  0.2022  0.4170 -0.4356
  154SAPE   H7R17098   1.816   5.312   7.087 -0.7672  0.2662  0.5050
  154SAPE   H7S17099   1.798   5.424   7.225 -0.6818 -1.2596 -0.2883
  154SAPE   C2817100   1.980   5.297   7.219  0.8386  0.1919  0.6524
  154SAPE   H8R17101   2.068   5.273   7.156 -0.7033 -2.2116 -0.6649
  154SAPE   C2917102   1.984   5.256   7.349  0.5047 -1.0278  0.3161
  154SAPE   H9R17103   2.071   5.198   7.382  1.6641  0.0509 -0.8168
  154SAPE  C21017104   1.875   5.272   7.455 -0.3360  0.1313 -0.3646
  154SAPE  H10R17105   1.867   5.180   7.517 -2.2980 -0.8712 -2.0538
  154SAPE  H10S17106   1.781   5.294   7.399 -0.9666  0.0409  0.6310
  154SAPE  C21117107   1.896   5.381   7.555 -0.6249 -0.0880 -0.1570
  154SAPE  H11R17108   1.948   5.467   7.509 -0.4595 -1.0358 -1.8054
  154SAPE  C21217109   1.854   5.387   7.683  0.0347 -0.3578 -1.0232
  154SAPE  H12R17110   1.893   5.471   7.743  1.8934 -1.0877 -1.1816
  154SAPE  C21317111   1.777   5.283   7.752 -0.0122  0.4983  0.3151
  154SAPE  H13R17112   1.846   5.196   7.758  1.0780  0.9768 -3.7703
  154SAPE  H13S17113   1.700   5.244   7.681  1.1099 -1.0906 -0.0559
  154SAPE  C21417114   1.724   5.324   7.886  0.2274 -0.0687 -0.3251
  154SAPE  H14R17115   1.627   5.374   7.875  0.3576  0.0273 -1.0901
  154SAPE  C21517116   1.781   5.315   8.010 -0.1423 -0.0632 -0.7303
  154SAPE  H15R17117   1.732   5.360   8.097 -1.4855 -2.6843 -0.0956
  154SAPE  C21617118   1.914   5.255   8.041 -0.4917 -0.6722 -0.2085
  154SAPE  H16R17119   1.982   5.333   8.081  0.1223 -0.6290 -1.2966
  154SAPE  H16S17120   1.965   5.219   7.949 -0.3888  2.0997 -1.2875
  154SAPE  C21717121   1.929   5.152   8.155  0.2271 -0.1418  0.0540
  154SAPE  H17R17122   2.036   5.151   8.185  0.2701  1.7008  0.0114
  154SAPE  H17S17123   1.903   5.050   8.120  0.0555  0.5047 -1.7647
  154SAPE  C21817124   1.842   5.162   8.281  0.1143  0.0712  0.3239
  154SAPE  H18R17125   1.737   5.148   8.247  0.5973 -0.5375 -0.9389
  154SAPE  H18S17126   1.841   5.271   8.305 -2.7391  0.5321 -1.5793
  154SAPE  C21917127   1.884   5.068   8.396 -0.9260  0.1028 -0.3945
  154SAPE  H19R17128   1.901   4.967   8.353  0.2215  0.0847  0.0826
  154SAPE  H19S17129   1.793   5.070   8.460 -0.4688 -0.0349  0.2674
  154SAPE  C22017130   2.005   5.106   8.479  0.1533 -0.1489 -0.8344
  154SAPE  H20R17131   2.092   5.138   8.418  1.3524 -0.3136  0.7631
  154SAPE  H20S17132   2.032   5.019   8.543 -0.6480  0.9241  0.9909
  154SAPE  H20T17133   1.985   5.197   8.539  3.0422 -0.1786  0.2136
  154SAPE   C3317134   1.535   5.392   6.925  0.0193  0.7292  0.0762
  154SAPE   H3X17135   1.581   5.446   7.010  1.3171  1.4179 -1.0395
  154SAPE   H3Y17136   1.576   5.291   6.903 -0.7264  0.5754 -0.6418
  154SAPE   C3417137   1.397   5.360   6.949 -0.3484 -0.2755 -0.6713
  154SAPE   H4X17138   1.340   5.321   6.862 -0.7443 -0.6335 -0.2535
  154SAPE   H4Y17139   1.352   5.453   6.989  0.8895  0.3591 -0.7365
  154SAPE   C3517140   1.370   5.272   7.070  0.5347  0.5388 -0.5866
  154SAPE   H5X17141   1.448   5.294   7.146 -0.2804  0.8394  0.1673
  154SAPE   H5Y17142   1.384   5.167   7.038  0.1721  0.2483  0.2075
  154SAPE   C3617143   1.236   5.286   7.140  0.4810 -0.1112 -0.4750
  154SAPE   H6X17144   1.236   5.206   7.218 -0.8034 -0.7615 -1.1187
  154SAPE   H6Y17145   1.160   5.258   7.063  0.3191 -2.1934  0.4013
  154SAPE   C3717146   1.216   5.423   7.213  0.0471 -0.5762 -0.2599
  154SAPE   H7X17147   1.111   5.461   7.212 -0.1141 -1.0439 -1.7646
  154SAPE   H7Y17148   1.284   5.503   7.176  0.7252 -1.5943 -1.2482
  154SAPE   C3817149   1.243   5.425   7.361 -0.2779  0.1310 -0.0128
  154SAPE   H8X17150   1.170   5.353   7.405 -0.7185  0.5003 -0.1378
  154SAPE   H8Y17151   1.231   5.522   7.414 -1.4723  0.0329 -0.0893
  154SAPE   C3917152   1.389   5.389   7.412  0.5354 -0.3716 -1.0818
  154SAPE   H9X17153   1.459   5.457   7.360  0.2080  0.8499  0.0444
  154SAPE   H9Y17154   1.406   5.283   7.382  1.1996 -0.5350 -0.1649
  154SAPE  C31017155   1.395   5.391   7.570 -0.7330  0.0360  0.1881
  154SAPE  H10X17156   1.331   5.478   7.596  0.8236  1.5573 -0.9137
  154SAPE  H10Y17157   1.497   5.407   7.610 -0.7549 -0.0935  0.2948
  154SAPE  C31117158   1.340   5.277   7.657  0.1378 -0.1412  0.3703
  154SAPE  H11X17159   1.415   5.195   7.663  2.7804  2.1112 -0.8526
  154SAPE  H11Y17160   1.242   5.240   7.619  0.2032  1.2230 -1.1732
  154SAPE  C31217161   1.343   5.321   7.803 -0.1198 -0.5503  0.8501
  154SAPE  H12X17162   1.284   5.411   7.829 -0.0527  0.0449 -1.0287
  154SAPE  H12Y17163   1.448   5.352   7.818 -0.2495 -0.1177  0.8538
  154SAPE  C31317164   1.306   5.203   7.900  0.4554 -0.4865 -1.2036
  154SAPE  H13X17165   1.364   5.113   7.872  1.8639 -0.0773  0.2813
  154SAPE  H13Y17166   1.197   5.187   7.888  0.7770 -2.6313 -1.4724
  154SAPE  C31417167   1.338   5.251   8.047 -0.5914 -0.3584  0.0488
  154SAPE  H14X17168   1.305   5.356   8.060  0.1900 -0.1157  0.1138
  154SAPE  H14Y17169   1.446   5.236   8.069 -0.1379 -0.0647 -1.8504
  154SAPE  C31517170   1.266   5.177   8.160  0.0927  0.1117  0.3300
  154SAPE  H15X17171   1.316   5.078   8.168  1.9659  0.8011 -2.1948
  154SAPE  H15Y17172   1.164   5.178   8.117  0.8045 -0.4740 -1.4230
  154SAPE  C31617173   1.261   5.247   8.296  0.0530  0.2497  0.0688
  154SAPE  H16X17174   1.235   5.355   8.290  0.5934  0.2844 -2.1557
  154SAPE  H16Y17175   1.364   5.240   8.338  1.9567 -0.0169 -4.3315
  154SAPE  C31717176   1.162   5.169   8.374  0.2417 -0.5190  0.4473
  154SAPE  H17X17177   1.177   5.059   8.363 -1.0971 -0.6508 -0.2197
  154SAPE  H17Y17178   1.066   5.190   8.322  0.1267 -1.2689  0.3568
  154SAPE  C31817179   1.139   5.218   8.521 -0.3727 -0.5465 -0.2499
  154SAPE  H18X17180   1.062   5.161   8.578 -1.0952  0.9559  0.3239
  154SAPE  H18Y17181   1.123   5.328   8.525  0.3511 -0.4495  0.1143
  154SAPE  H18Z17182   1.233   5.207   8.580 -0.1115 -0.4002 -0.6364
  155SAPE     N17183   3.313   6.666   6.331 -0.1545  0.2738 -0.1224
  155SAPE   HN117184   3.309   6.767   6.305 -0.4737  0.3825  0.3574
  155SAPE   HN217185   3.415   6.647   6.336 -0.4262 -0.4366  4.0376
  155SAPE   HN317186   3.260   6.609   6.261  0.2920  0.4850 -0.6383
  155SAPE   C1217187   3.239   6.664   6.460 -0.2943  0.0803  0.1159
  155SAPE  H12A17188   3.281   6.743   6.526 -0.8475  1.5196 -1.2228
  155SAPE  H12B17189   3.271   6.569   6.508  0.4549  0.2688 -0.0020
  155SAPE   C1117190   3.083   6.672   6.432 -0.2590 -0.5058 -0.2762
  155SAPE  H11A17191   3.058   6.766   6.379 -0.0889 -0.2053  0.1845
  155SAPE  H11B17192   3.039   6.671   6.533  1.6114  1.8412  0.6122
  155SAPE     P17193   2.866   6.545   6.338  0.1660  0.2489 -0.0520
  155SAPE   O1317194   2.815   6.665   6.276  0.5175  0.1295  0.0928
  155SAPE   O1417195   2.849   6.418   6.266 -0.1299 -0.6195 -0.2051
  155SAPE   O1217196   3.024   6.561   6.360  1.0869  0.0897  0.0496
  155SAPE   O1117197   2.811   6.543   6.484  0.3942 -0.4812 -0.3220
  155SAPE    C117198   2.859   6.462   6.587  0.5219 -0.0658 -0.3617
  155SAPE    HA17199   2.826   6.357   6.571 -3.2440  0.8405  1.0030
  155SAPE    HB17200   2.969   6.455   6.602  0.5213  2.0948  0.7444
  155SAPE    C217201   2.819   6.511   6.731 -0.1535 -0.1329 -0.1639
  155SAPE    HS17202   2.867   6.609   6.751  0.0462 -0.2732  0.0537
  155SAPE   O2117203   2.862   6.410   6.832  0.0604 -0.3131  0.7283
  155SAPE   C2117204   2.996   6.417   6.859  0.6161 -0.3233 -0.2237
  155SAPE   O2217205   3.071   6.506   6.821 -0.1371 -0.2379 -0.1022
  155SAPE   C2217206   3.037   6.293   6.944 -0.1499 -0.1582  0.5024
  155SAPE   H2R17207   3.074   6.222   6.867  1.0412  0.8763  0.0998
  155SAPE   H2S17208   3.130   6.313   7.002  0.1228  0.0867 -0.0108
  155SAPE    C317209   2.666   6.534   6.741 -0.0563  0.5762 -0.2308
  155SAPE    HX17210   2.625   6.438   6.705  1.9173 -0.3664 -0.0189
  155SAPE    HY17211   2.624   6.605   6.667 -1.4992 -0.8240 -0.7676
  155SAPE   O3117212   2.625   6.576   6.875 -0.6769  0.3189 -0.2652
  155SAPE   C3117213   2.634   6.710   6.899  0.2489 -0.0166 -0.4442
  155SAPE   O3217214   2.681   6.790   6.824  0.0012 -0.1330 -0.4597
  155SAPE   C3217215   2.580   6.738   7.042 -0.3120  0.6469  0.1683
  155SAPE   H2X17216   2.469   6.740   7.039 -0.3184  3.2162  1.0111
  155SAPE   H2Y17217   2.616   6.837   7.076 -1.7391  2.3050 -2.9903
  155SAPE   C2317218   2.919   6.263   7.045 -0.6062 -0.6572  0.1428
  155SAPE   H3R17219   2.927   6.158   7.080  2.8971 -1.0215 -1.4738
  155SAPE   H3S17220   2.815   6.262   7.008 -0.9777 -3.7339  1.0939
  155SAPE   C2417221   2.928   6.351   7.167 -0.3081  0.0243  0.7382
  155SAPE   H4R17222   2.842   6.336   7.237 -1.9220  0.6255 -1.0922
  155SAPE   H4S17223   2.910   6.455   7.135 -0.1685  0.8621  3.2150
  155SAPE   C2517224   3.053   6.340   7.251 -0.4501  0.1558 -0.5003
  155SAPE   H5R17225   3.145   6.319   7.194  0.1395  0.5087  0.3080
  155SAPE   C2617226   3.077   6.367   7.380 -0.5908 -0.4725  0.2611
  155SAPE   H6R17227   3.181   6.376   7.416 -0.0965  1.9805 -1.6173
  155SAPE   C2717228   2.985   6.414   7.485 -0.2130  0.1199  0.2194
  155SAPE   H7R17229   2.881   6.410   7.445 -0.2979  0.5647  0.3894
  155SAPE   H7S17230   3.010   6.521   7.502 -0.2054  0.3010 -0.8929
  155SAPE   C2817231   2.986   6.326   7.600  0.0404 -0.2473 -0.6216
  155SAPE   H8R17232   2.978   6.219   7.575  0.2541  0.3653 -3.5373
  155SAPE   C2917233   2.995   6.368   7.728 -0.4291  0.0576 -0.3218
  155SAPE   H9R17234   3.017   6.287   7.799 -0.4723  0.2463 -0.0896
  155SAPE  C21017235   2.994   6.510   7.774  0.0726  0.4745 -0.1268
  155SAPE  H10R17236   2.923   6.562   7.705  2.4854  1.6663 -1.7832
  155SAPE  H10S17237   3.090   6.562   7.752  0.7183 -1.5722 -2.2780
  155SAPE  C21117238   2.979   6.533   7.925 -0.5709  0.1151  0.0170
  155SAPE  H11R17239   2.880   6.551   7.969 -1.1975 -3.9649  0.4930
  155SAPE  C21217240   3.083   6.549   8.004 -0.5497 -0.4644 -0.7940
  155SAPE  H12R17241   3.060   6.578   8.107 -0.8524 -1.2256 -0.6465
  155SAPE  C21317242   3.223   6.538   7.967 -0.0859 -0.3292 -0.0245
  155SAPE  H13R17243   3.281   6.599   8.039 -1.6008  1.3995 -0.2279
  155SAPE  H13S17244   3.257   6.593   7.877 -1.4801  0.8991  0.1629
  155SAPE  C21417245   3.301   6.405   7.971 -0.1284 -1.1089 -0.1163
  155SAPE  H14R17246   3.297   6.361   7.870  0.0335  1.4052 -1.2609
  155SAPE  C21517247   3.363   6.349   8.076  0.6490 -0.5259  0.7638
  155SAPE  H15R17248   3.429   6.265   8.052 -0.0306 -1.1625  1.1075
  155SAPE  C21617249   3.366   6.395   8.217 -0.3704  0.8837  0.2133
  155SAPE  H16R17250   3.288   6.468   8.246 -0.2966  1.1235 -0.1873
  155SAPE  H16S17251   3.466   6.442   8.235 -0.6718  1.3944  0.5599
  155SAPE  C21717252   3.340   6.273   8.306  0.3029 -0.1087 -0.0009
  155SAPE  H17R17253   3.415   6.192   8.291  0.5484 -0.3385  2.3602
  155SAPE  H17S17254   3.237   6.237   8.284 -0.4169  3.0178 -2.1558
  155SAPE  C21817255   3.347   6.305   8.457  0.3772  0.2245  1.3572
  155SAPE  H18R17256   3.288   6.398   8.471  1.2314  0.6063  2.5047
  155SAPE  H18S17257   3.456   6.320   8.473 -0.0321  1.6646  2.9140
  155SAPE  C21917258   3.291   6.196   8.550 -0.3545 -0.1195 -1.1808
  155SAPE  H19R17259   3.185   6.170   8.525 -0.9640  0.7832  0.3735
  155SAPE  H19S17260   3.281   6.234   8.654 -0.2324 -0.0468 -1.1954
  155SAPE  C22017261   3.372   6.070   8.556  0.0637  0.4524  0.3559
  155SAPE  H20R17262   3.375   6.017   8.459 -1.8539  0.9348  0.0165
  155SAPE  H20S17263   3.322   6.000   8.626  2.1676  0.6891  2.1770
  155SAPE  H20T17264   3.477   6.085   8.589  0.7909 -0.4334 -1.4874
  155SAPE   C3317265   2.609   6.620   7.136 -0.1950  0.2256 -0.0949
  155SAPE   H3X17266   2.714   6.589   7.118  0.7149  1.9767  1.9213
  155SAPE   H3Y17267   2.546   6.532   7.113 -0.1179 -0.3250  1.7089
  155SAPE   C3417268   2.572   6.659   7.279 -0.4207  0.0526 -0.6491
  155SAPE   H4X17269   2.462   6.655   7.295 -0.3502 -3.3012 -0.6724
  155SAPE   H4Y17270   2.615   6.760   7.300  0.1187 -0.0940 -1.0318
  155SAPE   C3517271   2.622   6.561   7.378  0.5948  0.2086  0.4495
  155SAPE   H5X17272   2.732   6.578   7.378  0.3528  1.9233  0.8503
  155SAPE   H5Y17273   2.593   6.458   7.347 -2.1182  1.7954 -2.5373
  155SAPE   C3617274   2.563   6.609   7.515 -0.0347 -0.1743 -0.5461
  155SAPE   H6X17275   2.453   6.624   7.510  0.3704  2.7315 -2.0625
  155SAPE   H6Y17276   2.613   6.701   7.553 -0.2739 -0.1244 -0.3510
  155SAPE   C3717277   2.583   6.510   7.631  0.0880  0.3645 -0.6403
  155SAPE   H7X17278   2.688   6.483   7.651  0.0071  0.6965  0.2476
  155SAPE   H7Y17279   2.536   6.419   7.587  2.7852 -1.6621  0.5864
  155SAPE   C3817280   2.521   6.552   7.764  0.3128  0.7023  0.3882
  155SAPE   H8X17281   2.413   6.564   7.741  0.1066 -1.0573  0.3553
  155SAPE   H8Y17282   2.570   6.636   7.818 -0.7484  0.6520  1.4584
  155SAPE   C3917283   2.521   6.438   7.877 -0.1560 -0.5539 -0.0237
  155SAPE   H9X17284   2.626   6.446   7.911  0.3360  0.0433 -1.6119
  155SAPE   H9Y17285   2.494   6.341   7.829 -0.6009 -0.6269  0.3667
  155SAPE  C31017286   2.431   6.476   7.994 -0.2377 -1.0207 -0.5479
  155SAPE  H10X17287   2.474   6.572   8.029 -1.4156 -0.2770 -1.0941
  155SAPE  H10Y17288   2.443   6.398   8.072 -0.2417 -0.5779 -0.1017
  155SAPE  C31117289   2.279   6.476   7.964 -0.5418  0.0826 -0.0646
  155SAPE  H11X17290   2.276   6.465   7.854 -0.3120 -0.6954  0.0065
  155SAPE  H11Y17291   2.236   6.578   7.975  0.7351  0.5669  0.5577
  155SAPE  C31217292   2.214   6.358   8.039  0.4745  0.2070 -0.1574
  155SAPE  H12X17293   2.227   6.371   8.149 -2.8806 -0.0169  0.3256
  155SAPE  H12Y17294   2.247   6.260   7.998 -3.8053 -1.0299 -0.8897
  155SAPE  C31317295   2.063   6.348   8.012 -0.7767 -0.1270 -0.8302
  155SAPE  H13X17296   2.043   6.318   7.907  0.4077  1.3921 -1.5016
  155SAPE  H13Y17297   2.022   6.451   8.025  3.2819  1.4763  0.0935
  155SAPE  C31417298   1.999   6.249   8.110  0.2939  0.3614  0.2466
  155SAPE  H14X17299   2.008   6.304   8.206 -2.4941  2.0135 -0.3874
  155SAPE  H14Y17300   2.049   6.150   8.109 -1.4791 -0.5693 -0.6219
  155SAPE  C31517301   1.845   6.231   8.084  0.0074  0.4770 -0.7308
  155SAPE  H15X17302   1.825   6.181   7.987 -0.8414  2.9165 -1.8690
  155SAPE  H15Y17303   1.791   6.329   8.085  1.4443  1.2871  0.9384
  155SAPE  C31617304   1.786   6.135   8.197 -0.5342  0.7838  0.6770
  155SAPE  H16X17305   1.809   6.176   8.298  1.1050  1.3115  0.1156
  155SAPE  H16Y17306   1.831   6.033   8.197 -2.3253 -0.0309  0.6965
  155SAPE  C31717307   1.641   6.104   8.183  0.0133 -0.6057  0.5708
  155SAPE  H17X17308   1.602   6.111   8.079  3.5178 -0.6649 -0.8164
  155SAPE  H17Y17309   1.598   6.188   8.242 -0.2164 -0.2522 -0.0905
  155SAPE  C31817310   1.599   5.975   8.259 -0.2144 -0.2200 -0.4429
  155SAPE  H18X17311   1.492   5.946   8.261 -0.5091  0.8480  0.1149
  155SAPE  H18Y17312   1.635   5.971   8.364  1.1340 -3.7827 -0.9952
  155SAPE  H18Z17313   1.660   5.889   8.224  1.6957  1.2438 -0.8406
  156SAPE     N17314   6.577   0.630   5.989 -0.0110 -0.0473  0.1527
  156SAPE   HN117315   6.524   0.661   6.073  3.8739  1.6865  2.1080
  156SAPE   HN217316   6.554   0.698   5.913 -0.1284 -0.3039 -0.0436
  156SAPE   HN317317   6.531   0.544   5.952 -0.4587 -0.0623  0.7343
  156SAPE   C1217318   6.731   0.632   6.002 -0.0522  0.6407 -0.6197
  156SAPE  H12A17319   6.776   0.599   5.906  2.4393  1.3638  0.2330
  156SAPE  H12B17320   6.758   0.560   6.083 -0.0812 -0.2730 -1.4136
  156SAPE   C1117321   6.795   0.762   6.053 -0.7630 -0.3754 -0.4486
  156SAPE  H11A17322   6.791   0.844   5.979 -0.4898  2.2293  2.3378
  156SAPE  H11B17323   6.905   0.752   6.067 -0.3895  3.1214 -0.6424
  156SAPE     P17324   6.782   0.715   6.304 -0.0735  0.2273 -0.0826
  156SAPE   O1317325   6.681   0.606   6.312  0.5796  0.0103 -0.3002
  156SAPE   O1417326   6.918   0.663   6.296 -0.4354 -0.2093 -0.6820
  156SAPE   O1217327   6.749   0.802   6.181  0.0782  0.1992  0.3327
  156SAPE   O1117328   6.772   0.811   6.434 -0.0504 -0.1485 -0.3669
  156SAPE    C117329   6.670   0.902   6.450  0.1312  0.3245 -0.0563
  156SAPE    HA17330   6.709   1.006   6.436 -0.9661  0.7365 -0.0509
  156SAPE    HB17331   6.586   0.883   6.380 -0.1593  0.7902  0.1666
  156SAPE    C217332   6.604   0.884   6.593  0.8061 -0.2091 -0.1478
  156SAPE    HS17333   6.514   0.950   6.601  1.7961  0.9555  1.9962
  156SAPE   O2117334   6.699   0.915   6.689  0.1241 -0.0337 -0.4752
  156SAPE   C2117335   6.681   1.027   6.754  0.6878 -0.5789 -0.1307
  156SAPE   O2217336   6.591   1.106   6.738  0.4831  0.1258  0.3494
  156SAPE   C2217337   6.788   1.045   6.858  0.1536  0.8503  0.2692
  156SAPE   H2R17338   6.885   1.041   6.804  0.3657  0.9403  0.6392
  156SAPE   H2S17339   6.789   1.149   6.897 -1.0583  0.8654  0.2618
  156SAPE    C317340   6.558   0.735   6.605 -0.8276  0.5025  0.0253
  156SAPE    HX17341   6.634   0.661   6.569 -1.5459  0.9962 -2.6234
  156SAPE    HY17342   6.469   0.725   6.540 -1.3289  0.5895  0.7023
  156SAPE   O3117343   6.522   0.703   6.741 -0.0580 -0.4994 -0.3500
  156SAPE   C3117344   6.448   0.596   6.761 -0.7278 -0.7272 -0.8128
  156SAPE   O3217345   6.422   0.518   6.675  0.3900 -0.4129 -0.0719
  156SAPE   C3217346   6.405   0.590   6.910  0.2549  0.3307 -0.0392
  156SAPE   H2X17347   6.300   0.622   6.924 -0.4851 -1.6789 -0.8483
  156SAPE   H2Y17348   6.473   0.661   6.963  2.4141 -1.3530 -0.4688
  156SAPE   C2317349   6.778   0.940   6.970 -0.4652  0.7305 -0.0352
  156SAPE   H3R17350   6.829   0.847   6.938 -2.6512 -0.1856 -0.9729
  156SAPE   H3S17351   6.671   0.928   6.998 -0.6536  1.3208 -0.4867
  156SAPE   C2417352   6.831   0.991   7.102 -0.2054 -0.2243 -0.9194
  156SAPE   H4R17353   6.773   1.077   7.141  1.5440  1.0617 -1.1288
  156SAPE   H4S17354   6.937   1.018   7.085  0.3938 -1.3149  0.8867
  156SAPE   C2517355   6.831   0.873   7.198  0.2169  0.1594 -0.0995
  156SAPE   H5R17356   6.875   0.777   7.165 -0.7640 -0.5137  0.5084
  156SAPE   C2617357   6.786   0.881   7.325 -0.7271  0.0947  0.1454
  156SAPE   H6R17358   6.800   0.789   7.383 -2.6710 -0.6657 -0.5239
  156SAPE   C2717359   6.730   0.991   7.409  0.6226 -0.1403 -0.0786
  156SAPE   H7R17360   6.631   0.961   7.450  1.2670 -0.3780  1.3512
  156SAPE   H7S17361   6.706   1.078   7.343 -2.6939 -1.5523 -0.8598
  156SAPE   C2817362   6.825   1.020   7.520  0.0482 -0.0522  0.4571
  156SAPE   H8R17363   6.837   0.943   7.598 -0.2862  1.6368  2.2170
  156SAPE   C2917364   6.890   1.132   7.552  0.1867  0.8183 -0.2464
  156SAPE   H9R17365   6.966   1.137   7.631 -1.3226  1.9964  1.1695
  156SAPE  C21017366   6.858   1.260   7.489 -0.5940 -0.3020 -0.2195
  156SAPE  H10R17367   6.764   1.304   7.528  0.7842  3.0765 -0.5159
  156SAPE  H10S17368   6.850   1.253   7.378  1.7647 -0.9440 -0.3856
  156SAPE  C21117369   6.968   1.372   7.520 -0.1382 -0.3563 -0.0781
  156SAPE  H11R17370   7.029   1.401   7.434 -1.1133 -1.4490 -1.1563
  156SAPE  C21217371   6.991   1.426   7.643 -0.9349 -0.1403 -0.4263
  156SAPE  H12R17372   7.069   1.502   7.659 -0.6295 -0.7990  1.3768
  156SAPE  C21317373   6.921   1.399   7.771  0.0697  0.2946 -0.2873
  156SAPE  H13R17374   6.839   1.326   7.753  2.0832 -2.0049 -0.4277
  156SAPE  H13S17375   6.879   1.492   7.816 -2.4284  0.3248 -2.5669
  156SAPE  C21417376   7.017   1.334   7.871 -0.2413  0.3795 -0.0342
  156SAPE  H14R17377   7.120   1.374   7.870  0.0604 -0.3458  1.2525
  156SAPE  C21517378   7.003   1.219   7.936  0.2597 -0.0561  0.3219
  156SAPE  H15R17379   7.081   1.196   8.009  0.1730 -2.0521 -0.1965
  156SAPE  C21617380   6.886   1.129   7.946 -0.1663 -0.8422 -0.1214
  156SAPE  H16R17381   6.798   1.156   7.885 -0.8546 -0.2055  1.1328
  156SAPE  H16S17382   6.850   1.156   8.047 -0.6206  0.8728 -0.7332
  156SAPE  C21717383   6.922   0.984   7.925 -0.4751  0.2351 -0.2393
  156SAPE  H17R17384   6.990   0.950   8.006 -1.4704  0.9072  0.8937
  156SAPE  H17S17385   6.964   0.970   7.823 -2.4122  2.8172 -1.4527
  156SAPE  C21817386   6.793   0.901   7.954  0.5883 -0.2909  0.5607
  156SAPE  H18R17387   6.819   0.795   7.931 -0.3313 -0.4765  0.3435
  156SAPE  H18S17388   6.707   0.923   7.887  1.5919 -0.5270 -0.8132
  156SAPE  C21917389   6.750   0.907   8.101 -0.5777 -0.2822  0.6618
  156SAPE  H19R17390   6.682   0.994   8.117 -0.8385 -0.6277  1.4799
  156SAPE  H19S17391   6.839   0.930   8.164 -0.1189 -1.1105  0.3199
  156SAPE  C22017392   6.682   0.780   8.141  0.1544 -0.1177  0.1982
  156SAPE  H20R17393   6.747   0.695   8.112 -0.0680 -0.0717 -0.4447
  156SAPE  H20S17394   6.580   0.779   8.096 -0.2229 -1.6761  1.0480
  156SAPE  H20T17395   6.685   0.765   8.251  0.0405 -0.8223  0.1090
  156SAPE   C3317396   6.417   0.446   6.963 -0.4086 -0.4690  0.5382
  156SAPE   H3X17397   6.524   0.420   6.969  0.3446  2.4990  0.9057
  156SAPE   H3Y17398   6.358   0.384   6.892 -1.5055  0.8131  0.2944
  156SAPE   C3417399   6.361   0.414   7.100 -0.2874  0.4391 -0.3245
  156SAPE   H4X17400   6.250   0.412   7.106 -0.1217 -2.5848  3.9574
  156SAPE   H4Y17401   6.403   0.478   7.180  0.4257  1.0748 -1.1904
  156SAPE   C3517402   6.403   0.268   7.131 -0.2591  0.6030 -0.3572
  156SAPE   H5X17403   6.512   0.266   7.111 -0.2476  2.6121 -0.5873
  156SAPE   H5Y17404   6.335   0.201   7.073 -3.4811  1.3523  2.4176
  156SAPE   C3617405   6.379   0.225   7.281  0.2116 -0.4010  0.1627
  156SAPE   H6X17406   6.269   0.226   7.300  0.4933  1.5047  1.8032
  156SAPE   H6Y17407   6.432   0.287   7.355  0.4060  0.1720 -0.4466
  156SAPE   C3717408   6.436   0.087   7.311 -0.4169 -0.7971  0.2735
  156SAPE   H7X17409   6.530   0.078   7.252  0.7911  0.6785  1.8847
  156SAPE   H7Y17410   6.365   0.006   7.284 -0.0063 -0.6367 -1.2833
  156SAPE   C3817411   6.472   0.065   7.459 -0.5366  0.2716  0.2273
  156SAPE   H8X17412   6.569   0.117   7.476 -0.2079  0.1120 -1.0877
  156SAPE   H8Y17413   6.488  -0.042   7.485 -0.9061  0.4458  1.1643
  156SAPE   C3917414   6.362   0.114   7.556 -0.8219 -0.4185  0.3956
  156SAPE   H9X17415   6.271   0.055   7.531 -0.8313 -0.1516 -0.1941
  156SAPE   H9Y17416   6.335   0.217   7.523  0.5773 -0.5558 -1.2224
  156SAPE  C31017417   6.383   0.106   7.698 -0.0121  0.6508 -0.1977
  156SAPE  H10X17418   6.488   0.127   7.726 -0.0890  0.2481  0.4042
  156SAPE  H10Y17419   6.378  -0.001   7.727 -4.2182  1.1645  1.2945
  156SAPE  C31117420   6.267   0.165   7.782  0.1564  0.6439  0.3921
  156SAPE  H11X17421   6.174   0.110   7.753  1.5120 -2.0134  0.9313
  156SAPE  H11Y17422   6.253   0.275   7.774 -1.3481  0.2028 -4.0866
  156SAPE  C31217423   6.288   0.124   7.927 -0.3477  0.3216  0.5439
  156SAPE  H12X17424   6.396   0.143   7.948  0.1798 -0.3304 -1.4587
  156SAPE  H12Y17425   6.286   0.015   7.949  0.6405 -0.0772 -1.2729
  156SAPE  C31317426   6.198   0.189   8.027 -0.3594  1.0844 -0.7432
  156SAPE  H13X17427   6.097   0.169   7.985 -0.3928  1.1034 -0.6703
  156SAPE  H13Y17428   6.207   0.299   8.028 -2.1274  1.2559  2.5558
  156SAPE  C31417429   6.206   0.133   8.168 -0.0559  0.0159 -0.3382
  156SAPE  H14X17430   6.314   0.139   8.191  0.3681  1.2463 -2.4377
  156SAPE  H14Y17431   6.179   0.027   8.151 -1.0691  0.1339  0.4715
  156SAPE  C31517432   6.121   0.200   8.268  0.1927 -0.3159 -1.0330
  156SAPE  H15X17433   6.012   0.183   8.258 -0.4239  2.5373  0.1932
  156SAPE  H15Y17434   6.144   0.307   8.253  3.2481 -0.6936  0.5382
  156SAPE  C31617435   6.152   0.158   8.419 -0.1894  0.2044 -0.6159
  156SAPE  H16X17436   6.262   0.143   8.416 -0.3389 -1.2288  0.7693
  156SAPE  H16Y17437   6.108   0.059   8.443 -0.3547  0.1857 -1.0015
  156SAPE  C31717438   6.105   0.261   8.528 -0.6246  0.0053  0.1847
  156SAPE  H17X17439   6.138   0.219   8.626 -0.3877  2.3784  1.1359
  156SAPE  H17Y17440   5.994   0.269   8.521 -0.4730  0.8131 -1.4380
  156SAPE  C31817441   6.163   0.400   8.529  0.4429  0.4715  0.3896
  156SAPE  H18X17442   6.273   0.399   8.544  0.5623 -3.0267 -0.1464
  156SAPE  H18Y17443   6.111   0.464   8.604 -0.2594 -0.8346  1.0455
  156SAPE  H18Z17444   6.158   0.451   8.430  4.2497 -1.4619 -0.9095
  157SAPE     N17445   4.193   1.793   6.350 -0.2007  0.7628  0.2133
  157SAPE   HN117446   4.228   1.838   6.263  0.1469 -2.5683 -1.4382
  157SAPE   HN217447   4.269   1.733   6.387 -0.2370 -0.0512 -1.0258
  157SAPE   HN317448   4.113   1.730   6.330  0.1038  0.8977 -1.5189
  157SAPE   C1217449   4.143   1.894   6.441 -0.4267 -0.6824 -0.2498
  157SAPE  H12A17450   4.229   1.952   6.481 -1.4639  2.2740 -2.1158
  157SAPE  H12B17451   4.088   1.844   6.522 -0.0819  0.7464  0.8965
  157SAPE   C1117452   4.047   1.992   6.371 -0.2311 -0.3493  0.5427
  157SAPE  H11A17453   4.025   2.070   6.447 -2.5806 -1.8122  1.4328
  157SAPE  H11B17454   3.947   1.943   6.365  0.8658 -2.4531 -1.6530
  157SAPE     P17455   4.189   2.168   6.236 -0.3106 -0.1631 -0.3780
  157SAPE   O1317456   4.290   2.149   6.131 -0.3364  0.5158  0.3494
  157SAPE   O1417457   4.093   2.280   6.230 -0.4466  0.6192 -0.2896
  157SAPE   O1217458   4.105   2.035   6.247 -0.0565 -0.0217 -0.2070
  157SAPE   O1117459   4.251   2.163   6.375  0.1306 -0.3327 -0.1047
  157SAPE    C117460   4.372   2.222   6.425 -0.3856 -0.7269  0.4843
  157SAPE    HA17461   4.460   2.161   6.397 -1.1332 -1.3005 -0.6407
  157SAPE    HB17462   4.380   2.326   6.387  0.6963 -1.6707 -1.9622
  157SAPE    C217463   4.361   2.217   6.580  0.4693  0.2593 -0.2367
  157SAPE    HS17464   4.454   2.260   6.624  0.0762  0.3635  0.4816
  157SAPE   O2117465   4.363   2.074   6.612  0.1655  0.4456  0.2969
  157SAPE   C2117466   4.424   2.048   6.734  0.2978 -0.4203 -0.4528
  157SAPE   O2217467   4.475   2.129   6.803 -0.0825 -0.1532 -0.4678
  157SAPE   C2217468   4.408   1.901   6.767 -0.0975 -0.2386  0.1525
  157SAPE   H2R17469   4.302   1.892   6.799  0.0536  2.8119  1.7850
  157SAPE   H2S17470   4.427   1.840   6.677 -0.5680  1.7333 -1.3342
  157SAPE    C317471   4.234   2.286   6.633 -0.5301  0.2296  0.0755
  157SAPE    HX17472   4.146   2.241   6.581 -0.6009 -1.1106  1.3276
  157SAPE    HY17473   4.238   2.390   6.595 -1.5576  0.1147 -0.3568
  157SAPE   O3117474   4.209   2.289   6.773  0.1647  0.0583  0.0446
  157SAPE   C3117475   4.247   2.400   6.836 -0.2910 -0.0302 -0.8291
  157SAPE   O3217476   4.320   2.481   6.791 -0.0866 -0.2900 -0.3867
  157SAPE   C3217477   4.175   2.392   6.970  0.2445 -0.4561  0.0112
  157SAPE   H2X17478   4.078   2.337   6.965 -0.1277  0.3186 -1.7514
  157SAPE   H2Y17479   4.158   2.496   7.003  1.9929  0.0366 -0.6242
  157SAPE   C2317480   4.503   1.858   6.872 -0.2468  0.2475  0.4595
  157SAPE   H3R17481   4.604   1.892   6.842 -0.4785 -0.5361 -1.2334
  157SAPE   H3S17482   4.504   1.747   6.866  1.9216  0.3345 -1.5819
  157SAPE   C2417483   4.447   1.907   7.010 -0.0616  0.3372 -0.3908
  157SAPE   H4R17484   4.364   1.836   7.030 -0.9536  1.7393  1.0121
  157SAPE   H4S17485   4.409   2.011   6.992 -0.5592  0.3166  0.5180
  157SAPE   C2517486   4.561   1.892   7.101 -0.3146  0.4188 -0.0434
  157SAPE   H5R17487   4.658   1.915   7.054 -0.9323  0.7118 -1.1894
  157SAPE   C2617488   4.555   1.857   7.232  0.4763  0.2841 -0.6383
  157SAPE   H6R17489   4.645   1.871   7.293  0.3496 -0.6109 -0.2445
  157SAPE   C2717490   4.436   1.811   7.317  0.3466  0.4274 -0.2668
  157SAPE   H7R17491   4.370   1.753   7.250 -0.3193  0.5968  0.2388
  157SAPE   H7S17492   4.384   1.898   7.363  0.1484 -0.5724  1.4652
  157SAPE   C2817493   4.491   1.707   7.415 -0.3438  0.4655  0.1707
  157SAPE   H8R17494   4.500   1.606   7.372  1.0269  0.6967 -0.1214
  157SAPE   C2917495   4.521   1.738   7.545  0.2821 -0.4944 -0.1970
  157SAPE   H9R17496   4.548   1.660   7.617 -0.0591  2.0472  2.7559
  157SAPE  C21017497   4.515   1.871   7.611 -0.8154  0.3641 -0.3331
  157SAPE  H10R17498   4.413   1.915   7.617 -0.3447  1.3736  0.3596
  157SAPE  H10S17499   4.575   1.932   7.541  0.9272  0.8298  1.5287
  157SAPE  C21117500   4.583   1.866   7.747  0.6390  0.4743 -0.8684
  157SAPE  H11R17501   4.693   1.855   7.743  0.7042 -0.8377  2.5133
  157SAPE  C21217502   4.518   1.873   7.868  0.1326 -0.1314  0.7653
  157SAPE  H12R17503   4.578   1.860   7.959  0.5218 -1.0894  0.3809
  157SAPE  C21317504   4.369   1.881   7.894  0.0550  0.5625 -0.4343
  157SAPE  H13R17505   4.305   1.898   7.805  0.9901  2.7116 -0.7245
  157SAPE  H13S17506   4.351   1.966   7.964 -2.9787  0.5806 -1.1899
  157SAPE  C21417507   4.320   1.761   7.968 -0.1295  0.4135 -0.7024
  157SAPE  H14R17508   4.298   1.671   7.909 -1.7074 -0.6285  1.3894
  157SAPE  C21517509   4.279   1.749   8.097  0.4086  0.4539  0.5077
  157SAPE  H15R17510   4.235   1.650   8.116 -0.0833 -0.2307 -3.7369
  157SAPE  C21617511   4.284   1.862   8.201  0.3435  0.1865  0.0661
  157SAPE  H16R17512   4.181   1.900   8.217  1.0921  2.2344  0.0922
  157SAPE  H16S17513   4.336   1.950   8.159  1.5352 -0.4460  0.1930
  157SAPE  C21717514   4.361   1.832   8.331  0.2766  0.5388 -0.5275
  157SAPE  H17R17515   4.380   1.923   8.392  3.5379 -1.2796  1.3250
  157SAPE  H17S17516   4.463   1.795   8.305  0.3074 -1.6996  2.5228
  157SAPE  C21817517   4.290   1.736   8.421 -0.3204  1.1771  1.0631
  157SAPE  H18R17518   4.304   1.634   8.378  2.3527  2.8493 -2.3187
  157SAPE  H18S17519   4.182   1.755   8.431 -0.3839  1.1698  0.4392
  157SAPE  C21917520   4.341   1.734   8.563 -0.2283  0.9209 -0.1510
  157SAPE  H19R17521   4.319   1.831   8.614  0.3093  0.4357  1.0251
  157SAPE  H19S17522   4.452   1.732   8.566 -0.2922 -1.5581  2.3158
  157SAPE  C22017523   4.276   1.628   8.655  0.0874  0.1633  0.0485
  157SAPE  H20R17524   4.165   1.627   8.654  0.0483 -0.5760  2.1880
  157SAPE  H20S17525   4.308   1.651   8.759  0.5483  0.9782 -0.2698
  157SAPE  H20T17526   4.323   1.530   8.635  1.1448  0.5712  0.5453
  157SAPE   C3317527   4.263   2.330   7.085 -0.2999 -0.0405 -0.3314
  157SAPE   H3X17528   4.358   2.386   7.079  0.3995 -1.0086  1.1647
  157SAPE   H3Y17529   4.287   2.228   7.049  0.2238  0.4943 -1.5048
  157SAPE   C3417530   4.207   2.338   7.230 -0.5868  0.2308 -0.1827
  157SAPE   H4X17531   4.105   2.294   7.235 -0.1479 -0.8139 -0.3632
  157SAPE   H4Y17532   4.214   2.445   7.262 -2.9838  0.4595 -0.3465
  157SAPE   C3517533   4.281   2.242   7.319 -0.7937 -0.6568  0.5893
  157SAPE   H5X17534   4.389   2.238   7.295 -0.9735 -0.2854 -0.2785
  157SAPE   H5Y17535   4.230   2.144   7.306 -1.0834 -0.3824 -0.3292
  157SAPE   C3617536   4.277   2.295   7.469 -0.5839 -0.6712  0.1093
  157SAPE   H6X17537   4.171   2.287   7.502 -0.6519  2.4816  0.7778
  157SAPE   H6Y17538   4.312   2.400   7.469 -0.9281 -0.5565  0.7015
  157SAPE   C3717539   4.367   2.212   7.554 -0.6182 -0.2330  0.1670
  157SAPE   H7X17540   4.453   2.193   7.485 -1.2596  0.5553 -0.8792
  157SAPE   H7Y17541   4.329   2.109   7.564 -0.5911 -0.2085  0.5025
  157SAPE   C3817542   4.397   2.278   7.684  0.3540 -0.2895 -0.5581
  157SAPE   H8X17543   4.419   2.386   7.665  0.8419 -0.2385  0.2660
  157SAPE   H8Y17544   4.487   2.228   7.725  1.1127  1.6596  0.2602
  157SAPE   C3917545   4.279   2.263   7.781 -0.1193 -0.8284  0.6386
  157SAPE   H9X17546   4.252   2.156   7.786  3.0866 -1.6215  2.3144
  157SAPE   H9Y17547   4.191   2.316   7.737 -0.8172 -1.0221  1.7773
  157SAPE  C31017548   4.299   2.308   7.928 -0.8087 -0.0906 -0.2293
  157SAPE  H10X17549   4.291   2.418   7.944 -1.2117 -0.2869  0.9262
  157SAPE  H10Y17550   4.402   2.286   7.963 -0.5416  0.5267 -0.6035
  157SAPE  C31117551   4.199   2.244   8.033  0.0159 -0.9563  0.8719
  157SAPE  H11X17552   4.190   2.135   8.019  1.6756 -0.7410 -2.2645
  157SAPE  H11Y17553   4.103   2.292   8.002  0.6421 -0.9137 -1.0983
  157SAPE  C31217554   4.234   2.282   8.169 -0.3599  0.2924  0.2731
  157SAPE  H12X17555   4.232   2.391   8.189 -0.5251  0.7534 -2.1793
  157SAPE  H12Y17556   4.335   2.250   8.203 -1.2341 -2.4622  0.4143
  157SAPE  C31317557   4.137   2.221   8.274 -0.0949 -1.1343  0.0241
  157SAPE  H13X17558   4.111   2.115   8.256  1.6485 -1.3977 -1.1245
  157SAPE  H13Y17559   4.042   2.279   8.274  1.2856  1.2258  2.2793
  157SAPE  C31417560   4.194   2.219   8.415  0.2334 -0.0360 -0.4839
  157SAPE  H14X17561   4.214   2.324   8.445 -0.4732 -0.4497  1.4969
  157SAPE  H14Y17562   4.290   2.164   8.403  0.2277 -0.2940  0.6223
  157SAPE  C31517563   4.098   2.149   8.518 -0.1039 -0.1439 -0.0442
  157SAPE  H15X17564   4.055   2.062   8.463 -1.4937  0.3330  0.2611
  157SAPE  H15Y17565   4.007   2.207   8.545 -0.9259 -1.0827 -0.7378
  157SAPE  C31617566   4.171   2.102   8.646 -0.2302  0.3434 -0.6459
  157SAPE  H16X17567   4.245   2.182   8.671  0.7334 -0.7781  0.1289
  157SAPE  H16Y17568   4.245   2.024   8.617 -1.4827 -0.8293 -0.7243
  157SAPE  C31717569   4.085   2.059   8.764  0.4312  0.2766  0.3105
  157SAPE  H17X17570   4.017   2.142   8.791 -1.4958 -0.9751 -0.5921
  157SAPE  H17Y17571   4.140   2.032   8.856 -0.1395  1.1188  0.9104
  157SAPE  C31817572   3.998   1.938   8.728 -0.2019  0.3952  0.2118
  157SAPE  H18X17573   3.933   1.962   8.641  0.0830  2.5108  0.5500
  157SAPE  H18Y17574   3.942   1.905   8.817 -4.1850  2.0478 -1.5770
  157SAPE  H18Z17575   4.060   1.850   8.699  1.2988  2.0126 -1.6321
  158SAPE     N17576   0.104   0.426   6.655  0.0705  0.4280 -0.4162
  158SAPE   HN117577   0.161   0.444   6.570 -0.6806  0.6312 -0.8834
  158SAPE   HN217578   0.127   0.499   6.725 -0.0958 -0.9054  1.0397
  158SAPE   HN317579   0.144   0.338   6.692 -0.6926  0.3714  0.2846
  158SAPE   C1217580  -0.036   0.406   6.620 -0.7217 -0.7011  0.3912
  158SAPE  H12A17581  -0.082   0.506   6.608  0.1873 -0.5096 -1.6059
  158SAPE  H12B17582  -0.082   0.355   6.707  0.0403 -1.3715  0.4095
  158SAPE   C1117583  -0.041   0.331   6.487  0.4501 -0.3220 -0.6545
  158SAPE  H11A17584   0.012   0.371   6.398  2.2213 -0.2520  0.4016
  158SAPE  H11B17585  -0.151   0.326   6.475  0.0652  3.5118  0.5152
  158SAPE     P17586   0.031   0.100   6.387  0.1237 -0.0956  0.4312
  158SAPE   O1317587  -0.064   0.116   6.280  0.2015  0.1607 -0.0341
  158SAPE   O1417588   0.177   0.110   6.345  0.3098 -0.2148 -0.2204
  158SAPE   O1217589   0.008   0.204   6.504  0.5797 -0.0019  0.0165
  158SAPE   O1117590   0.015  -0.035   6.468  0.1180  0.2093 -0.6163
  158SAPE    C117591  -0.122  -0.092   6.465  0.8132 -0.6620 -0.1344
  158SAPE    HA17592  -0.155  -0.092   6.358  0.7352 -0.7647 -0.1104
  158SAPE    HB17593  -0.112  -0.199   6.494 -1.3546 -1.2880 -1.5841
  158SAPE    C217594  -0.223  -0.009   6.553 -0.6464  0.4430  0.3407
  158SAPE    HS17595  -0.251   0.088   6.507 -1.9498 -0.1048 -0.0336
  158SAPE   O2117596  -0.181   0.001   6.690 -0.1230 -0.0091  0.4164
  158SAPE   C2117597  -0.206   0.104   6.767 -0.5423  0.4483 -0.1147
  158SAPE   O2217598  -0.269   0.202   6.733 -0.1654  0.7639  0.1432
  158SAPE   C2217599  -0.158   0.080   6.905  0.4039  0.1554  0.1406
  158SAPE   H2R17600  -0.049   0.101   6.894  0.5306 -0.7913 -0.4056
  158SAPE   H2S17601  -0.205   0.158   6.969  1.9316 -0.5469  2.1666
  158SAPE    C317602  -0.367  -0.081   6.566 -0.1760  0.7915 -0.3981
  158SAPE    HX17603  -0.342  -0.160   6.639 -2.5512  0.8707  0.5498
  158SAPE    HY17604  -0.393  -0.135   6.472 -1.0188 -0.9207  0.7940
  158SAPE   O3117605  -0.476   0.000   6.624 -0.1356 -0.2440 -0.1311
  158SAPE   C3117606  -0.570  -0.074   6.686  0.2785 -0.4266 -0.8227
  158SAPE   O3217607  -0.562  -0.193   6.721  0.3119 -0.0349 -0.3214
  158SAPE   C3217608  -0.692   0.011   6.708 -0.3628 -0.0999  0.8336
  158SAPE   H2X17609  -0.766  -0.058   6.754 -0.8236 -0.9208 -1.0967
  158SAPE   H2Y17610  -0.728   0.051   6.611 -0.0173  1.0753  1.1849
  158SAPE   C2317611  -0.187  -0.056   6.960 -0.0024 -0.1835 -0.7329
  158SAPE   H3R17612  -0.156  -0.126   6.879  0.6096 -1.0283  0.2267
  158SAPE   H3S17613  -0.294  -0.079   6.981  0.8464 -1.5589  2.3515
  158SAPE   C2417614  -0.102  -0.099   7.083 -0.6504  0.0184  0.4749
  158SAPE   H4R17615  -0.128  -0.204   7.107  0.2831 -0.3493 -0.0855
  158SAPE   H4S17616  -0.133  -0.026   7.160  2.5660  1.2801  0.6540
  158SAPE   C2517617   0.048  -0.097   7.062 -0.2180  0.2965  0.3530
  158SAPE   H5R17618   0.080  -0.072   6.960 -0.8584 -1.6338 -0.3286
  158SAPE   C2617619   0.136  -0.149   7.153 -0.4544 -0.0788 -0.0923
  158SAPE   H6R17620   0.245  -0.145   7.137 -0.5748  0.3526 -0.8165
  158SAPE   C2717621   0.090  -0.214   7.276 -0.5655 -0.5028  0.0621
  158SAPE   H7R17622   0.037  -0.311   7.263 -1.1928  0.1634 -2.6596
  158SAPE   H7S17623   0.018  -0.146   7.326  0.8578 -0.5054  2.2188
  158SAPE   C2817624   0.195  -0.214   7.385 -0.3508  0.2433  0.3140
  158SAPE   H8R17625   0.296  -0.185   7.355 -0.2731 -0.1568  0.1813
  158SAPE   C2917626   0.180  -0.256   7.509  0.4270  0.1769  0.0638
  158SAPE   H9R17627   0.262  -0.241   7.579  1.8289 -1.3574 -1.2166
  158SAPE  C21017628   0.053  -0.309   7.568  0.9879 -0.5391  0.1070
  158SAPE  H10R17629   0.089  -0.373   7.652  2.3682 -0.3978 -0.3742
  158SAPE  H10S17630   0.011  -0.385   7.497  1.4744 -0.5614 -0.1589
  158SAPE  C21117631  -0.061  -0.209   7.593  0.3535 -0.0650  0.3037
  158SAPE  H11R17632  -0.108  -0.167   7.503 -1.1816 -2.2534  0.0341
  158SAPE  C21217633  -0.117  -0.169   7.707 -0.3087  0.4466  0.3282
  158SAPE  H12R17634  -0.207  -0.106   7.710 -0.9175 -0.4441  0.8831
  158SAPE  C21317635  -0.069  -0.217   7.834  0.3850  0.3856  0.1221
  158SAPE  H13R17636  -0.066  -0.328   7.836  0.3290  0.3896  0.8757
  158SAPE  H13S17637  -0.153  -0.203   7.906 -0.1661  1.9758 -0.7959
  158SAPE  C21417638   0.057  -0.153   7.896  0.1284  0.3128  0.0160
  158SAPE  H14R17639   0.125  -0.092   7.835  0.3080 -3.5055 -3.8099
  158SAPE  C21517640   0.109  -0.175   8.022  0.0791 -1.0545  0.0604
  158SAPE  H15R17641   0.212  -0.142   8.041 -0.1152 -0.2220 -0.2969
  158SAPE  C21617642   0.053  -0.263   8.136 -0.7793 -0.9908  0.3834
  158SAPE  H16R17643   0.115  -0.355   8.149  2.6580  1.3374  1.0979
  158SAPE  H16S17644  -0.043  -0.300   8.094 -0.4205 -0.5373 -0.8578
  158SAPE  C21717645   0.024  -0.204   8.275 -0.2346  0.4790  0.1753
  158SAPE  H17R17646  -0.018  -0.286   8.337 -1.1831  1.0730  0.3456
  158SAPE  H17S17647  -0.058  -0.129   8.268  1.8426  2.8258  0.4346
  158SAPE  C21817648   0.146  -0.130   8.336  0.6189 -0.2392  0.3588
  158SAPE  H18R17649   0.174  -0.035   8.284  2.2485 -1.3039 -0.7480
  158SAPE  H18S17650   0.235  -0.194   8.320  0.8567  0.1221  0.2091
  158SAPE  C21917651   0.119  -0.100   8.481 -0.7556 -0.4283  0.2216
  158SAPE  H19R17652   0.089  -0.187   8.543  0.5412  0.7057  2.5160
  158SAPE  H19S17653   0.039  -0.022   8.487 -0.2285  0.1560 -0.2517
  158SAPE  C22017654   0.238  -0.035   8.563 -0.9507 -0.1746 -0.4412
  158SAPE  H20R17655   0.201  -0.033   8.668  1.2270 -1.5485  0.4013
  158SAPE  H20S17656   0.270   0.061   8.518  1.3516 -1.3624 -1.4399
  158SAPE  H20T17657   0.321  -0.109   8.556 -1.3259 -0.9721  2.6188
  158SAPE   C3317658  -0.656   0.128   6.802  0.2444  0.0185  0.1969
  158SAPE   H3X17659  -0.594   0.197   6.741  0.8012 -2.2513 -1.9194
  158SAPE   H3Y17660  -0.595   0.091   6.887  1.4326  0.8397 -0.2786
  158SAPE   C3417661  -0.776   0.197   6.854 -0.0506  0.5929 -0.7886
  158SAPE   H4X17662  -0.805   0.273   6.779 -0.5946  2.5748  1.3721
  158SAPE   H4Y17663  -0.742   0.255   6.942 -0.8114 -0.5605  0.2844
  158SAPE   C3517664  -0.896   0.117   6.902 -0.2931 -0.3108  0.1634
  158SAPE   H5X17665  -0.944   0.074   6.812 -1.0680  1.6075 -0.3556
  158SAPE   H5Y17666  -0.964   0.192   6.947  0.5914  1.7183 -1.7761
  158SAPE   C3617667  -0.881   0.023   7.028  0.8144  0.0841 -0.2100
  158SAPE   H6X17668  -0.813  -0.064   7.014 -1.0219 -1.8597  2.3792
  158SAPE   H6Y17669  -0.984  -0.017   7.040  0.9684 -0.6358 -1.1601
  158SAPE   C3717670  -0.841   0.100   7.153  0.0952 -0.5226 -0.9733
  158SAPE   H7X17671  -0.746   0.156   7.147 -1.0624  1.3370 -2.7777
  158SAPE   H7Y17672  -0.915   0.181   7.173  2.2245  0.8700  1.6127
  158SAPE   C3817673  -0.841   0.008   7.276 -0.4650  0.5680  0.3289
  158SAPE   H8X17674  -0.780   0.050   7.358 -0.6838 -0.0851  0.8300
  158SAPE   H8Y17675  -0.793  -0.087   7.244 -1.9566 -0.1175  0.0722
  158SAPE   C3917676  -0.981  -0.012   7.330  0.3050  0.4467 -0.1947
  158SAPE   H9X17677  -1.017  -0.074   7.245 -0.1035  0.3403  0.0505
  158SAPE   H9Y17678  -1.041   0.081   7.329 -0.2950  0.0622 -0.2382
  158SAPE  C31017679  -0.978  -0.106   7.454 -0.1199 -0.1416  0.3568
  158SAPE  H10X17680  -0.929  -0.202   7.426 -0.5881  0.2431 -1.8476
  158SAPE  H10Y17681  -1.084  -0.132   7.476 -0.1656 -2.4352 -2.2326
  158SAPE  C31117682  -0.905  -0.054   7.580 -0.0429 -0.1098 -0.5279
  158SAPE  H11X17683  -0.915   0.056   7.584  2.8097  0.2044 -1.0745
  158SAPE  H11Y17684  -0.798  -0.077   7.566  0.1451 -0.6093  1.5395
  158SAPE  C31217685  -0.956  -0.114   7.713  0.0533  0.3653 -0.1916
  158SAPE  H12X17686  -0.945  -0.224   7.709  1.7831  0.5411 -0.9292
  158SAPE  H12Y17687  -1.065  -0.096   7.718 -0.0235 -0.7516  2.9625
  158SAPE  C31317688  -0.875  -0.074   7.841 -0.1138 -0.0649  0.0154
  158SAPE  H13X17689  -0.883   0.037   7.843 -0.6076 -0.1115  1.3042
  158SAPE  H13Y17690  -0.766  -0.097   7.834 -0.2465 -0.4286 -0.9209
  158SAPE  C31417691  -0.937  -0.138   7.959  0.0415  0.0068 -0.9794
  158SAPE  H14X17692  -0.954  -0.245   7.934  0.1277  0.0605 -1.2741
  158SAPE  H14Y17693  -1.039  -0.097   7.971  0.8601  1.2298  2.2735
  158SAPE  C31517694  -0.856  -0.136   8.086 -0.0603 -0.8137  0.5550
  158SAPE  H15X17695  -0.825  -0.034   8.119 -3.1432 -0.0062  1.0648
  158SAPE  H15Y17696  -0.762  -0.184   8.052  0.9389  0.2024  1.8394
  158SAPE  C31617697  -0.906  -0.216   8.206  0.5859 -0.7927 -0.0538
  158SAPE  H16X17698  -1.010  -0.186   8.228  1.0852  1.1053 -0.1896
  158SAPE  H16Y17699  -0.853  -0.175   8.295 -1.5610  3.0080 -0.4100
  158SAPE  C31717700  -0.877  -0.364   8.195 -0.1279 -1.0668  0.2310
  158SAPE  H17X17701  -0.771  -0.375   8.164 -0.1141 -0.0829 -0.0908
  158SAPE  H17Y17702  -0.949  -0.405   8.122 -0.7781 -0.8810  0.7593
  158SAPE  C31817703  -0.894  -0.430   8.328  0.1002 -0.3800 -0.7859
  158SAPE  H18X17704  -0.991  -0.400   8.373  1.0255  1.1180  0.2610
  158SAPE  H18Y17705  -0.812  -0.388   8.391 -1.2793  0.5985  0.4053
  158SAPE  H18Z17706  -0.884  -0.540   8.320  0.0835 -0.3584 -1.0712
  159SAPE     N17707   5.474   3.430   5.974  0.0521  0.0522  0.0394
  159SAPE   HN117708   5.463   3.413   5.872  2.0611 -1.7904  0.0944
  159SAPE   HN217709   5.418   3.515   5.995 -1.0576 -1.0245  1.5714
  159SAPE   HN317710   5.572   3.450   6.001  0.0375  0.4999 -0.2374
  159SAPE   C1217711   5.431   3.304   6.044  0.2371  0.0865  0.2514
  159SAPE  H12A17712   5.507   3.229   6.016 -2.1171 -2.3366  0.1329
  159SAPE  H12B17713   5.334   3.281   5.996  0.7172  1.7257 -1.5597
  159SAPE   C1117714   5.393   3.330   6.193 -0.4960  0.2461  0.4849
  159SAPE  H11A17715   5.491   3.350   6.240  0.7872 -1.6780 -1.2932
  159SAPE  H11B17716   5.341   3.244   6.242 -2.7016  1.7524  0.8774
  159SAPE     P17717   5.176   3.457   6.270  0.3975 -0.0430  0.2308
  159SAPE   O1317718   5.133   3.598   6.269 -0.0602  0.0243 -0.3161
  159SAPE   O1417719   5.086   3.361   6.203  0.2382 -0.3948 -0.4181
  159SAPE   O1217720   5.320   3.455   6.204  0.0669  0.1983 -0.0707
  159SAPE   O1117721   5.209   3.417   6.418 -0.2226  0.1991  0.0613
  159SAPE    C117722   5.295   3.493   6.504 -1.0340 -0.5553 -0.7178
  159SAPE    HA17723   5.334   3.584   6.454 -2.3444 -0.7711 -2.1467
  159SAPE    HB17724   5.249   3.529   6.599  0.7347 -0.6987  0.2131
  159SAPE    C217725   5.418   3.415   6.564  0.0896  0.2157 -0.1476
  159SAPE    HS17726   5.465   3.362   6.479 -0.6639  0.2058 -0.5644
  159SAPE   O2117727   5.367   3.323   6.657  0.1993  0.3305 -0.3707
  159SAPE   C2117728   5.326   3.361   6.777  0.4565 -0.4983 -0.3484
  159SAPE   O2217729   5.315   3.472   6.821  0.2748 -0.5052 -0.1491
  159SAPE   C2217730   5.305   3.237   6.867 -0.0919  0.5045 -0.1372
  159SAPE   H2R17731   5.324   3.143   6.810 -2.2014 -1.5345  2.3888
  159SAPE   H2S17732   5.373   3.229   6.955 -3.5319 -0.9439  2.4658
  159SAPE    C317733   5.519   3.512   6.629  0.3220 -0.1386  0.0989
  159SAPE    HX17734   5.480   3.584   6.705  2.7359 -0.1280  1.3771
  159SAPE    HY17735   5.558   3.568   6.542  0.0703  0.5595  0.4354
  159SAPE   O3117736   5.625   3.437   6.694  0.3680  0.5963  0.3585
  159SAPE   C3117737   5.743   3.501   6.709  0.8379 -0.3892 -0.4731
  159SAPE   O3217738   5.763   3.618   6.692  0.4121 -0.2246 -0.4680
  159SAPE   C3217739   5.852   3.401   6.748 -0.1136 -0.7474 -0.5534
  159SAPE   H2X17740   5.940   3.410   6.680  0.9125 -1.7084  0.6336
  159SAPE   H2Y17741   5.814   3.298   6.730  0.8732 -1.0921 -0.6935
  159SAPE   C2317742   5.160   3.229   6.932 -0.2727 -0.8187  0.1692
  159SAPE   H3R17743   5.088   3.252   6.851  0.7351 -0.1708 -0.5660
  159SAPE   H3S17744   5.130   3.291   7.019 -1.9835 -1.6905  0.2092
  159SAPE   C2417745   5.123   3.084   6.987 -0.6276 -0.5548  0.0559
  159SAPE   H4R17746   5.012   3.079   6.995 -0.6437  0.7517  0.8637
  159SAPE   H4S17747   5.177   3.072   7.083  4.2185  0.3569 -2.3747
  159SAPE   C2517748   5.154   2.970   6.890 -0.0697  0.7389 -0.1617
  159SAPE   H5R17749   5.138   2.995   6.785  0.1694  0.6174 -0.2271
  159SAPE   C2617750   5.199   2.846   6.921 -0.0565  0.0554 -0.2190
  159SAPE   H6R17751   5.208   2.770   6.843  0.1516 -1.7070  1.4875
  159SAPE   C2717752   5.240   2.792   7.054  0.3272  0.1549 -1.0540
  159SAPE   H7R17753   5.323   2.851   7.099 -0.1364 -1.5499  2.1741
  159SAPE   H7S17754   5.286   2.693   7.035 -2.8510 -1.3971 -0.9924
  159SAPE   C2817755   5.125   2.769   7.149 -0.0483 -0.0734 -0.4082
  159SAPE   H8R17756   5.024   2.770   7.106  0.3888  0.5127 -1.4399
  159SAPE   C2917757   5.151   2.776   7.283 -0.0922  0.2957  1.0395
  159SAPE   H9R17758   5.066   2.764   7.351 -0.1091  0.9470  1.1333
  159SAPE  C21017759   5.282   2.794   7.359 -0.0221 -0.2857 -0.2810
  159SAPE  H10R17760   5.321   2.898   7.355  1.4066 -0.7979  0.0694
  159SAPE  H10S17761   5.354   2.724   7.312  0.1451 -1.5075  1.7155
  159SAPE  C21117762   5.278   2.747   7.501 -0.2196 -0.0971  0.5277
  159SAPE  H11R17763   5.341   2.658   7.513 -0.6746 -0.6741 -1.1786
  159SAPE  C21217764   5.219   2.804   7.614 -0.1865 -0.4620  0.1643
  159SAPE  H12R17765   5.232   2.756   7.712 -3.0090 -2.9494 -0.6242
  159SAPE  C21317766   5.150   2.934   7.612  0.4503 -0.1806 -0.2374
  159SAPE  H13R17767   5.165   2.981   7.513  1.3364 -1.5282 -0.7673
  159SAPE  H13S17768   5.195   3.001   7.689  1.5907  0.5683 -1.5367
  159SAPE  C21417769   4.995   2.920   7.627 -0.3643 -0.1765 -0.2444
  159SAPE  H14R17770   4.968   2.916   7.734 -1.5163 -0.6421 -0.5372
  159SAPE  C21517771   4.899   2.951   7.535 -0.2478 -0.1127 -0.3258
  159SAPE  H15R17772   4.793   2.955   7.565 -1.0837 -0.3025 -3.1405
  159SAPE  C21617773   4.908   3.004   7.392 -0.0832  0.0465  0.5120
  159SAPE  H16R17774   4.867   2.925   7.325  1.6742 -0.3110 -0.1830
  159SAPE  H16S17775   5.018   3.008   7.376 -0.1125  0.1611  0.3328
  159SAPE  C21717776   4.850   3.143   7.370  0.6142 -0.5266 -0.5275
  159SAPE  H17R17777   4.909   3.206   7.440 -2.1227  1.3944  0.1677
  159SAPE  H17S17778   4.742   3.150   7.398  1.1311  1.2249  1.1533
  159SAPE  C21817779   4.877   3.183   7.224  0.5551  0.2708 -0.2811
  159SAPE  H18R17780   4.837   3.103   7.158 -0.1820  2.0061 -1.9725
  159SAPE  H18S17781   4.988   3.179   7.214  0.5220 -2.5528  0.1446
  159SAPE  C21917782   4.810   3.316   7.172  0.5206  0.4841  0.6287
  159SAPE  H19R17783   4.703   3.331   7.197  0.4895  2.9367 -0.7509
  159SAPE  H19S17784   4.813   3.316   7.061  1.4100 -1.8791  0.6340
  159SAPE  C22017785   4.887   3.442   7.219  0.4897 -0.3829 -0.2298
  159SAPE  H20R17786   4.820   3.530   7.224  0.9236 -0.0336 -0.5253
  159SAPE  H20S17787   4.966   3.470   7.146 -1.0967 -0.6383 -2.0816
  159SAPE  H20T17788   4.930   3.417   7.319  0.2826 -2.8514 -0.7290
  159SAPE   C3317789   5.891   3.405   6.903 -0.5834 -0.7578 -0.1562
  159SAPE   H3X17790   5.930   3.508   6.911  0.0464 -0.9217 -1.0762
  159SAPE   H3Y17791   5.957   3.319   6.926  0.0760 -0.2056  0.0192
  159SAPE   C3417792   5.768   3.381   6.993 -0.5213 -0.5042  0.0211
  159SAPE   H4X17793   5.727   3.280   6.974 -1.3984 -0.2835  0.7264
  159SAPE   H4Y17794   5.684   3.450   6.968 -0.4715 -0.0143  1.2039
  159SAPE   C3517795   5.799   3.393   7.143  0.2624 -0.1913  0.0477
  159SAPE   H5X17796   5.836   3.308   7.205  1.6720  0.1723 -0.2847
  159SAPE   H5Y17797   5.694   3.407   7.177 -0.7001 -3.3841 -1.4900
  159SAPE   C3617798   5.866   3.532   7.163  0.5357  0.4164  0.1701
  159SAPE   H6X17799   5.829   3.600   7.083 -1.4274  1.9199  2.2914
  159SAPE   H6Y17800   5.974   3.513   7.148  0.3452 -0.4704 -0.1308
  159SAPE   C3717801   5.845   3.590   7.301  0.0376  0.6780 -0.7486
  159SAPE   H7X17802   5.742   3.632   7.302 -0.4189 -0.4326 -0.5090
  159SAPE   H7Y17803   5.911   3.672   7.336  0.4239 -1.0256  2.7636
  159SAPE   C3817804   5.841   3.486   7.414  0.0917 -0.8845 -0.5983
  159SAPE   H8X17805   5.931   3.424   7.391 -0.9188 -1.2430 -3.7995
  159SAPE   H8Y17806   5.751   3.425   7.395  0.1997 -0.8786 -1.1156
  159SAPE   C3917807   5.827   3.537   7.557  0.0177 -0.2133 -0.1294
  159SAPE   H9X17808   5.793   3.455   7.624 -2.3174  0.0889 -0.8853
  159SAPE   H9Y17809   5.756   3.623   7.563 -1.3417 -1.1578 -2.0226
  159SAPE  C31017810   5.970   3.571   7.625  0.1216 -0.0080  0.0088
  159SAPE  H10X17811   6.040   3.608   7.548  0.5573 -0.6399  0.0940
  159SAPE  H10Y17812   6.007   3.471   7.655  2.5700  0.5199 -1.1876
  159SAPE  C31117813   5.960   3.661   7.748 -0.3120 -0.3624 -0.1237
  159SAPE  H11X17814   5.920   3.756   7.707  0.0137 -0.1005  0.1577
  159SAPE  H11Y17815   6.064   3.669   7.787  0.6277  0.0146 -2.5759
  159SAPE  C31217816   5.870   3.606   7.864 -0.1072  0.1119  0.5591
  159SAPE  H12X17817   5.772   3.576   7.822  0.7181 -1.6206 -0.1695
  159SAPE  H12Y17818   5.844   3.695   7.925 -0.2119  0.7411 -0.3796
  159SAPE  C31317819   5.927   3.492   7.949 -0.1425 -1.0863 -0.4729
  159SAPE  H13X17820   5.950   3.406   7.882 -0.6068  0.1905 -2.3302
  159SAPE  H13Y17821   5.851   3.466   8.025 -0.6825 -1.3598 -1.0945
  159SAPE  C31417822   6.056   3.532   8.023 -0.5569 -0.2087  0.5077
  159SAPE  H14X17823   6.042   3.631   8.071  0.4129  0.2004 -0.0465
  159SAPE  H14Y17824   6.131   3.550   7.943 -1.5386  0.7791 -0.2244
  159SAPE  C31517825   6.110   3.432   8.117  0.1145  0.2059  0.1678
  159SAPE  H15X17826   6.098   3.332   8.072 -1.0798  0.3817  0.0795
  159SAPE  H15Y17827   6.047   3.436   8.209  0.3387  0.9975  0.2904
  159SAPE  C31617828   6.248   3.467   8.175  0.7433 -0.6916 -0.0658
  159SAPE  H16X17829   6.257   3.563   8.230  1.6103 -1.9788  2.1116
  159SAPE  H16Y17830   6.306   3.497   8.085  1.1953  1.7296  0.9909
  159SAPE  C31717831   6.327   3.357   8.240  0.2353  0.5057  0.1738
  159SAPE  H17X17832   6.433   3.391   8.239  1.0681 -1.9801 -1.4322
  159SAPE  H17Y17833   6.316   3.268   8.175  3.6417  0.1453  0.0216
  159SAPE  C31817834   6.293   3.324   8.385  0.1832 -0.6406 -0.3006
  159SAPE  H18X17835   6.190   3.282   8.387  1.6182 -4.3116  1.9151
  159SAPE  H18Y17836   6.294   3.417   8.446  0.9268 -1.1952  0.5423
  159SAPE  H18Z17837   6.357   3.248   8.434  0.5207 -0.0839  0.1261
  160SAPE     N17838   6.687   2.202   6.238  0.1108 -0.7184 -0.3036
  160SAPE   HN117839   6.637   2.288   6.269  3.6780  0.6332  1.9278
  160SAPE   HN217840   6.771   2.196   6.299 -0.8500  0.5795  1.1832
  160SAPE   HN317841   6.725   2.222   6.143  0.2079  0.4693 -0.0171
  160SAPE   C1217842   6.596   2.080   6.238 -0.0502  0.6078  0.1170
  160SAPE  H12A17843   6.600   2.027   6.336 -0.7838  1.7765  0.7907
  160SAPE  H12B17844   6.630   2.004   6.164  0.2080  2.8869 -2.1592
  160SAPE   C1117845   6.448   2.125   6.201 -0.0062  0.2492  0.0600
  160SAPE  H11A17846   6.402   2.028   6.173  0.7703  0.2468 -1.3133
  160SAPE  H11B17847   6.438   2.196   6.116 -1.6429  0.6086  0.5326
  160SAPE     P17848   6.383   2.327   6.365  0.4608  0.5356 -0.0494
  160SAPE   O1317849   6.521   2.360   6.396  0.2477  0.3056  0.7470
  160SAPE   O1417850   6.303   2.411   6.271 -0.2666  0.3991  0.2260
  160SAPE   O1217851   6.377   2.177   6.311 -0.0137  0.2487 -0.9426
  160SAPE   O1117852   6.292   2.305   6.500 -0.2763 -0.8833  0.2406
  160SAPE    C117853   6.191   2.202   6.510 -0.4731 -0.2498  0.8822
  160SAPE    HA17854   6.095   2.257   6.517  0.6828  1.9126  0.3109
  160SAPE    HB17855   6.189   2.139   6.418  1.3917  1.7960 -0.6178
  160SAPE    C217856   6.208   2.110   6.629  0.0881 -0.8936 -0.3865
  160SAPE    HS17857   6.117   2.047   6.642 -2.1500  2.3008 -0.0436
  160SAPE   O2117858   6.242   2.177   6.748 -0.3538  0.2047  0.2307
  160SAPE   C2117859   6.131   2.226   6.808  0.2400  0.1736 -1.1371
  160SAPE   O2217860   6.022   2.222   6.758  0.2456 -0.3027 -0.5334
  160SAPE   C2217861   6.157   2.266   6.958 -0.3405  0.0493  0.1484
  160SAPE   H2R17862   6.112   2.185   7.019 -1.3793 -1.0215 -1.9858
  160SAPE   H2S17863   6.267   2.260   6.971 -0.2421  0.2578 -0.5792
  160SAPE    C317864   6.331   2.014   6.599 -0.0415  0.1426 -0.7533
  160SAPE    HX17865   6.425   2.074   6.603 -0.3750  0.5833  1.0172
  160SAPE    HY17866   6.303   1.977   6.499 -1.9998  0.6701 -0.4139
  160SAPE   O3117867   6.336   1.908   6.702  0.0255 -0.5647 -0.4892
  160SAPE   C3117868   6.452   1.842   6.707  0.1778  0.0699  0.8336
  160SAPE   O3217869   6.551   1.863   6.638 -0.0002 -0.0538 -0.9337
  160SAPE   C3217870   6.445   1.721   6.800  0.2962 -0.1666  0.5004
  160SAPE   H2X17871   6.342   1.723   6.841 -0.3627  1.4683 -1.1574
  160SAPE   H2Y17872   6.514   1.744   6.884  1.4778 -2.8915  0.3159
  160SAPE   C2317873   6.109   2.415   6.994 -0.3936 -0.1685 -0.3930
  160SAPE   H3R17874   5.998   2.422   6.982 -0.6605 -0.8064  1.5347
  160SAPE   H3S17875   6.155   2.492   6.929 -2.1508  3.4768  2.4578
  160SAPE   C2417876   6.137   2.462   7.137 -0.5334  0.1536 -0.1618
  160SAPE   H4R17877   6.099   2.566   7.131 -0.4443  0.0293 -3.8439
  160SAPE   H4S17878   6.248   2.455   7.147 -0.6087  0.5571  1.0682
  160SAPE   C2517879   6.065   2.389   7.247  0.5899 -0.0805  0.3036
  160SAPE   H5R17880   6.126   2.312   7.299 -0.4689 -1.6928 -0.7933
  160SAPE   C2617881   5.960   2.437   7.317  0.1488 -0.3755  0.9289
  160SAPE   H6R17882   5.929   2.387   7.410  1.9320  0.5229  2.0536
  160SAPE   C2717883   5.877   2.558   7.302 -0.4211  0.0115  0.7834
  160SAPE   H7R17884   5.899   2.617   7.210 -0.0368 -0.1026  0.8030
  160SAPE   H7S17885   5.897   2.626   7.387  0.7316 -0.1939  0.6839
  160SAPE   C2817886   5.733   2.529   7.296  0.0922  0.0122 -0.0934
  160SAPE   H8R17887   5.682   2.539   7.199 -1.9620 -1.5985  0.8002
  160SAPE   C2917888   5.661   2.494   7.400 -0.3188 -0.1439  0.1233
  160SAPE   H9R17889   5.555   2.475   7.377 -0.3624  0.7110 -0.4242
  160SAPE  C21017890   5.703   2.489   7.544 -0.4879  0.7237  0.4472
  160SAPE  H10R17891   5.809   2.520   7.553  0.0833 -0.9620 -0.4129
  160SAPE  H10S17892   5.708   2.390   7.594 -2.6755  0.9689  1.2463
  160SAPE  C21117893   5.616   2.581   7.631  0.2427  0.0104  0.0739
  160SAPE  H11R17894   5.542   2.647   7.583  0.6312  1.0781  0.9135
  160SAPE  C21217895   5.623   2.578   7.769 -0.6084  0.4735 -0.4531
  160SAPE  H12R17896   5.564   2.648   7.830 -0.3662 -0.3168  0.7091
  160SAPE  C21317897   5.719   2.487   7.845  0.0557 -0.1951  0.0156
  160SAPE  H13R17898   5.779   2.422   7.778  0.9726 -0.6142  1.2306
  160SAPE  H13S17899   5.664   2.426   7.920  1.8885 -1.7643  0.1165
  160SAPE  C21417900   5.814   2.576   7.930  0.3630 -0.0534  0.7827
  160SAPE  H14R17901   5.865   2.657   7.878 -2.5359  1.2694 -0.1040
  160SAPE  C21517902   5.844   2.565   8.062  0.3728  0.3428 -0.9438
  160SAPE  H15R17903   5.923   2.631   8.099  1.2632 -1.3308  0.2149
  160SAPE  C21617904   5.796   2.464   8.160 -0.3678 -0.5242 -0.6878
  160SAPE  H16R17905   5.758   2.372   8.112  1.6894 -1.3342 -0.8156
  160SAPE  H16S17906   5.711   2.513   8.214 -1.3198 -0.4213 -2.2591
  160SAPE  C21717907   5.898   2.414   8.266  0.0497 -0.2670  0.3845
  160SAPE  H17R17908   5.845   2.341   8.331  0.0169  0.1654  0.8455
  160SAPE  H17S17909   5.943   2.495   8.327 -1.5027  0.3838  0.6764
  160SAPE  C21817910   6.009   2.337   8.194 -0.5076 -0.4727  0.0963
  160SAPE  H18R17911   6.058   2.405   8.122 -0.4663 -0.6980 -0.0889
  160SAPE  H18S17912   5.963   2.256   8.134 -0.7890 -1.0707  1.1125
  160SAPE  C21917913   6.107   2.279   8.294 -0.2116  0.0638 -0.0647
  160SAPE  H19R17914   6.187   2.218   8.245 -1.4567  0.6480 -2.9482
  160SAPE  H19S17915   6.049   2.209   8.359  0.4360  0.0303  0.4820
  160SAPE  C22017916   6.182   2.378   8.381  0.1663  0.0411  0.0950
  160SAPE  H20R17917   6.209   2.473   8.331  1.1095  0.6370  1.6830
  160SAPE  H20S17918   6.274   2.331   8.423  1.6639  0.6446 -2.4338
  160SAPE  H20T17919   6.122   2.407   8.470  1.7839 -0.6993  1.4542
  160SAPE   C3317920   6.487   1.596   6.724 -0.1140  0.6608 -0.2393
  160SAPE   H3X17921   6.592   1.625   6.703  0.4515 -1.9807 -1.3016
  160SAPE   H3Y17922   6.443   1.576   6.624  0.2084  2.4931 -0.7703
  160SAPE   C3417923   6.478   1.471   6.821  0.4255 -0.7160 -1.2297
  160SAPE   H4X17924   6.467   1.379   6.759  0.1215 -0.7377 -1.1460
  160SAPE   H4Y17925   6.378   1.488   6.867  1.3355  1.6142 -0.0533
  160SAPE   C3517926   6.592   1.461   6.923 -0.2241 -0.1980  0.3154
  160SAPE   H5X17927   6.579   1.551   6.986 -0.2503 -0.2821  0.4314
  160SAPE   H5Y17928   6.682   1.486   6.863 -0.6747  0.9545  0.1060
  160SAPE   C3617929   6.598   1.344   7.013 -0.0770  0.6666 -0.7038
  160SAPE   H6X17930   6.693   1.345   7.072 -0.2373 -0.1573 -0.4175
  160SAPE   H6Y17931   6.596   1.250   6.954  1.5306  1.0872 -1.4679
  160SAPE   C3717932   6.482   1.348   7.111  0.3122 -0.2616  0.2952
  160SAPE   H7X17933   6.383   1.329   7.064 -0.3720 -0.8125  1.9270
  160SAPE   H7Y17934   6.470   1.448   7.157 -0.4470 -0.2403  0.0556
  160SAPE   C3817935   6.501   1.258   7.240  0.0415 -0.0708 -0.2311
  160SAPE   H8X17936   6.603   1.279   7.281 -0.2287 -1.4910  1.2384
  160SAPE   H8Y17937   6.491   1.152   7.208 -0.7871  0.5919 -2.1738
  160SAPE   C3917938   6.399   1.299   7.348 -0.0776 -0.3533  0.5133
  160SAPE   H9X17939   6.301   1.298   7.295  0.6101  1.8547 -0.8719
  160SAPE   H9Y17940   6.415   1.405   7.378  1.5224 -1.0472  2.1333
  160SAPE  C31017941   6.408   1.218   7.474 -0.3611  0.4435  0.2415
  160SAPE  H10X17942   6.473   1.130   7.455 -0.9650 -0.0644  0.5225
  160SAPE  H10Y17943   6.306   1.181   7.498 -0.4342 -1.5418 -2.8126
  160SAPE  C31117944   6.453   1.293   7.596  0.3098 -0.8721 -0.0421
  160SAPE  H11X17945   6.393   1.386   7.603  1.4817 -0.1638  0.7791
  160SAPE  H11Y17946   6.557   1.323   7.570 -0.9363  1.9837 -2.0476
  160SAPE  C31217947   6.456   1.211   7.725  0.5111  0.7472 -0.5287
  160SAPE  H12X17948   6.474   1.102   7.707 -2.6996  0.2861 -1.1568
  160SAPE  H12Y17949   6.352   1.205   7.763 -0.6120 -1.2701 -3.6776
  160SAPE  C31317950   6.542   1.266   7.841  0.1243  0.1817 -0.2833
  160SAPE  H13X17951   6.526   1.374   7.862  0.3683 -0.2295  2.0725
  160SAPE  H13Y17952   6.647   1.269   7.804  0.3835 -0.5156  0.3903
  160SAPE  C31417953   6.519   1.184   7.966 -0.5687  0.2512 -0.7408
  160SAPE  H14X17954   6.617   1.203   8.013 -0.0730  1.4376 -2.2295
  160SAPE  H14Y17955   6.512   1.077   7.936  3.5443 -0.4545  0.4765
  160SAPE  C31517956   6.403   1.231   8.062 -0.1604  0.0030  0.1996
  160SAPE  H15X17957   6.311   1.217   8.002  0.6859 -2.8049 -0.5114
  160SAPE  H15Y17958   6.415   1.340   8.079 -3.2711  0.7646 -1.9338
  160SAPE  C31617959   6.386   1.167   8.195  0.7933  0.1837 -0.2224
  160SAPE  H16X17960   6.447   1.218   8.272 -0.5542 -2.7166  2.8895
  160SAPE  H16Y17961   6.411   1.061   8.173 -0.9944  0.1339 -2.1691
  160SAPE  C31717962   6.236   1.178   8.237 -0.1263 -0.2181 -0.3598
  160SAPE  H17X17963   6.168   1.139   8.158 -0.4954  0.7766 -0.5350
  160SAPE  H17Y17964   6.215   1.287   8.246  0.6941 -0.1516  0.9050
  160SAPE  C31817965   6.205   1.110   8.370 -0.0427 -0.2949  0.6309
  160SAPE  H18X17966   6.204   0.999   8.368 -0.6553 -0.2884  0.4009
  160SAPE  H18Y17967   6.101   1.137   8.399 -0.1058  0.6114 -0.3703
  160SAPE  H18Z17968   6.283   1.143   8.441  2.7711  0.0131 -2.4612
  161SOPE     N17969   5.132   2.894  10.708  0.2294 -0.4239 -0.1538
  161SOPE   HN117970   5.190   2.965  10.660  2.2851  1.1822  4.4148
  161SOPE   HN217971   5.156   2.901  10.809  0.1169 -0.0257 -0.1566
  161SOPE   HN317972   5.148   2.797  10.672  0.9634  0.3005 -1.8365
  161SOPE   C1217973   4.987   2.930  10.687 -0.4372 -0.0275  0.1733
  161SOPE  H12A17974   4.929   2.880  10.767  0.0252 -0.9438 -0.0630
  161SOPE  H12B17975   4.960   2.897  10.585 -0.9799 -1.0018  0.6287
  161SOPE   C1117976   4.967   3.086  10.713  0.1494 -0.2653 -0.1532
  161SOPE  H11A17977   4.993   3.103  10.820  1.4723 -1.3391 -0.2891
  161SOPE  H11B17978   4.857   3.093  10.700 -0.2253 -3.5981  0.7117
  161SOPE     P17979   5.060   3.318  10.636  0.3107 -0.2828  0.0073
  161SOPE   O1317980   5.203   3.354  10.634  0.7879 -0.1559 -0.6154
  161SOPE   O1417981   4.983   3.360  10.756 -0.3527 -0.0131  0.0240
  161SOPE   O1217982   5.040   3.164  10.614 -0.4088 -0.1784 -0.7487
  161SOPE   O1117983   4.997   3.396  10.515 -0.1759 -0.3409 -0.1360
  161SOPE    C117984   4.897   3.346  10.420 -1.4287 -0.0826  0.4919
  161SOPE    HA17985   4.812   3.415  10.407 -2.1068 -0.8243  0.9624
  161SOPE    HB17986   4.847   3.256  10.463 -1.7749 -0.2882 -0.3266
  161SOPE    C217987   4.958   3.309  10.285  0.1881  0.4089 -0.2799
  161SOPE    HS17988   4.880   3.265  10.219 -0.0128 -0.3749  0.4665
  161SOPE   O2117989   5.065   3.220  10.307 -0.4857  0.8323 -0.1065
  161SOPE   C2117990   5.035   3.092  10.300  0.4740 -0.4454  0.0338
  161SOPE   O2217991   4.922   3.046  10.296 -0.6435 -0.4191  0.3688
  161SOPE   C2217992   5.164   3.010  10.316  0.3901 -0.4195 -0.4715
  161SOPE   H2R17993   5.192   3.023  10.423  1.5342  1.2828 -0.9483
  161SOPE   H2S17994   5.242   3.041  10.243  2.1021 -0.4721  1.2934
  161SOPE    C317995   5.010   3.438  10.214  0.3032 -0.1579  0.0298
  161SOPE    HX17996   5.077   3.492  10.285 -2.5064  2.1839  1.0164
  161SOPE    HY17997   4.924   3.508  10.202 -1.1648 -1.6420  1.5665
  161SOPE   O3117998   5.088   3.419  10.092  0.1161  0.7778 -0.4807
  161SOPE   C3117999   5.170   3.520  10.064 -0.2263  0.2029 -0.3608
  161SOPE   O3218000   5.176   3.625  10.124  0.6506  0.0173 -0.3376
  161SOPE   C3218001   5.258   3.480   9.937 -0.7359 -0.6460 -0.6617
  161SOPE   H2X18002   5.235   3.374   9.915  0.5547 -0.5454 -2.6913
  161SOPE   H2Y18003   5.366   3.490   9.963  0.0799 -3.2872 -2.7682
  161SOPE   C2318004   5.130   2.860  10.313  0.0574  0.2388 -0.5878
  161SOPE   H3R18005   5.039   2.845  10.375  0.3152 -1.3129 -0.5544
  161SOPE   H3S18006   5.203   2.789  10.356 -1.1702 -1.5320 -1.3204
  161SOPE   C2418007   5.101   2.807  10.167 -0.0474  0.0802 -0.3820
  161SOPE   H4R18008   5.068   2.704  10.190 -0.9270 -0.6996 -4.6857
  161SOPE   H4S18009   5.023   2.864  10.112 -0.7247 -0.7043 -0.2362
  161SOPE   C2518010   5.240   2.812  10.092  0.3391  0.3225  0.0630
  161SOPE   H5R18011   5.265   2.919  10.073 -0.7704  0.3742 -1.1519
  161SOPE   H5S18012   5.313   2.765  10.162 -0.0016  0.3413  0.4361
  161SOPE   C2618013   5.242   2.740   9.959  0.3382  0.9208  0.1911
  161SOPE   H6R18014   5.264   2.631   9.963  0.0817  0.6795 -3.2139
  161SOPE   H6S18015   5.137   2.747   9.922  0.3364 -0.7356 -0.1723
  161SOPE   C2718016   5.328   2.802   9.856 -0.6383  0.2717  0.2412
  161SOPE   H7R18017   5.424   2.812   9.912  0.7878  3.9154 -2.6878
  161SOPE   H7S18018   5.350   2.730   9.774 -0.3126  1.9596 -1.1710
  161SOPE   C2818019   5.283   2.942   9.801 -0.7574  0.5916 -0.5324
  161SOPE   H8R18020   5.281   3.018   9.883 -1.8444  0.4674 -0.4361
  161SOPE   H8S18021   5.350   2.972   9.718  4.0893 -2.3864  2.0449
  161SOPE   C2918022   5.136   2.953   9.756 -0.2093  0.6258 -0.3624
  161SOPE   H9118023   5.072   2.927   9.841 -0.8454  1.7909 -0.4777
  161SOPE  C21018024   5.096   2.999   9.643  0.1091 -0.1981  0.2054
  161SOPE  H10118025   4.988   2.994   9.623  0.2823 -0.0703 -0.7707
  161SOPE  C21118026   5.188   3.054   9.532  0.3520 -0.1123 -0.1584
  161SOPE  H11R18027   5.279   2.994   9.509  0.9532  0.9135 -0.4849
  161SOPE  H11S18028   5.237   3.140   9.581 -0.1544 -0.8779  1.7380
  161SOPE  C21218029   5.124   3.081   9.392  0.1329  1.1265 -0.4851
  161SOPE  H12R18030   5.204   3.086   9.315  0.2160 -2.0749 -0.6832
  161SOPE  H12S18031   5.063   3.172   9.409 -0.4527  0.9623 -1.6484
  161SOPE  C21318032   5.035   2.970   9.334  0.2263 -0.2365 -0.0925
  161SOPE  H13R18033   4.945   2.946   9.394  0.8444 -1.5042  0.3483
  161SOPE  H13S18034   5.086   2.871   9.334  0.2363 -0.2588 -1.7773
  161SOPE  C21418035   4.991   3.014   9.195 -0.3971  0.4192  0.0743
  161SOPE  H14R18036   5.075   3.017   9.121 -0.3751 -1.0362  0.0208
  161SOPE  H14S18037   4.962   3.120   9.211 -0.9551 -0.0986  2.6145
  161SOPE  C21518038   4.895   2.911   9.135  0.0377 -0.3339 -1.1725
  161SOPE  H15R18039   4.851   2.957   9.044  1.5040  0.8551 -1.2991
  161SOPE  H15S18040   4.808   2.894   9.201  1.7167 -1.3958  0.8653
  161SOPE  C21618041   4.959   2.775   9.113 -0.2724 -0.2439 -0.1400
  161SOPE  H16R18042   4.973   2.731   9.214 -2.4258 -2.8745 -0.9082
  161SOPE  H16S18043   5.056   2.782   9.060 -0.0636  3.3307  0.5900
  161SOPE  C21718044   4.872   2.679   9.037  0.0574  0.0782  0.4450
  161SOPE  H17R18045   4.892   2.691   8.929 -1.3551 -1.5103 -0.0148
  161SOPE  H17S18046   4.765   2.705   9.050 -0.2581 -0.2235 -1.4436
  161SOPE  C21818047   4.896   2.532   9.065 -0.0739 -0.1871 -0.3034
  161SOPE  H18R18048   4.887   2.519   9.175 -0.7571  0.7986 -0.2334
  161SOPE  H18S18049   4.996   2.495   9.034  0.8539  2.4781 -0.6463
  161SOPE  H18T18050   4.820   2.464   9.021 -1.7712  0.3650  1.6647
  161SOPE   C3318051   5.223   3.578   9.815  0.3152 -0.6708  0.0251
  161SOPE   H3X18052   5.314   3.588   9.751  0.3659 -0.6962  0.0940
  161SOPE   H3Y18053   5.208   3.678   9.860  0.0270 -0.7969  0.2113
  161SOPE   C3418054   5.104   3.546   9.722 -0.3445 -0.5434 -0.0035
  161SOPE   H4X18055   5.022   3.519   9.792  1.0320 -1.8001  1.1533
  161SOPE   H4Y18056   5.138   3.463   9.658  0.1150  0.4414 -1.0515
  161SOPE   C3518057   5.061   3.660   9.625 -0.7019  0.5910 -0.5227
  161SOPE   H5X18058   5.160   3.701   9.597 -0.8512  0.6893 -0.8992
  161SOPE   H5Y18059   4.996   3.726   9.686 -1.9392 -0.7924 -0.3047
  161SOPE   C3618060   4.995   3.604   9.500  0.1499  0.0833  0.8415
  161SOPE   H6X18061   4.888   3.578   9.514  0.2577 -2.1046 -1.9815
  161SOPE   H6Y18062   5.058   3.518   9.471 -0.5909 -0.6393  1.3457
  161SOPE   C3718063   5.008   3.708   9.386 -0.4625 -0.0715  0.5153
  161SOPE   H7X18064   5.101   3.763   9.412 -0.9548  0.2448  1.6737
  161SOPE   H7Y18065   4.924   3.781   9.388 -0.1553  0.3961 -2.0748
  161SOPE   C3818066   5.040   3.653   9.242  0.7715  0.7585  0.3640
  161SOPE   H8X18067   5.128   3.589   9.263 -0.1871  0.1756  2.8180
  161SOPE   H8Y18068   5.073   3.742   9.185 -2.5518  1.6160 -0.3181
  161SOPE   C3918069   4.929   3.572   9.181 -0.0484 -0.2432 -0.6386
  161SOPE   H9X18070   4.843   3.631   9.145  0.0450  0.8058  0.8196
  161SOPE   H9Y18071   4.887   3.507   9.261  2.8458  0.1453  1.3142
  161SOPE  C31018072   4.982   3.483   9.074 -0.5696  0.6335 -0.0183
  161SOPE  H10X18073   5.058   3.417   9.120 -2.2256 -1.1674  0.1883
  161SOPE  H10Y18074   5.039   3.548   9.003 -0.3741 -0.7057 -1.1010
  161SOPE  C31118075   4.874   3.410   8.995  0.6391  0.9299 -0.6123
  161SOPE  H11X18076   4.798   3.480   8.955 -0.3631 -0.1850 -0.7187
  161SOPE  H11Y18077   4.815   3.334   9.051 -0.2554  1.1164 -1.2904
  161SOPE  C31218078   4.942   3.324   8.889 -0.0556 -0.3705  0.6847
  161SOPE  H12X18079   4.972   3.226   8.932 -1.6107  0.0119  2.7087
  161SOPE  H12Y18080   5.029   3.381   8.850  0.6529 -1.0973  1.1872
  161SOPE  C31318081   4.844   3.290   8.770  0.6140  0.1615  0.0536
  161SOPE  H13X18082   4.842   3.390   8.722 -3.3586  0.2390  0.2552
  161SOPE  H13Y18083   4.738   3.266   8.791  1.5033 -1.1321  3.4763
  161SOPE  C31418084   4.911   3.183   8.677 -0.1172  0.4986 -0.4863
  161SOPE  H14X18085   4.837   3.156   8.599 -0.2678  3.0939 -1.2639
  161SOPE  H14Y18086   4.943   3.093   8.734 -2.0508 -0.7241 -1.2784
  161SOPE  C31518087   5.030   3.230   8.601  0.0639 -0.6764 -0.1156
  161SOPE  H15X18088   5.119   3.261   8.659  0.1839 -1.4820  0.1362
  161SOPE  H15Y18089   4.999   3.313   8.533  3.3894 -0.0019 -0.8856
  161SOPE  C31618090   5.079   3.111   8.511  0.4760 -0.0828  0.4016
  161SOPE  H16X18091   4.991   3.090   8.447 -0.2970  0.3711  1.3139
  161SOPE  H16Y18092   5.100   3.023   8.576 -1.2537 -1.1694 -0.4687
  161SOPE  C31718093   5.205   3.142   8.431  0.5345 -0.5663 -0.9976
  161SOPE  H17X18094   5.223   3.047   8.377  1.5172 -0.0309 -1.6451
  161SOPE  H17Y18095   5.284   3.166   8.506  0.0329  3.8650 -1.7254
  161SOPE  C31818096   5.209   3.253   8.325  0.4697 -0.4282  0.4851
  161SOPE  H18X18097   5.176   3.354   8.356 -1.0954 -0.4750 -0.9644
  161SOPE  H18Y18098   5.151   3.215   8.238 -1.4099  1.0591  1.0577
  161SOPE  H18Z18099   5.315   3.264   8.293  0.7218  0.5945  1.6580
  162SOPE     N18100   4.210   2.742  10.941  0.6891  0.0866 -0.6690
  162SOPE   HN118101   4.170   2.771  11.032  1.7248  0.7050 -0.4018
  162SOPE   HN218102   4.228   2.640  10.932 -3.0574 -0.6267 -0.6806
  162SOPE   HN318103   4.301   2.792  10.931  1.3192 -1.1086 -1.0751
  162SOPE   C1218104   4.121   2.793  10.826  0.0837  0.0225  0.1395
  162SOPE  H12A18105   4.028   2.733  10.833 -0.5841  0.9013 -1.0780
  162SOPE  H12B18106   4.155   2.752  10.728 -0.0693 -0.3066  0.2235
  162SOPE   C1118107   4.097   2.947  10.817  0.0932  0.0347  0.1451
  162SOPE  H11A18108   4.041   2.964  10.723  0.0967  2.3571  0.5363
  162SOPE  H11B18109   4.202   2.983  10.812 -1.2716  4.3245  0.5019
  162SOPE     P18110   4.000   3.156  10.928 -0.0328 -0.2732 -0.0776
  162SOPE   O1318111   4.034   3.222  11.057  0.0226  0.2145  0.1684
  162SOPE   O1418112   3.860   3.173  10.884 -0.5126 -0.0528  0.4997
  162SOPE   O1218113   4.033   2.999  10.935 -0.1621  0.1424  0.1358
  162SOPE   O1118114   4.109   3.210  10.827  0.0958  0.7661  0.1763
  162SOPE    C118115   4.096   3.344  10.775 -0.2292 -0.2345 -0.1316
  162SOPE    HA18116   4.160   3.350  10.684  0.6454  2.0839  0.5934
  162SOPE    HB18117   4.135   3.422  10.844 -0.3990 -0.1309 -0.1527
  162SOPE    C218118   3.966   3.387  10.703 -0.3010  0.0669 -0.0550
  162SOPE    HS18119   3.876   3.392  10.768  0.4738  1.1238  0.9748
  162SOPE   O2118120   3.935   3.275  10.615 -0.5017  0.7917 -0.0410
  162SOPE   C2118121   3.820   3.278  10.552 -0.1067  0.0851  0.4308
  162SOPE   O2218122   3.720   3.334  10.591  0.0469  0.5908 -0.3679
  162SOPE   C2218123   3.819   3.193  10.423 -0.4180 -0.2511  0.3334
  162SOPE   H2R18124   3.716   3.150  10.423 -0.4972 -0.0984 -1.9656
  162SOPE   H2S18125   3.889   3.109  10.442 -2.6327 -2.0468  0.8663
  162SOPE    C318126   3.988   3.513  10.623  0.3223 -0.5981 -0.1923
  162SOPE    HX18127   4.065   3.486  10.548 -0.0451  1.3211 -1.2890
  162SOPE    HY18128   4.021   3.602  10.682 -0.9973 -0.3220  0.1426
  162SOPE   O3118129   3.861   3.556  10.559 -0.8785 -0.2491  0.2774
  162SOPE   C3118130   3.777   3.615  10.641 -0.1530 -0.2474 -0.5667
  162SOPE   O3218131   3.790   3.630  10.760 -0.2578  0.0313  0.1005
  162SOPE   C3218132   3.657   3.671  10.566  0.8204  0.3875 -0.2031
  162SOPE   H2X18133   3.690   3.671  10.460  2.6092  2.1243  0.3258
  162SOPE   H2Y18134   3.650   3.778  10.594 -0.0810  0.3114 -0.1402
  162SOPE   C2318135   3.877   3.278  10.308 -0.0133  0.8263 -0.2459
  162SOPE   H3R18136   3.891   3.210  10.221  1.6524 -0.1435  0.7714
  162SOPE   H3S18137   3.978   3.310  10.341  1.2232  1.0957 -4.0520
  162SOPE   C2418138   3.792   3.404  10.260  0.4118  0.1393 -0.0817
  162SOPE   H4R18139   3.688   3.365  10.254  0.1852  0.4189  1.5895
  162SOPE   H4S18140   3.799   3.478  10.343  3.1336 -0.6874  0.5014
  162SOPE   C2518141   3.836   3.454  10.128  0.0719 -0.5405 -0.4645
  162SOPE   H5R18142   3.868   3.560  10.137 -0.4203 -0.4579  0.3856
  162SOPE   H5S18143   3.924   3.394  10.098  1.3581  0.1642  1.7218
  162SOPE   C2618144   3.731   3.444  10.021 -0.1635  0.4282 -0.6837
  162SOPE   H6R18145   3.702   3.337  10.008  0.5326 -0.1192  1.9560
  162SOPE   H6S18146   3.633   3.491  10.046 -1.0015 -0.9909 -1.2096
  162SOPE   C2718147   3.774   3.500   9.887  0.0437 -0.2237  1.2361
  162SOPE   H7R18148   3.773   3.610   9.896  1.2817  0.0048 -1.0737
  162SOPE   H7S18149   3.875   3.468   9.852  0.1216  1.4279 -0.0918
  162SOPE   C2818150   3.670   3.467   9.771  0.1642  0.3508 -0.4700
  162SOPE   H8R18151   3.571   3.487   9.818 -0.2813 -1.4465 -0.5644
  162SOPE   H8S18152   3.695   3.537   9.688 -0.2286  0.7792 -0.2242
  162SOPE   C2918153   3.690   3.326   9.732  0.5827  0.1688  0.4781
  162SOPE   H9118154   3.677   3.254   9.814 -1.2116  1.5341  1.4258
  162SOPE  C21018155   3.707   3.282   9.606 -0.0905  0.2683  0.3179
  162SOPE  H10118156   3.723   3.174   9.594 -2.9031 -0.2485  0.7471
  162SOPE  C21118157   3.719   3.367   9.478 -0.0230 -0.4121 -0.3357
  162SOPE  H11R18158   3.821   3.350   9.439  0.6830 -0.6471  1.5819
  162SOPE  H11S18159   3.706   3.476   9.497 -1.1154 -0.8886  1.7991
  162SOPE  C21218160   3.614   3.319   9.375  0.1253  0.3424 -0.9504
  162SOPE  H12R18161   3.514   3.327   9.424  1.0313  1.1952  0.8142
  162SOPE  H12S18162   3.641   3.213   9.355 -0.8708  0.6009 -3.8768
  162SOPE  C21318163   3.624   3.409   9.255 -0.1233  0.0868 -0.0899
  162SOPE  H13R18164   3.710   3.379   9.191 -1.0735 -2.1660 -0.3676
  162SOPE  H13S18165   3.633   3.514   9.291  1.7635 -0.5754  1.4307
  162SOPE  C21418166   3.508   3.412   9.162  0.2499  0.2785 -1.1374
  162SOPE  H14R18167   3.415   3.417   9.222  0.4015 -1.3523 -0.7332
  162SOPE  H14S18168   3.498   3.309   9.120 -0.1492 -0.3722  0.5050
  162SOPE  C21518169   3.499   3.517   9.046 -0.1426  0.2139  0.0324
  162SOPE  H15R18170   3.515   3.622   9.078  0.0208  1.2993 -3.3917
  162SOPE  H15S18171   3.399   3.508   8.997 -1.0321  2.1252  1.4136
  162SOPE  C21618172   3.601   3.477   8.940 -0.6175 -0.8196  0.4616
  162SOPE  H16R18173   3.603   3.367   8.924  1.6035 -0.9606  1.5567
  162SOPE  H16S18174   3.700   3.506   8.981 -0.7704 -0.5991  0.6796
  162SOPE  C21718175   3.565   3.540   8.803 -0.2697 -0.0786  0.6079
  162SOPE  H17R18176   3.558   3.650   8.811  2.2899  0.3042 -1.5752
  162SOPE  H17S18177   3.472   3.495   8.763 -0.5485  1.0984 -0.1028
  162SOPE  C21818178   3.680   3.516   8.701 -0.1057  0.1256 -0.0095
  162SOPE  H18R18179   3.690   3.408   8.679 -0.0450  1.2481 -6.8813
  162SOPE  H18S18180   3.774   3.560   8.742  0.4343  0.7675 -1.8324
  162SOPE  H18T18181   3.636   3.562   8.609 -1.4791 -2.3090 -0.6063
  162SOPE   C3318182   3.522   3.591  10.585  0.3732 -0.6460 -0.1334
  162SOPE   H3X18183   3.474   3.610  10.683  1.3385 -0.4174  0.3022
  162SOPE   H3Y18184   3.543   3.483  10.576  0.6922 -0.5523 -0.5350
  162SOPE   C3418185   3.410   3.630  10.485 -0.5938  0.0789 -0.0446
  162SOPE   H4X18186   3.404   3.740  10.477  1.1901  0.1406 -0.8939
  162SOPE   H4Y18187   3.313   3.588  10.519 -1.5374  1.9926 -0.3783
  162SOPE   C3518188   3.441   3.580  10.342  0.7109  0.2895  0.0034
  162SOPE   H5X18189   3.420   3.472  10.325  0.1257  0.2131  1.1859
  162SOPE   H5Y18190   3.549   3.603  10.325  0.9695  0.5278  1.9121
  162SOPE   C3618191   3.354   3.660  10.235  0.3532 -0.1744  0.5857
  162SOPE   H6X18192   3.361   3.770  10.251 -0.4572 -0.0259 -0.0958
  162SOPE   H6Y18193   3.251   3.622  10.252  0.4828 -0.2622  1.1772
  162SOPE   C3718194   3.381   3.628  10.087 -0.4369 -0.1668 -0.0009
  162SOPE   H7X18195   3.387   3.520  10.066 -1.8877 -0.0814 -0.9596
  162SOPE   H7Y18196   3.485   3.662  10.067 -0.6420  0.6768  0.3474
  162SOPE   C3818197   3.302   3.706   9.983 -0.2856 -0.3114 -0.0783
  162SOPE   H8X18198   3.307   3.817   9.987  3.2855 -0.4266 -0.4438
  162SOPE   H8Y18199   3.196   3.677   9.999 -1.4085  3.0852 -0.8119
  162SOPE   C3918200   3.328   3.659   9.830  0.0118 -0.5054  0.2951
  162SOPE   H9X18201   3.304   3.550   9.835  1.6197 -0.8321  1.0661
  162SOPE   H9Y18202   3.436   3.663   9.805  0.1680 -1.4158  0.8089
  162SOPE  C31018203   3.248   3.731   9.727 -0.0540 -0.6876  0.5958
  162SOPE  H10X18204   3.256   3.839   9.750 -1.7908 -0.7796  1.7649
  162SOPE  H10Y18205   3.141   3.703   9.740 -0.5067  1.1304  0.8242
  162SOPE  C31118206   3.270   3.709   9.573 -0.3565  0.0105  0.3578
  162SOPE  H11X18207   3.264   3.600   9.550 -1.5124  0.2551 -0.5372
  162SOPE  H11Y18208   3.368   3.750   9.543 -1.1165  0.4205 -1.6293
  162SOPE  C31218209   3.156   3.790   9.499  0.4520 -0.1030  0.3937
  162SOPE  H12X18210   3.179   3.894   9.530 -1.5177  0.7657 -0.9846
  162SOPE  H12Y18211   3.055   3.772   9.541  0.6080  1.0898  1.3144
  162SOPE  C31318212   3.146   3.764   9.345  0.0451  0.0129  0.0079
  162SOPE  H13X18213   3.086   3.673   9.328 -2.8303  1.6713  0.8865
  162SOPE  H13Y18214   3.251   3.746   9.313  0.2546  0.6748  0.3119
  162SOPE  C31418215   3.064   3.878   9.281  0.1595 -0.3919 -0.2444
  162SOPE  H14X18216   3.096   3.980   9.310  0.0929  0.0133 -1.5368
  162SOPE  H14Y18217   2.958   3.862   9.309  0.6849 -1.7880  1.0451
  162SOPE  C31518218   3.065   3.872   9.128  0.1030  0.8481  0.1890
  162SOPE  H15X18219   3.008   3.959   9.088  1.2440  0.8429 -1.4953
  162SOPE  H15Y18220   3.009   3.786   9.087  0.1039  1.8690 -2.0590
  162SOPE  C31618221   3.208   3.873   9.064  0.2912  0.6938 -0.2246
  162SOPE  H16X18222   3.251   3.776   9.098 -1.8685 -0.4588 -0.6705
  162SOPE  H16Y18223   3.272   3.955   9.103 -1.7937  2.0539  0.4078
  162SOPE  C31718224   3.198   3.876   8.910  0.0930  0.2408 -0.9866
  162SOPE  H17X18225   3.302   3.902   8.881 -0.1333  2.8026  0.2894
  162SOPE  H17Y18226   3.126   3.954   8.878  0.6662  1.0597 -0.2834
  162SOPE  C31818227   3.143   3.743   8.859  0.3770  0.9303 -1.0580
  162SOPE  H18X18228   3.054   3.708   8.915  1.6631 -0.2631  0.2817
  162SOPE  H18Y18229   3.216   3.660   8.852 -0.8103 -0.1447 -0.7411
  162SOPE  H18Z18230   3.100   3.752   8.757 -0.0736 -1.9040 -1.1590
  163SOPE     N18231   4.269   6.802  10.849 -0.2770  0.2585 -0.4876
  163SOPE   HN118232   4.309   6.730  10.911 -0.1822  0.6533 -0.0833
  163SOPE   HN218233   4.172   6.817  10.882  0.5966  2.0787  1.3762
  163SOPE   HN318234   4.269   6.771  10.750 -0.2001 -1.9686  0.1988
  163SOPE   C1218235   4.325   6.935  10.879  0.3265 -0.2425 -0.4909
  163SOPE  H12A18236   4.433   6.943  10.855  0.1151 -0.5014 -1.5576
  163SOPE  H12B18237   4.311   6.968  10.984  1.6774  1.3138 -0.7830
  163SOPE   C1118238   4.245   7.029  10.783 -0.3707 -0.0687  0.9517
  163SOPE  H11A18239   4.253   7.000  10.676 -0.9050  1.0843  0.5868
  163SOPE  H11B18240   4.288   7.131  10.790  0.1917 -0.3020  0.9768
  163SOPE     P18241   4.052   7.172  10.899 -0.2922 -0.1979 -0.5016
  163SOPE   O1318242   4.128   7.191  11.028 -0.1880  0.5343  0.3073
  163SOPE   O1418243   3.905   7.159  10.909 -0.1172 -0.3114  0.4884
  163SOPE   O1218244   4.105   7.039  10.824 -0.2996  0.4989 -0.1535
  163SOPE   O1118245   4.098   7.290  10.805 -0.5445  0.1125  0.0492
  163SOPE    C118246   4.008   7.329  10.695 -0.6806  0.5572 -0.4915
  163SOPE    HA18247   4.014   7.440  10.695  1.6573  0.4599  0.5119
  163SOPE    HB18248   3.902   7.313  10.723  0.1888 -1.6003  1.7019
  163SOPE    C218249   4.055   7.277  10.559  0.0361 -0.1900 -0.4352
  163SOPE    HS18250   3.988   7.316  10.479 -0.3807 -1.2823 -0.6294
  163SOPE   O2118251   4.063   7.136  10.550 -0.1836 -0.8921  0.0452
  163SOPE   C2118252   3.948   7.073  10.535 -0.0062 -0.2456  0.1453
  163SOPE   O2218253   3.836   7.127  10.531 -0.3200  0.2146  0.0109
  163SOPE   C2218254   3.969   6.926  10.529  0.5498  0.0532 -0.0657
  163SOPE   H2R18255   3.971   6.885  10.633 -0.3260 -1.9353 -0.8025
  163SOPE   H2S18256   4.073   6.904  10.498  0.1447 -0.8626 -0.7965
  163SOPE    C318257   4.193   7.337  10.523 -0.2078  0.0070  0.0845
  163SOPE    HX18258   4.261   7.308  10.606 -0.5721  0.7743  0.6573
  163SOPE    HY18259   4.205   7.447  10.518  0.4919 -0.0811 -0.2620
  163SOPE   O3118260   4.252   7.279  10.400  0.0829 -0.3317 -0.0892
  163SOPE   C3118261   4.184   7.303  10.294  0.8152  0.4884  0.1472
  163SOPE   O3218262   4.101   7.393  10.276 -0.3698  0.4946 -0.7874
  163SOPE   C3218263   4.221   7.194  10.188  0.5547 -0.9503 -0.0030
  163SOPE   H2X18264   4.182   7.094  10.217  0.3405 -0.2087  2.3649
  163SOPE   H2Y18265   4.332   7.183  10.193  0.4858 -1.8368 -0.2570
  163SOPE   C2318266   3.869   6.853  10.434  0.2251  0.0097  0.8651
  163SOPE   H3R18267   3.784   6.822  10.499  0.2038  0.2049  0.9314
  163SOPE   H3S18268   3.927   6.763  10.405  0.6258  0.2694  0.8583
  163SOPE   C2418269   3.808   6.926  10.317 -0.5590  0.6305 -0.2169
  163SOPE   H4R18270   3.750   7.012  10.358 -0.6522  0.3149  0.3202
  163SOPE   H4S18271   3.900   6.973  10.277  0.4559 -1.5580 -0.4787
  163SOPE   C2518272   3.743   6.860  10.196 -0.3978  0.4693  0.3097
  163SOPE   H5R18273   3.795   6.763  10.182  1.4030  1.3178  1.0007
  163SOPE   H5S18274   3.637   6.845  10.225 -1.3107 -0.7076 -3.3853
  163SOPE   C2618275   3.750   6.953  10.078 -0.5691 -0.4389 -0.2793
  163SOPE   H6R18276   3.697   7.048  10.102 -0.2492 -0.8572  2.2660
  163SOPE   H6S18277   3.857   6.971  10.055  0.4528 -3.1098  2.0252
  163SOPE   C2718278   3.691   6.896   9.947 -0.1098 -0.5967  0.0535
  163SOPE   H7R18279   3.735   6.796   9.927  1.0437  0.0578 -0.6964
  163SOPE   H7S18280   3.581   6.886   9.962 -0.1874  1.2383  0.9437
  163SOPE   C2818281   3.713   6.995   9.830  0.4385 -0.1209  0.4344
  163SOPE   H8R18282   3.656   6.958   9.742 -0.4428  0.5538  0.7178
  163SOPE   H8S18283   3.669   7.092   9.859  0.0527 -0.0515 -0.3722
  163SOPE   C2918284   3.861   7.014   9.782 -0.4282  1.1651 -0.4411
  163SOPE   H9118285   3.936   7.038   9.858  0.1778  0.9595 -0.9748
  163SOPE  C21018286   3.913   6.977   9.661  0.2187 -0.1235  0.6775
  163SOPE  H10118287   4.022   6.982   9.653  0.3650 -1.9994  1.2695
  163SOPE  C21118288   3.855   6.935   9.528 -0.1172 -0.3863  0.2802
  163SOPE  H11R18289   3.881   7.010   9.450 -0.3030  0.5698  1.1143
  163SOPE  H11S18290   3.745   6.937   9.539  0.0359  0.5718  1.8151
  163SOPE  C21218291   3.900   6.793   9.484 -0.0083  0.0473 -0.6015
  163SOPE  H12R18292   3.860   6.722   9.560  1.5126 -0.4406 -0.2275
  163SOPE  H12S18293   4.011   6.785   9.487 -0.0158 -0.3217 -1.1587
  163SOPE  C21318294   3.857   6.748   9.343 -0.6130 -0.4676  0.3522
  163SOPE  H13R18295   3.758   6.792   9.319  0.7116  2.0490 -0.7568
  163SOPE  H13S18296   3.860   6.637   9.347 -0.9614 -0.4765  0.3650
  163SOPE  C21418297   3.966   6.784   9.240  0.3750 -0.3223 -0.8421
  163SOPE  H14R18298   4.067   6.755   9.277 -0.1677  0.1417  1.0664
  163SOPE  H14S18299   3.970   6.895   9.238  0.0032 -0.2490  1.4693
  163SOPE  C21518300   3.951   6.741   9.099 -0.0583  0.6721 -0.2815
  163SOPE  H15R18301   3.963   6.631   9.088 -1.5329  0.4210  0.5527
  163SOPE  H15S18302   4.033   6.784   9.038  0.2920 -1.7415 -1.6118
  163SOPE  C21618303   3.816   6.782   9.030 -0.2049  0.4620 -0.1733
  163SOPE  H16R18304   3.743   6.732   9.097 -1.0240  1.4699 -0.3091
  163SOPE  H16S18305   3.803   6.736   8.930 -0.2789  1.4053 -0.6006
  163SOPE  C21718306   3.797   6.931   9.024  0.4641 -0.6895 -0.0362
  163SOPE  H17R18307   3.815   6.979   9.122 -0.5246 -0.0671 -0.1538
  163SOPE  H17S18308   3.694   6.956   8.989  0.2765 -0.7950  0.4420
  163SOPE  C21818309   3.898   6.997   8.928 -0.3580 -0.4047 -0.0411
  163SOPE  H18R18310   3.897   6.937   8.835 -0.8096  0.6938 -0.7489
  163SOPE  H18S18311   4.000   6.993   8.974 -0.6833  0.9014  0.8244
  163SOPE  H18T18312   3.879   7.104   8.908  2.0861 -0.0657 -0.8108
  163SOPE   C3318313   4.177   7.231  10.041 -0.2043 -0.2653  0.1793
  163SOPE   H3X18314   4.211   7.330  10.002 -0.9539 -0.6582 -1.5251
  163SOPE   H3Y18315   4.066   7.233  10.034 -0.2246 -2.1673 -0.3340
  163SOPE   C3418316   4.242   7.130   9.947  0.1290 -0.3321 -0.0435
  163SOPE   H4X18317   4.194   7.033   9.972 -1.4018  0.7288  1.2125
  163SOPE   H4Y18318   4.352   7.115   9.953 -0.1943 -2.2473  1.4342
  163SOPE   C3518319   4.223   7.171   9.805  0.3068 -0.6922  0.5197
  163SOPE   H5X18320   4.266   7.272   9.787  0.4347 -0.1913  3.3630
  163SOPE   H5Y18321   4.114   7.177   9.783  0.2254  0.6943  1.2392
  163SOPE   C3618322   4.291   7.083   9.699  0.3641 -0.9851 -0.2990
  163SOPE   H6X18323   4.254   6.979   9.686 -0.4186 -0.3789 -3.0898
  163SOPE   H6Y18324   4.400   7.075   9.720  0.4099  1.5202  0.6081
  163SOPE   C3718325   4.256   7.144   9.570 -0.2347  0.1528 -0.6967
  163SOPE   H7X18326   4.302   7.245   9.558  2.2401 -0.9291 -0.6988
  163SOPE   H7Y18327   4.146   7.150   9.560 -0.6957 -1.6268  2.6781
  163SOPE   C3818328   4.319   7.067   9.449  0.2394 -0.4928 -0.5444
  163SOPE   H8X18329   4.263   6.970   9.444  0.4015 -0.7214  1.5486
  163SOPE   H8Y18330   4.427   7.042   9.457  0.7047  1.8508  0.8570
  163SOPE   C3918331   4.307   7.145   9.321 -0.4214  0.1824  0.0023
  163SOPE   H9X18332   4.360   7.085   9.245 -0.6750 -0.3390  0.2376
  163SOPE   H9Y18333   4.376   7.233   9.329 -1.0962  0.3893  5.1958
  163SOPE  C31018334   4.163   7.196   9.283  0.4232  0.0096  0.9550
  163SOPE  H10X18335   4.122   7.271   9.354 -1.5347 -1.3705  1.3138
  163SOPE  H10Y18336   4.092   7.110   9.281  0.1983  0.2008  0.4829
  163SOPE  C31118337   4.168   7.241   9.135 -0.3583  0.1765 -0.2521
  163SOPE  H11X18338   4.193   7.165   9.058 -1.3892  0.1361 -0.5527
  163SOPE  H11Y18339   4.256   7.309   9.132  1.6604 -2.4033 -1.6425
  163SOPE  C31218340   4.042   7.320   9.091  0.1307 -0.1018  0.3531
  163SOPE  H12X18341   4.029   7.397   9.169 -0.5794 -0.9421  1.0623
  163SOPE  H12Y18342   3.941   7.275   9.089  0.1515 -0.1187 -0.5868
  163SOPE  C31318343   4.068   7.407   8.963  0.2129  0.0571  0.0752
  163SOPE  H13X18344   4.085   7.343   8.874 -0.3082  0.1437 -0.0852
  163SOPE  H13Y18345   4.169   7.453   8.963  0.6080 -0.8063 -0.6500
  163SOPE  C31418346   3.971   7.515   8.932  0.3044 -0.6679  0.6620
  163SOPE  H14X18347   3.978   7.604   8.999 -1.2129  0.1195 -0.2236
  163SOPE  H14Y18348   3.862   7.495   8.927  0.0543  1.0869 -1.1800
  163SOPE  C31518349   4.002   7.572   8.787  0.6771  0.3538  0.4827
  163SOPE  H15X18350   3.997   7.487   8.716 -0.9616  2.1492 -1.6174
  163SOPE  H15Y18351   4.102   7.620   8.776 -0.3329  2.3398 -0.3564
  163SOPE  C31618352   3.894   7.679   8.745  0.5790 -0.2623  0.1224
  163SOPE  H16X18353   3.909   7.770   8.807  2.7266 -0.4135 -0.1445
  163SOPE  H16Y18354   3.795   7.632   8.767 -0.1687 -1.1535 -4.5997
  163SOPE  C31718355   3.902   7.701   8.588 -0.3896  0.2071 -0.0536
  163SOPE  H17X18356   3.886   7.607   8.530 -0.5104  1.1466 -1.5820
  163SOPE  H17Y18357   4.001   7.742   8.559  0.0152 -1.4786 -1.1260
  163SOPE  C31818358   3.792   7.807   8.547  0.3002  0.4165  0.3260
  163SOPE  H18X18359   3.784   7.811   8.437  1.2579  1.2663  0.2751
  163SOPE  H18Y18360   3.828   7.906   8.584  1.0665  0.5101 -0.6733
  163SOPE  H18Z18361   3.691   7.785   8.589  0.2730  1.0674  0.6109
  164SOPE     N18362   0.234   5.676  10.407 -0.2750  0.0010  0.3727
  164SOPE   HN118363   0.191   5.595  10.457 -2.9555  1.8344  1.1595
  164SOPE   HN218364   0.162   5.715  10.343 -0.3680  0.5803  0.8229
  164SOPE   HN318365   0.319   5.638  10.361 -0.2088  0.6323 -0.0302
  164SOPE   C1218366   0.294   5.785  10.501  0.3324  0.2164  0.6218
  164SOPE  H12A18367   0.212   5.853  10.532 -0.3831 -1.3156  2.1454
  164SOPE  H12B18368   0.380   5.831  10.447  1.5311 -1.8526  0.7112
  164SOPE   C1118369   0.345   5.708  10.629 -0.1355 -0.3587 -0.5762
  164SOPE  H11A18370   0.256   5.680  10.690 -0.7539 -0.6350 -1.5839
  164SOPE  H11B18371   0.407   5.777  10.690 -3.6452  1.5276  1.0551
  164SOPE     P18372   0.495   5.507  10.703  0.0592 -0.1115 -0.1467
  164SOPE   O1318373   0.487   5.368  10.652  0.2249 -0.1733  0.3746
  164SOPE   O1418374   0.439   5.541  10.835 -0.1071  0.0261  0.4231
  164SOPE   O1218375   0.427   5.599  10.599  0.2634  0.1031 -0.2140
  164SOPE   O1118376   0.650   5.552  10.701  0.0239 -0.3963  0.4396
  164SOPE    C118377   0.679   5.675  10.628 -1.1136 -0.2543 -0.3064
  164SOPE    HA18378   0.778   5.713  10.661 -1.1634  1.3913 -1.9447
  164SOPE    HB18379   0.606   5.758  10.641 -0.3607  0.0588  2.2961
  164SOPE    C218380   0.709   5.647  10.476  0.4667 -0.0796 -0.2093
  164SOPE    HS18381   0.618   5.595  10.439  0.2154  0.6588 -0.6293
  164SOPE   O2118382   0.828   5.560  10.471  0.6333  0.1842 -0.0337
  164SOPE   C2118383   0.825   5.470  10.377  1.2106 -0.0177 -0.9395
  164SOPE   O2218384   0.729   5.448  10.300 -0.0991 -0.1566 -0.0498
  164SOPE   C2218385   0.969   5.426  10.360  0.1409  0.2874 -0.1560
  164SOPE   H2R18386   0.975   5.316  10.380  0.9517  0.3456 -0.0358
  164SOPE   H2S18387   1.041   5.476  10.429  0.0975  1.1513 -0.7353
  164SOPE    C318388   0.720   5.776  10.405  0.0231 -0.6436 -0.2920
  164SOPE    HX18389   0.808   5.824  10.452 -0.0553 -0.6970 -0.0864
  164SOPE    HY18390   0.626   5.833  10.418  0.2050 -0.3364 -0.3363
  164SOPE   O3118391   0.751   5.752  10.270 -0.6507  0.0500  0.2858
  164SOPE   C3118392   0.643   5.734  10.191  0.4417  0.0150 -0.0253
  164SOPE   O3218393   0.526   5.741  10.224 -0.2251  0.1135  0.2152
  164SOPE   C3218394   0.688   5.736  10.044  0.0243  0.0352 -0.0594
  164SOPE   H2X18395   0.736   5.638  10.024  0.2980 -0.4841  2.9672
  164SOPE   H2Y18396   0.759   5.820  10.026 -0.1494  0.7850  2.5316
  164SOPE   C2318397   1.025   5.439  10.208  0.4711  0.3463  0.1378
  164SOPE   H3R18398   0.948   5.388  10.148  0.1762 -0.8551  1.5172
  164SOPE   H3S18399   1.120   5.384  10.194  0.3362  0.6659 -2.1966
  164SOPE   C2418400   1.044   5.589  10.169  0.5778 -0.1955  0.6436
  164SOPE   H4R18401   0.943   5.636  10.172  0.4777 -0.4277  0.9496
  164SOPE   H4S18402   1.122   5.624  10.240  1.1788 -0.0268 -0.0928
  164SOPE   C2518403   1.109   5.603  10.028  0.2211 -0.0691  0.6289
  164SOPE   H5R18404   1.124   5.712  10.012 -1.5447  0.0789 -0.1432
  164SOPE   H5S18405   1.204   5.547  10.016  0.9585  1.1876  0.5333
  164SOPE   C2618406   1.018   5.545   9.915  0.1861  0.1368  0.0795
  164SOPE   H6R18407   0.970   5.449   9.944 -0.1887  0.9229  2.1955
  164SOPE   H6S18408   0.934   5.618   9.920  0.0050 -0.1386  1.2435
  164SOPE   C2718409   1.097   5.524   9.783  1.1544 -0.2926 -0.4746
  164SOPE   H7R18410   1.189   5.470   9.814  1.7433 -0.0975 -1.8202
  164SOPE   H7S18411   1.034   5.460   9.718 -0.1396  0.8253 -0.3477
  164SOPE   C2818412   1.149   5.658   9.721  0.9534 -0.0059  0.1475
  164SOPE   H8R18413   1.222   5.719   9.778  0.4798  0.5318  0.1755
  164SOPE   H8S18414   1.195   5.621   9.627  0.7178  3.4408 -1.3722
  164SOPE   C2918415   1.032   5.740   9.682  1.4138 -0.0864  0.0862
  164SOPE   H9118416   1.001   5.816   9.754  1.0869  1.3180 -1.5142
  164SOPE  C21018417   0.974   5.747   9.563 -0.4189  1.1330  0.5587
  164SOPE  H10118418   0.882   5.807   9.556 -0.7260  0.5640 -0.5018
  164SOPE  C21118419   0.998   5.660   9.441  0.2117 -0.1281  0.1349
  164SOPE  H11R18420   0.916   5.585   9.435 -1.2125  1.3404  0.5543
  164SOPE  H11S18421   1.098   5.614   9.434  0.8015  1.2905 -1.2629
  164SOPE  C21218422   0.991   5.748   9.310  0.5321 -0.2399 -0.4928
  164SOPE  H12R18423   1.075   5.820   9.318 -0.5567  1.0064 -0.1396
  164SOPE  H12S18424   0.895   5.804   9.317  1.3515  1.2331 -0.8667
  164SOPE  C21318425   0.992   5.669   9.184  0.1968  0.2981  0.2014
  164SOPE  H13R18426   0.917   5.589   9.168 -1.9245  1.7345  2.4346
  164SOPE  H13S18427   1.087   5.612   9.185 -0.0383 -0.1058  2.4342
  164SOPE  C21418428   0.975   5.761   9.066 -0.0532 -0.6435  0.4304
  164SOPE  H14R18429   1.051   5.842   9.062 -0.5702 -0.0103  2.8728
  164SOPE  H14S18430   0.875   5.808   9.077 -0.6934 -1.5340 -1.3578
  164SOPE  C21518431   0.972   5.691   8.931  0.0733  0.2726 -0.5200
  164SOPE  H15R18432   0.997   5.583   8.938 -1.6257 -0.0697  0.6235
  164SOPE  H15S18433   1.049   5.733   8.863  1.9587  1.0770  2.0618
  164SOPE  C21618434   0.833   5.697   8.878  0.6182  0.5195 -0.0185
  164SOPE  H16R18435   0.797   5.801   8.896 -1.1946 -0.3546  1.6545
  164SOPE  H16S18436   0.771   5.617   8.924 -1.0025  0.8485 -1.5614
  164SOPE  C21718437   0.827   5.678   8.726 -0.4964  0.2257 -0.3952
  164SOPE  H17R18438   0.730   5.633   8.697 -0.0769  0.7265 -2.6762
  164SOPE  H17S18439   0.902   5.598   8.705 -1.6072 -1.1960  0.9498
  164SOPE  C21818440   0.854   5.789   8.631  0.0381  0.0618  0.1632
  164SOPE  H18R18441   0.873   5.881   8.691  3.1954  1.0070 -2.1497
  164SOPE  H18S18442   0.766   5.813   8.567  0.1541 -3.3568 -1.3677
  164SOPE  H18T18443   0.946   5.765   8.574 -0.6066  2.1288 -1.8115
  164SOPE   C3318444   0.576   5.764   9.942  0.3680  0.9481 -0.0251
  164SOPE   H3X18445   0.525   5.859   9.969 -1.0402 -0.2823  1.8286
  164SOPE   H3Y18446   0.506   5.678   9.936  0.3570  0.8014  1.7780
  164SOPE   C3418447   0.637   5.778   9.802  0.5600 -0.0091 -0.0082
  164SOPE   H4X18448   0.719   5.705   9.788 -0.7500 -1.8606  1.7891
  164SOPE   H4Y18449   0.687   5.877   9.792  0.3295 -0.0242 -1.4450
  164SOPE   C3518450   0.532   5.766   9.695 -0.2911 -0.7821 -0.1523
  164SOPE   H5X18451   0.453   5.844   9.695  0.8147  0.3571 -0.7897
  164SOPE   H5Y18452   0.467   5.676   9.702  0.2146 -1.0590  1.2383
  164SOPE   C3618453   0.601   5.772   9.556  0.2136 -0.1268 -0.1144
  164SOPE   H6X18454   0.687   5.702   9.553 -1.0601 -1.7734  0.5628
  164SOPE   H6Y18455   0.648   5.872   9.554  0.6894 -0.3429  0.1589
  164SOPE   C3718456   0.515   5.756   9.426  0.6122 -0.1087  0.5615
  164SOPE   H7X18457   0.444   5.841   9.439  0.1813 -0.2793 -0.6284
  164SOPE   H7Y18458   0.448   5.668   9.428 -1.7501  1.5623 -1.3128
  164SOPE   C3818459   0.588   5.757   9.289  0.0685  0.2506 -0.4802
  164SOPE   H8X18460   0.668   5.682   9.308  1.1763  1.4343 -0.4444
  164SOPE   H8Y18461   0.646   5.851   9.274  1.6704 -0.2374  2.2485
  164SOPE   C3918462   0.508   5.716   9.163  0.0769 -0.3764  0.3253
  164SOPE   H9X18463   0.455   5.624   9.197  1.1857 -2.2659 -2.8162
  164SOPE   H9Y18464   0.583   5.696   9.084 -0.4325 -3.1987  0.4956
  164SOPE  C31018465   0.413   5.824   9.108 -1.1110 -0.2563 -0.2856
  164SOPE  H10X18466   0.467   5.920   9.089 -1.4515 -0.0054 -0.0014
  164SOPE  H10Y18467   0.345   5.841   9.194 -0.9322 -0.1541 -0.1625
  164SOPE  C31118468   0.324   5.790   8.986  0.7303 -0.6320  0.2495
  164SOPE  H11X18469   0.242   5.865   8.979  0.9152 -0.3822  0.7336
  164SOPE  H11Y18470   0.271   5.694   9.004 -2.1283  0.2656 -2.8258
  164SOPE  C31218471   0.406   5.769   8.863  0.3046 -0.3843 -0.2546
  164SOPE  H12X18472   0.476   5.683   8.871  1.0651  0.1214 -1.4360
  164SOPE  H12Y18473   0.468   5.861   8.855 -1.2055  0.7786  1.0815
  164SOPE  C31318474   0.320   5.762   8.739  0.3525 -0.7142  0.6450
  164SOPE  H13X18475   0.265   5.858   8.727  1.2987  0.0984  2.5025
  164SOPE  H13Y18476   0.247   5.678   8.748 -2.7816  1.7912 -0.2495
  164SOPE  C31418477   0.402   5.761   8.612 -0.4251 -0.3364  0.1283
  164SOPE  H14X18478   0.468   5.674   8.588 -1.3757 -0.7305 -1.0720
  164SOPE  H14Y18479   0.470   5.849   8.614 -0.4371 -0.3368  1.1161
  164SOPE  C31518480   0.308   5.767   8.490  0.2970 -0.6545 -0.3837
  164SOPE  H15X18481   0.263   5.869   8.492 -0.8223 -1.1657  0.8654
  164SOPE  H15Y18482   0.232   5.686   8.491  1.2766 -1.5821  0.1353
  164SOPE  C31618483   0.386   5.758   8.358  0.0016  0.3820  0.6357
  164SOPE  H16X18484   0.447   5.665   8.362 -1.2862 -0.4672  0.9309
  164SOPE  H16Y18485   0.462   5.836   8.337 -1.5359  1.8307  0.3749
  164SOPE  C31718486   0.290   5.758   8.237  0.0232  0.1034 -0.1234
  164SOPE  H17X18487   0.231   5.847   8.267  1.3241  0.6747  0.8173
  164SOPE  H17Y18488   0.220   5.674   8.255 -0.1093  0.5246  1.3823
  164SOPE  C31818489   0.347   5.754   8.101  0.5587  0.0417  0.7583
  164SOPE  H18X18490   0.439   5.815   8.101  0.1314  0.6919  1.0979
  164SOPE  H18Y18491   0.280   5.797   8.023  0.5788 -3.3390 -1.2080
  164SOPE  H18Z18492   0.379   5.654   8.065 -0.8918 -0.0581 -0.3241
  165SOPE     N18493   6.073   6.257  10.882  0.8920 -0.0677  1.0240
  165SOPE   HN118494   6.113   6.345  10.843  0.4288 -0.5977 -0.6842
  165SOPE   HN218495   6.003   6.281  10.955 -1.3372 -1.8229 -0.4582
  165SOPE   HN318496   6.142   6.191  10.922  2.0124  0.9456  0.7986
  165SOPE   C1218497   5.999   6.181  10.778  0.0745 -0.4117  0.5669
  165SOPE  H12A18498   5.976   6.086  10.830  1.7636 -1.0585  0.1950
  165SOPE  H12B18499   6.068   6.152  10.695  0.1795 -1.3838  0.9874
  165SOPE   C1118500   5.867   6.241  10.733  0.0540  0.1895  0.0849
  165SOPE  H11A18501   5.813   6.155  10.688  0.3407 -0.4189  0.8879
  165SOPE  H11B18502   5.878   6.329  10.666  0.9964  1.3634  1.7390
  165SOPE     P18503   5.643   6.272  10.855 -0.5567  0.1370 -0.0703
  165SOPE   O1318504   5.601   6.344  10.979  0.0322  0.3236  0.3423
  165SOPE   O1418505   5.611   6.131  10.831 -0.0768 -0.4851  0.9595
  165SOPE   O1218506   5.795   6.290  10.846  0.1574  0.4408  1.0430
  165SOPE   O1118507   5.577   6.351  10.740 -0.7261  0.1278 -0.0157
  165SOPE    C118508   5.606   6.482  10.693  0.5010  0.0802 -0.3489
  165SOPE    HA18509   5.708   6.492  10.650  0.5419  1.7016  0.0774
  165SOPE    HB18510   5.597   6.549  10.781  2.7233  0.9125 -0.7229
  165SOPE    C218511   5.492   6.538  10.604  0.0496  0.0817  0.0385
  165SOPE    HS18512   5.405   6.499  10.659  1.2315  0.3728  2.1567
  165SOPE   O2118513   5.518   6.484  10.472 -0.3339 -0.2884  0.0903
  165SOPE   C2118514   5.408   6.479  10.400  0.1619  0.1751 -0.8877
  165SOPE   O2218515   5.296   6.524  10.438  1.0681  0.2572  0.5261
  165SOPE   C2218516   5.445   6.431  10.255  0.7386  0.3217 -0.4386
  165SOPE   H2R18517   5.490   6.330  10.268  0.0971  0.1696  0.6734
  165SOPE   H2S18518   5.517   6.493  10.199  1.2177  0.2498  0.0952
  165SOPE    C318519   5.474   6.692  10.596  0.5671  0.4007  0.5207
  165SOPE    HX18520   5.436   6.727  10.694 -0.7749  1.0837 -0.2261
  165SOPE    HY18521   5.397   6.721  10.521  1.0273 -2.5805 -1.2246
  165SOPE   O3118522   5.600   6.756  10.567  0.0885 -0.0436  0.2426
  165SOPE   C3118523   5.627   6.772  10.440 -0.3199 -0.1848 -0.6279
  165SOPE   O3218524   5.550   6.759  10.347 -0.1304 -0.2362 -0.7639
  165SOPE   C3218525   5.765   6.822  10.421 -0.9626 -0.6242 -0.9245
  165SOPE   H2X18526   5.828   6.743  10.468 -0.6871 -0.7736 -1.5422
  165SOPE   H2Y18527   5.769   6.918  10.476 -1.3048 -1.4848  0.6596
  165SOPE   C2318528   5.305   6.425  10.180 -0.0421  0.6178  0.6133
  165SOPE   H3R18529   5.254   6.524  10.185 -0.2420  1.0049 -5.3550
  165SOPE   H3S18530   5.238   6.348  10.224  0.1173  0.6909  0.9847
  165SOPE   C2418531   5.342   6.398  10.042  0.1041  0.7705 -0.1264
  165SOPE   H4R18532   5.436   6.447  10.009 -0.0707  1.3343  0.1952
  165SOPE   H4S18533   5.351   6.288  10.052 -0.1007  0.7635 -0.0031
  165SOPE   C2518534   5.229   6.431   9.944 -0.2701 -0.2410 -0.2940
  165SOPE   H5R18535   5.134   6.411   9.997 -0.8123  2.2358 -0.3004
  165SOPE   H5S18536   5.235   6.539   9.918  0.6976 -0.7359 -2.2928
  165SOPE   C2618537   5.224   6.359   9.806  0.4177  0.3038 -0.1511
  165SOPE   H6R18538   5.146   6.411   9.747 -0.7224  0.0904  1.1282
  165SOPE   H6S18539   5.319   6.377   9.753 -0.2085 -0.6659 -1.6407
  165SOPE   C2718540   5.181   6.212   9.812 -0.1762 -0.3017 -1.1921
  165SOPE   H7R18541   5.258   6.156   9.869  0.9172 -2.5802 -4.6936
  165SOPE   H7S18542   5.097   6.213   9.884  1.1988 -0.8101  0.4600
  165SOPE   C2818543   5.151   6.145   9.673 -0.1372  0.4911  0.0291
  165SOPE   H8R18544   5.105   6.051   9.709 -1.1688  0.8796 -0.2595
  165SOPE   H8S18545   5.075   6.202   9.615 -0.7815 -2.6311 -2.3548
  165SOPE   C2918546   5.269   6.116   9.580  0.2526  0.1918 -0.2696
  165SOPE   H9118547   5.337   6.038   9.615 -0.2621  0.4369  1.3268
  165SOPE  C21018548   5.298   6.168   9.461 -0.0619 -0.0986 -0.6578
  165SOPE  H10118549   5.389   6.131   9.411  0.8729  0.9173  0.2734
  165SOPE  C21118550   5.219   6.278   9.396  0.1024 -0.4485  0.0639
  165SOPE  H11R18551   5.127   6.309   9.450  0.3231  0.6866 -0.1866
  165SOPE  H11S18552   5.188   6.244   9.295  0.1203  2.5321 -1.0163
  165SOPE  C21218553   5.302   6.405   9.369  0.9751 -0.3438  0.3649
  165SOPE  H12R18554   5.358   6.425   9.462  0.3395 -1.6192  1.0316
  165SOPE  H12S18555   5.231   6.490   9.357  0.8705 -0.8588 -3.2349
  165SOPE  C21318556   5.394   6.390   9.247 -0.5939 -0.8085  0.5074
  165SOPE  H13R18557   5.469   6.311   9.270 -1.9341 -1.7226  1.8268
  165SOPE  H13S18558   5.447   6.487   9.243  2.5177 -2.5153 -1.3586
  165SOPE  C21418559   5.332   6.362   9.109 -1.2273 -0.2857 -0.1363
  165SOPE  H14R18560   5.268   6.450   9.092  0.8193  1.4555  0.9450
  165SOPE  H14S18561   5.272   6.269   9.119  0.1185 -1.0961  0.6448
  165SOPE  C21518562   5.434   6.355   8.995  0.1874  0.3485  0.0140
  165SOPE  H15R18563   5.385   6.289   8.921  1.2599 -0.7861  0.3064
  165SOPE  H15S18564   5.534   6.318   9.027 -0.3325 -0.4864  0.6726
  165SOPE  C21618565   5.449   6.494   8.923 -0.9543  0.5252 -0.2656
  165SOPE  H16R18566   5.536   6.488   8.853  0.6557 -0.3644  1.7465
  165SOPE  H16S18567   5.483   6.569   8.997 -2.9667 -0.5274  1.7886
  165SOPE  C21718568   5.336   6.552   8.846  0.2720  0.1941 -0.5465
  165SOPE  H17R18569   5.247   6.574   8.910  0.3170 -1.8870  0.2845
  165SOPE  H17S18570   5.293   6.481   8.772 -0.9942  0.2935  0.0804
  165SOPE  C21818571   5.385   6.670   8.764 -0.1305  0.4824  0.5712
  165SOPE  H18R18572   5.455   6.640   8.683 -0.8738 -2.4398  0.9244
  165SOPE  H18S18573   5.424   6.751   8.829  0.2085 -0.8500  2.0703
  165SOPE  H18T18574   5.298   6.715   8.712 -1.3466 -1.8388  0.5270
  165SOPE   C3318575   5.817   6.833  10.272  0.2628  0.4398 -0.4017
  165SOPE   H3X18576   5.900   6.907  10.273  0.9063 -0.2844  0.6264
  165SOPE   H3Y18577   5.744   6.890  10.210  0.7350  0.1448 -1.2281
  165SOPE   C3418578   5.874   6.700  10.217 -0.0676 -0.5173  0.9198
  165SOPE   H4X18579   5.780   6.639  10.216  0.3786 -1.2105  1.0136
  165SOPE   H4Y18580   5.952   6.661  10.285  1.0136 -1.2681 -0.7288
  165SOPE   C3518581   5.932   6.708  10.077 -0.7179  0.9347 -0.3232
  165SOPE   H5X18582   5.951   6.605  10.040 -3.5122 -0.5361  2.0666
  165SOPE   H5Y18583   6.032   6.757  10.076  0.2585 -0.9913 -0.2801
  165SOPE   C3618584   5.847   6.763   9.968  0.2683 -0.5385 -0.3748
  165SOPE   H6X18585   5.842   6.873   9.982  0.5484 -0.7470  1.4869
  165SOPE   H6Y18586   5.742   6.732   9.984 -0.4193  2.0483  0.3347
  165SOPE   C3718587   5.915   6.728   9.834 -0.3236  0.1652  0.5813
  165SOPE   H7X18588   5.940   6.621   9.820 -0.5251  0.3089 -0.8848
  165SOPE   H7Y18589   6.009   6.781   9.810 -1.7060  2.5828  0.3027
  165SOPE   C3818590   5.831   6.765   9.710 -0.4431  0.1766 -1.1345
  165SOPE   H8X18591   5.797   6.871   9.711  0.0556  0.3496 -2.1007
  165SOPE   H8Y18592   5.739   6.704   9.718  1.7946 -2.8511  3.4747
  165SOPE   C3918593   5.900   6.729   9.582  0.1593 -0.2688 -0.5622
  165SOPE   H9X18594   5.925   6.622   9.598 -0.6247 -0.2200  1.0169
  165SOPE   H9Y18595   5.991   6.792   9.566  0.4141 -0.2802  0.7581
  165SOPE  C31018596   5.808   6.747   9.455 -0.0830 -0.4440 -0.0354
  165SOPE  H10X18597   5.774   6.853   9.453  0.2684 -0.3109  0.7414
  165SOPE  H10Y18598   5.723   6.677   9.456  0.9917 -1.7623  1.0794
  165SOPE  C31118599   5.893   6.740   9.324  0.4995 -0.3748 -0.4103
  165SOPE  H11X18600   5.935   6.637   9.323  2.5587  0.4368 -0.3389
  165SOPE  H11Y18601   5.969   6.820   9.317 -0.6012  1.0870  3.3876
  165SOPE  C31218602   5.803   6.746   9.195  0.3349  0.5822  0.6321
  165SOPE  H12X18603   5.766   6.849   9.183  0.3735  0.9010  2.9187
  165SOPE  H12Y18604   5.725   6.667   9.210 -0.2957  0.6234 -2.2854
  165SOPE  C31318605   5.882   6.712   9.064 -0.0390  0.5114  0.3071
  165SOPE  H13X18606   5.933   6.614   9.071 -0.6829  0.1072 -0.6075
  165SOPE  H13Y18607   5.955   6.795   9.056 -2.8111  2.8532 -2.1213
  165SOPE  C31418608   5.789   6.704   8.935  0.6505 -0.9539 -0.1121
  165SOPE  H14X18609   5.700   6.762   8.968  0.0599 -1.6620 -0.4433
  165SOPE  H14Y18610   5.747   6.608   8.899  2.6446 -1.0718 -2.2636
  165SOPE  C31518611   5.851   6.776   8.815 -0.3143 -0.4296  0.1916
  165SOPE  H15X18612   5.948   6.723   8.802  0.3017  0.5925  0.6270
  165SOPE  H15Y18613   5.880   6.881   8.836  3.2365 -1.4910  0.9266
  165SOPE  C31618614   5.765   6.766   8.693  0.0737 -0.4062 -0.1214
  165SOPE  H16X18615   5.679   6.832   8.716  0.2483 -0.6605  1.3256
  165SOPE  H16Y18616   5.732   6.660   8.680  0.0768 -0.3503 -0.5687
  165SOPE  C31718617   5.847   6.809   8.571 -0.2116  0.2832  0.9178
  165SOPE  H17X18618   5.938   6.746   8.571  0.6324  1.4994 -0.5141
  165SOPE  H17Y18619   5.875   6.916   8.577  1.2322  0.0542 -1.1905
  165SOPE  C31818620   5.760   6.799   8.441  0.0814  0.0286  0.0917
  165SOPE  H18X18621   5.723   6.698   8.415  1.0295 -0.4145  0.4277
  165SOPE  H18Y18622   5.816   6.839   8.354  0.5515 -1.4061 -0.2703
  165SOPE  H18Z18623   5.675   6.870   8.450 -0.0629  0.0934 -1.7759
  166SOPE     N18624   2.344   6.216  11.190  0.1789 -0.6905 -0.4991
  166SOPE   HN118625   2.272   6.152  11.150 -1.4880  0.2593  0.9084
  166SOPE   HN218626   2.367   6.188  11.287  1.4654  0.6456 -0.4016
  166SOPE   HN318627   2.286   6.302  11.191  2.0765  0.6144  0.3314
  166SOPE   C1218628   2.473   6.238  11.106  0.6064  0.1327  1.0332
  166SOPE  H12A18629   2.529   6.142  11.104 -2.0436 -1.5390 -5.1098
  166SOPE  H12B18630   2.535   6.317  11.154  3.4050 -2.5922  2.0867
  166SOPE   C1118631   2.420   6.261  10.958  0.3323  0.1562 -0.1330
  166SOPE  H11A18632   2.378   6.160  10.935 -0.6817  0.6127 -0.2848
  166SOPE  H11B18633   2.508   6.284  10.894  1.2054  3.7416  2.2505
  166SOPE     P18634   2.197   6.358  10.847  0.0550  0.2360 -0.2311
  166SOPE   O1318635   2.158   6.502  10.826  0.2211  0.2941  0.0672
  166SOPE   O1418636   2.091   6.260  10.873  0.3482 -0.4137  0.1196
  166SOPE   O1218637   2.317   6.359  10.957  0.1387 -0.4692 -0.3218
  166SOPE   O1118638   2.286   6.304  10.724  0.3528 -0.3039  0.2113
  166SOPE    C118639   2.387   6.383  10.669  0.1405  0.0457 -0.0364
  166SOPE    HA18640   2.484   6.328  10.667  0.4988  0.5375  2.3532
  166SOPE    HB18641   2.404   6.481  10.719  0.1058  0.0331 -0.0009
  166SOPE    C218642   2.361   6.402  10.514 -0.6057  0.4542  0.8596
  166SOPE    HS18643   2.462   6.412  10.468 -2.0677  2.3560 -2.1011
  166SOPE   O2118644   2.283   6.520  10.488  0.2845 -0.3144 -0.5047
  166SOPE   C2118645   2.354   6.632  10.478  0.1406  0.6684 -0.0771
  166SOPE   O2218646   2.474   6.643  10.480 -0.3152 -0.0587 -0.2223
  166SOPE   C2218647   2.257   6.741  10.453 -1.4296  0.2516  0.5587
  166SOPE   H2R18648   2.299   6.840  10.482  0.4817 -0.5114  0.4206
  166SOPE   H2S18649   2.181   6.734  10.535 -2.3098  1.0948 -0.1747
  166SOPE    C318650   2.289   6.280  10.456 -0.1935  0.1291  0.0006
  166SOPE    HX18651   2.187   6.288  10.499 -0.9011  0.7237 -1.7332
  166SOPE    HY18652   2.345   6.194  10.499  0.0971  0.8259  1.0308
  166SOPE   O3118653   2.299   6.291  10.313  0.2340  0.1788  0.3974
  166SOPE   C3118654   2.297   6.169  10.251 -0.5401 -0.4208 -0.1426
  166SOPE   O3218655   2.281   6.060  10.300 -0.0598 -1.0244  0.1774
  166SOPE   C3218656   2.313   6.211  10.100  0.1336  0.1474  0.8136
  166SOPE   H2X18657   2.397   6.284  10.101 -1.1749  1.6994 -0.5627
  166SOPE   H2Y18658   2.223   6.270  10.072  0.1786 -0.8496 -1.4663
  166SOPE   C2318659   2.202   6.741  10.311  0.3953  0.3385 -0.4080
  166SOPE   H3R18660   2.143   6.834  10.300  0.1162  0.0277 -1.6284
  166SOPE   H3S18661   2.125   6.660  10.308 -0.4322  1.1702 -2.6719
  166SOPE   C2418662   2.313   6.738  10.208 -0.1019  0.6250  0.6434
  166SOPE   H4R18663   2.381   6.824  10.219  1.8140 -1.3554  5.6494
  166SOPE   H4S18664   2.381   6.650  10.208  0.3336  0.9113 -1.9499
  166SOPE   C2518665   2.246   6.745  10.069 -0.2393 -0.2841  0.5034
  166SOPE   H5R18666   2.173   6.663  10.053 -0.7439 -0.1938  2.1720
  166SOPE   H5S18667   2.184   6.837  10.059 -0.4682 -0.5883 -0.9189
  166SOPE   C2618668   2.339   6.740   9.948 -0.0883  0.7959  0.3260
  166SOPE   H6R18669   2.409   6.827   9.955  1.1320 -0.2566  1.4617
  166SOPE   H6S18670   2.407   6.653   9.954 -0.1260  0.7926  0.7258
  166SOPE   C2718671   2.265   6.745   9.809  0.1391  0.4605 -0.2626
  166SOPE   H7R18672   2.217   6.649   9.781  1.8070  0.1870 -2.2674
  166SOPE   H7S18673   2.169   6.800   9.823  0.5350  2.0981 -3.6798
  166SOPE   C2818674   2.335   6.821   9.689 -0.3329  0.3590 -0.1757
  166SOPE   H8R18675   2.374   6.916   9.731  1.1598  0.5674 -1.9863
  166SOPE   H8S18676   2.403   6.739   9.658 -0.7891  0.7253 -2.1591
  166SOPE   C2918677   2.238   6.856   9.576 -0.5899 -0.3086 -0.0585
  166SOPE   H9118678   2.148   6.913   9.604 -0.8303 -0.7079 -0.0159
  166SOPE  C21018679   2.254   6.807   9.447 -0.6191 -0.8239  0.4121
  166SOPE  H10118680   2.173   6.826   9.375 -0.1879  0.2849  0.2103
  166SOPE  C21118681   2.367   6.724   9.397 -0.7543 -0.5899 -0.0967
  166SOPE  H11R18682   2.399   6.653   9.476  1.1853 -0.1023 -0.4232
  166SOPE  H11S18683   2.448   6.800   9.388 -0.5512 -0.8634 -0.6112
  166SOPE  C21218684   2.345   6.671   9.257  0.4391  0.6403  0.1874
  166SOPE  H12R18685   2.250   6.614   9.266  0.0209  0.9131 -2.1541
  166SOPE  H12S18686   2.429   6.602   9.233 -1.8213 -2.6872  1.4664
  166SOPE  C21318687   2.320   6.759   9.136  0.1200  0.0892 -0.2468
  166SOPE  H13R18688   2.279   6.856   9.172  0.6691  0.0668  0.4573
  166SOPE  H13S18689   2.260   6.703   9.061  1.6260 -0.5909 -0.9722
  166SOPE  C21418690   2.461   6.790   9.070  0.5305  0.0617 -0.2077
  166SOPE  H14R18691   2.491   6.699   9.013 -0.7338 -0.5393  0.0630
  166SOPE  H14S18692   2.541   6.806   9.146  2.2411  0.0766 -1.9647
  166SOPE  C21518693   2.446   6.915   8.978  0.0948  0.1459  0.2020
  166SOPE  H15R18694   2.538   6.904   8.916 -1.4187  2.5069 -2.5484
  166SOPE  H15S18695   2.451   7.004   9.045  1.5597  1.6828 -1.8511
  166SOPE  C21618696   2.327   6.924   8.889  0.2236 -0.0577 -0.1539
  166SOPE  H16R18697   2.232   6.914   8.945  0.3437 -3.4714 -0.4103
  166SOPE  H16S18698   2.322   6.839   8.818  2.5739  1.4745 -2.2264
  166SOPE  C21718699   2.318   7.050   8.808  0.4420 -0.4383  0.8839
  166SOPE  H17R18700   2.360   7.137   8.862 -0.6210  1.0866 -0.6914
  166SOPE  H17S18701   2.212   7.062   8.780  1.2618  2.1318 -1.3701
  166SOPE  C21818702   2.385   7.039   8.672 -0.3233  0.1883 -0.3424
  166SOPE  H18R18703   2.350   7.131   8.619  0.7859  0.6659 -0.2651
  166SOPE  H18S18704   2.347   6.949   8.620  0.1748 -0.1027 -0.1959
  166SOPE  H18T18705   2.493   7.034   8.695 -0.1966 -0.4654 -1.0474
  166SOPE   C3318706   2.328   6.090  10.006  0.2848  0.5160 -0.5814
  166SOPE   H3X18707   2.232   6.035  10.000  0.9856 -0.6563 -1.2203
  166SOPE   H3Y18708   2.398   6.009  10.034 -2.6276 -1.2281  1.8540
  166SOPE   C3418709   2.358   6.132   9.863 -0.1205  0.2044  0.0503
  166SOPE   H4X18710   2.372   6.046   9.794  3.5778  0.4145  0.4734
  166SOPE   H4Y18711   2.456   6.184   9.854  0.1195 -0.3928 -0.9050
  166SOPE   C3518712   2.255   6.233   9.813 -0.0330 -0.5470  0.4374
  166SOPE   H5X18713   2.238   6.328   9.868 -2.2547  0.8892 -2.5396
  166SOPE   H5Y18714   2.151   6.194   9.810 -1.0921  2.2053 -1.1044
  166SOPE   C3618715   2.279   6.276   9.669 -0.4284  0.7380  0.4721
  166SOPE   H6X18716   2.384   6.309   9.656 -0.5538  0.3849 -1.5565
  166SOPE   H6Y18717   2.198   6.344   9.634 -1.6444 -0.5406  0.7356
  166SOPE   C3718718   2.261   6.159   9.566 -0.1090 -0.4908 -0.5619
  166SOPE   H7X18719   2.155   6.128   9.576 -0.1565 -0.5204 -1.1227
  166SOPE   H7Y18720   2.315   6.065   9.592 -0.3914 -0.8208 -1.1570
  166SOPE   C3818721   2.288   6.194   9.423  0.6976 -0.5880 -0.3785
  166SOPE   H8X18722   2.395   6.223   9.412  1.3836 -2.5879  0.8971
  166SOPE   H8Y18723   2.240   6.294   9.413 -1.5123 -1.5258  0.6368
  166SOPE   C3918724   2.254   6.086   9.321  0.0140 -0.2901  0.4519
  166SOPE   H9X18725   2.256   6.130   9.219  0.1451  1.1595  1.0726
  166SOPE   H9Y18726   2.150   6.067   9.355 -0.4491  1.0979 -0.1311
  166SOPE  C31018727   2.331   5.956   9.321  0.0834 -0.2221 -0.6188
  166SOPE  H10X18728   2.323   5.900   9.417 -1.4205 -1.2930 -1.3495
  166SOPE  H10Y18729   2.439   5.982   9.316 -0.2433  1.6279  1.1516
  166SOPE  C31118730   2.309   5.857   9.206  0.5814 -0.1141 -0.0591
  166SOPE  H11X18731   2.212   5.804   9.216  0.0314  0.6457 -1.1619
  166SOPE  H11Y18732   2.386   5.778   9.213  1.4322  0.6320 -0.7509
  166SOPE  C31218733   2.329   5.928   9.074 -0.0192  0.4993 -0.9201
  166SOPE  H12X18734   2.434   5.964   9.069  0.2974 -0.2699 -0.0757
  166SOPE  H12Y18735   2.251   6.006   9.062  1.0016  2.0594  2.1378
  166SOPE  C31318736   2.304   5.824   8.965 -0.6294 -0.3738  0.5601
  166SOPE  H13X18737   2.204   5.774   8.970  0.1484 -2.4747 -2.7416
  166SOPE  H13Y18738   2.386   5.749   8.974 -0.1983  0.1054  0.6103
  166SOPE  C31418739   2.312   5.883   8.822  0.3928  0.4447  0.7479
  166SOPE  H14X18740   2.354   5.805   8.756 -1.5485 -0.2884  0.3389
  166SOPE  H14Y18741   2.399   5.951   8.821  0.9503 -0.2669  0.4560
  166SOPE  C31518742   2.168   5.916   8.760  0.0867 -1.0591 -0.1423
  166SOPE  H15X18743   2.124   6.010   8.799  0.9146  0.1233 -2.0070
  166SOPE  H15Y18744   2.100   5.830   8.779 -0.7543 -0.7047 -1.5411
  166SOPE  C31618745   2.197   5.951   8.610 -0.0508 -0.1180 -0.7380
  166SOPE  H16X18746   2.237   5.857   8.567  1.2312 -0.3032  0.8513
  166SOPE  H16Y18747   2.288   6.015   8.606  0.6999 -1.2551 -2.0401
  166SOPE  C31718748   2.077   6.000   8.521  0.7544 -0.1372 -0.4457
  166SOPE  H17X18749   2.024   6.082   8.575  0.8399 -0.1393 -0.3578
  166SOPE  H17Y18750   1.999   5.922   8.522  1.2217 -0.6038  1.0636
  166SOPE  C31818751   2.125   6.034   8.381 -0.2469  0.8935  0.1560
  166SOPE  H18X18752   2.154   5.944   8.323  1.6431  1.8995 -0.4795
  166SOPE  H18Y18753   2.209   6.105   8.397  1.0103 -0.4270 -0.4280
  166SOPE  H18Z18754   2.045   6.072   8.315 -0.2332 -1.3193 -1.1660
  167SOPE     N18755   2.840   4.921   5.934 -0.0362  0.1989 -0.4566
  167SOPE   HN118756   2.856   4.819   5.944 -0.6166 -0.0409 -1.8453
  167SOPE   HN218757   2.780   4.953   6.013 -2.6572 -2.2627 -1.3729
  167SOPE   HN318758   2.804   4.957   5.843 -1.1645  2.6365  0.8955
  167SOPE   C1218759   2.980   4.985   5.953  0.5053  0.3265  0.3340
  167SOPE  H12A18760   2.978   5.096   5.963 -0.3620  0.3351  0.0724
  167SOPE  H12B18761   3.038   4.971   5.860 -0.2830  2.3172 -0.4750
  167SOPE   C1118762   3.041   4.923   6.081 -0.0956 -0.4378 -0.6427
  167SOPE  H11A18763   2.983   4.943   6.173 -1.0014  0.8519 -1.4804
  167SOPE  H11B18764   3.129   4.990   6.093 -1.5393  1.0449  2.0132
  167SOPE     P18765   2.979   4.676   6.111 -0.0027  0.6925 -0.5007
  167SOPE   O1318766   3.056   4.549   6.109 -0.0558 -0.0778 -0.2664
  167SOPE   O1418767   2.854   4.680   6.036 -0.0761  0.0872 -0.2645
  167SOPE   O1218768   3.070   4.786   6.049 -0.0745 -0.1636  0.5805
  167SOPE   O1118769   2.960   4.727   6.255  0.3516 -0.5863  0.8229
  167SOPE    C118770   3.027   4.795   6.359  0.3717 -0.6046 -0.0027
  167SOPE    HA18771   2.964   4.871   6.409  0.5245  0.2965 -1.1679
  167SOPE    HB18772   3.119   4.847   6.325  0.5502 -2.4864 -2.5752
  167SOPE    C218773   3.077   4.694   6.468 -0.2239 -1.0538 -0.6990
  167SOPE    HS18774   3.150   4.624   6.422  0.5145 -2.6544  2.7588
  167SOPE   O2118775   2.964   4.624   6.519  0.7847 -0.0574 -0.4777
  167SOPE   C2118776   2.977   4.493   6.524 -0.0148 -0.3830  0.4351
  167SOPE   O2218777   3.080   4.430   6.498 -0.2652  0.1059  0.0422
  167SOPE   C2218778   2.844   4.424   6.546 -0.4638 -0.2857 -0.2434
  167SOPE   H2R18779   2.849   4.316   6.519  3.0825 -0.6645  1.6604
  167SOPE   H2S18780   2.764   4.474   6.488 -0.1343 -0.8396 -1.1877
  167SOPE    C318781   3.147   4.755   6.589 -0.1925  0.6785 -0.6660
  167SOPE    HX18782   3.075   4.824   6.638  1.7219  1.1477  1.5909
  167SOPE    HY18783   3.234   4.811   6.548  0.9835  0.3752  1.3571
  167SOPE   O3118784   3.181   4.658   6.690  0.9195 -0.2419  0.1877
  167SOPE   C3118785   3.293   4.592   6.662 -0.2861 -0.1675 -0.6438
  167SOPE   O3218786   3.358   4.610   6.563  0.0750 -0.2502  0.0750
  167SOPE   C3218787   3.342   4.515   6.786  0.9161 -0.6738 -0.0780
  167SOPE   H2X18788   3.314   4.409   6.769 -0.0008 -0.3601 -0.5926
  167SOPE   H2Y18789   3.280   4.546   6.873 -1.3658 -1.4815 -1.3532
  167SOPE   C2318790   2.806   4.428   6.696  0.1211  0.4311  0.2148
  167SOPE   H3R18791   2.700   4.398   6.712  0.8057 -1.6243  1.1518
  167SOPE   H3S18792   2.822   4.531   6.735 -1.2477  1.3561 -1.6025
  167SOPE   C2418793   2.892   4.329   6.781  0.6790  0.7866 -0.3656
  167SOPE   H4R18794   2.860   4.230   6.740 -2.6617  2.5575 -2.3062
  167SOPE   H4S18795   3.001   4.342   6.767  0.8899  0.4563  0.9467
  167SOPE   C2518796   2.870   4.341   6.934  0.6477 -0.2313  0.2370
  167SOPE   H5R18797   2.890   4.449   6.950 -0.6829  0.0716 -0.0972
  167SOPE   H5S18798   2.764   4.314   6.953  1.7152 -4.4840  0.5408
  167SOPE   C2618799   2.961   4.251   7.020 -1.2272  0.2075  0.3846
  167SOPE   H6R18800   2.959   4.141   6.999 -1.2238 -0.0504  1.6811
  167SOPE   H6S18801   3.063   4.282   6.990 -1.2966  0.8629  0.8334
  167SOPE   C2718802   2.928   4.269   7.169 -0.0790 -0.0789 -0.2848
  167SOPE   H7R18803   2.888   4.372   7.165 -0.5132 -0.0860  3.0165
  167SOPE   H7S18804   2.849   4.204   7.212 -0.0270  0.4900  0.6706
  167SOPE   C2818805   3.038   4.270   7.274  0.0886 -0.6235 -0.5331
  167SOPE   H8R18806   3.081   4.168   7.276 -0.3929 -0.8253 -0.5962
  167SOPE   H8S18807   3.121   4.327   7.227  2.3896 -1.9813  1.7528
  167SOPE   C2918808   3.002   4.326   7.409  0.1396 -0.2287 -0.2419
  167SOPE   H9118809   2.908   4.383   7.403 -0.4754 -1.1499  0.5110
  167SOPE  C21018810   3.062   4.307   7.527  0.6163  0.3070 -0.3192
  167SOPE  H10118811   3.003   4.346   7.611 -0.8452  1.3209 -1.7840
  167SOPE  C21118812   3.181   4.225   7.566 -0.3398 -0.0857 -0.1035
  167SOPE  H11R18813   3.272   4.287   7.580  0.2123 -1.2139  1.5230
  167SOPE  H11S18814   3.211   4.144   7.497  2.5414  0.1359  0.8009
  167SOPE  C21218815   3.153   4.177   7.713  0.4839  0.2644 -0.1298
  167SOPE  H12R18816   3.219   4.091   7.737 -1.4652 -0.9457  0.9693
  167SOPE  H12S18817   3.050   4.137   7.721  0.3818  0.0264 -2.1872
  167SOPE  C21318818   3.185   4.291   7.814  0.9851 -0.4902  0.3785
  167SOPE  H13R18819   3.120   4.372   7.775  1.6973 -0.3522 -0.5381
  167SOPE  H13S18820   3.283   4.341   7.801  1.7660 -2.0342  0.2596
  167SOPE  C21418821   3.163   4.248   7.958  0.2711  0.3042  0.3006
  167SOPE  H14R18822   3.236   4.173   7.994 -0.9686 -1.9987 -1.8309
  167SOPE  H14S18823   3.060   4.208   7.970  0.6321  0.1335  3.1671
  167SOPE  C21518824   3.170   4.367   8.060 -0.3985 -0.0393 -0.4462
  167SOPE  H15R18825   3.099   4.450   8.042 -0.8909 -0.3623 -0.0333
  167SOPE  H15S18826   3.274   4.405   8.057  0.5116 -2.4245 -0.3980
  167SOPE  C21618827   3.132   4.316   8.203  0.0235 -1.2310 -0.4325
  167SOPE  H16R18828   3.216   4.268   8.257  0.2230  2.4929  2.7985
  167SOPE  H16S18829   3.052   4.241   8.183 -0.4776 -0.4910 -1.2229
  167SOPE  C21718830   3.077   4.441   8.284 -0.1321  0.1209 -0.6684
  167SOPE  H17R18831   3.121   4.537   8.250  1.7594 -1.0601 -1.6503
  167SOPE  H17S18832   3.109   4.419   8.388  1.1213 -1.0620 -1.2814
  167SOPE  C21818833   2.929   4.437   8.269 -0.2555 -0.5680 -0.6355
  167SOPE  H18R18834   2.893   4.438   8.164 -2.5087 -2.7040  0.0774
  167SOPE  H18S18835   2.888   4.528   8.317  1.2230 -0.7399  1.0321
  167SOPE  H18T18836   2.905   4.346   8.327 -1.2179 -0.6642 -1.1839
  167SOPE   C3318837   3.493   4.529   6.823 -0.4330 -0.6698 -0.2385
  167SOPE   H3X18838   3.560   4.532   6.734 -1.5774  0.8905 -1.0722
  167SOPE   H3Y18839   3.525   4.438   6.878 -1.5547 -0.0764  1.4266
  167SOPE   C3418840   3.529   4.652   6.904 -0.4954  0.8844  0.2307
  167SOPE   H4X18841   3.494   4.746   6.856  2.4555  1.0963 -1.6055
  167SOPE   H4Y18842   3.638   4.658   6.923 -0.4364  0.3646  0.0453
  167SOPE   C3518843   3.455   4.652   7.041  0.1146 -0.2300 -0.3484
  167SOPE   H5X18844   3.406   4.553   7.053 -0.7139  0.1705 -0.4099
  167SOPE   H5Y18845   3.371   4.723   7.030 -0.8890 -1.1078  1.4187
  167SOPE   C3618846   3.550   4.699   7.152 -0.3595  0.4351 -0.1104
  167SOPE   H6X18847   3.587   4.804   7.159  0.1690  0.2182  0.3832
  167SOPE   H6Y18848   3.645   4.642   7.145  0.3632  1.7844 -1.7354
  167SOPE   C3718849   3.495   4.653   7.285 -0.7836 -0.0149 -0.0980
  167SOPE   H7X18850   3.455   4.550   7.274 -0.6754 -0.3652  2.5219
  167SOPE   H7Y18851   3.400   4.705   7.308  0.0332  1.6650 -0.4389
  167SOPE   C3818852   3.604   4.648   7.384 -0.5395 -0.9418 -1.0846
  167SOPE   H8X18853   3.661   4.743   7.383 -0.7495 -0.7977  0.1493
  167SOPE   H8Y18854   3.672   4.566   7.352 -1.5930 -1.7503 -1.2621
  167SOPE   C3918855   3.567   4.605   7.524  0.3587  0.2892 -1.0677
  167SOPE   H9X18856   3.522   4.503   7.523 -1.2424  0.8905  2.5880
  167SOPE   H9Y18857   3.491   4.674   7.565  0.4946  1.0454 -2.0667
  167SOPE  C31018858   3.680   4.613   7.634 -0.5322  0.0162 -0.3672
  167SOPE  H10X18859   3.737   4.708   7.625  1.8980 -1.2990  0.7797
  167SOPE  H10Y18860   3.758   4.538   7.611 -0.8767 -0.1807 -0.9113
  167SOPE  C31118861   3.617   4.610   7.773 -0.4670 -0.2975  0.8376
  167SOPE  H11X18862   3.534   4.536   7.774  0.9644 -1.9099  1.1515
  167SOPE  H11Y18863   3.563   4.707   7.785  0.4358  0.1871  0.9899
  167SOPE  C31218864   3.716   4.583   7.880 -0.1113  0.6940  0.4462
  167SOPE  H12X18865   3.778   4.673   7.899  0.3877  0.5487 -0.4421
  167SOPE  H12Y18866   3.787   4.502   7.855  0.1949  0.7527  1.1187
  167SOPE  C31318867   3.655   4.519   8.006  0.2803 -0.7318  0.3527
  167SOPE  H13X18868   3.603   4.429   7.966 -2.1282  0.7657 -0.0207
  167SOPE  H13Y18869   3.572   4.588   8.035 -0.5402 -2.2035  1.5948
  167SOPE  C31418870   3.753   4.507   8.126 -0.3453  0.3712  0.3663
  167SOPE  H14X18871   3.746   4.600   8.186 -0.6375  1.4860 -1.3586
  167SOPE  H14Y18872   3.860   4.506   8.094  0.0828  2.8895  1.6415
  167SOPE  C31518873   3.725   4.376   8.206  0.2993  0.8101 -0.8096
  167SOPE  H15X18874   3.773   4.292   8.152  1.1489 -1.2207  2.9551
  167SOPE  H15Y18875   3.614   4.366   8.210  0.3589  0.9809  1.3459
  167SOPE  C31618876   3.766   4.367   8.354 -0.0443 -0.4920  0.1881
  167SOPE  H16X18877   3.730   4.459   8.405  1.7445 -0.2966  1.1047
  167SOPE  H16Y18878   3.877   4.364   8.355 -0.0084  0.9285  1.1379
  167SOPE  C31718879   3.702   4.259   8.440 -0.4853 -0.1049  0.1206
  167SOPE  H17X18880   3.739   4.286   8.541 -1.3054  0.8695  0.1653
  167SOPE  H17Y18881   3.726   4.153   8.414  1.2597  0.9207 -2.6787
  167SOPE  C31818882   3.552   4.255   8.466  0.1998  0.4731 -0.4819
  167SOPE  H18X18883   3.500   4.220   8.375  0.0291 -1.1867  0.2340
  167SOPE  H18Y18884   3.520   4.354   8.505 -0.5252  0.1931 -0.3639
  167SOPE  H18Z18885   3.518   4.192   8.551  0.0639 -0.8804 -1.5248
  168SOPE     N18886   3.570   0.787   6.141 -0.7401 -0.4062 -0.1098
  168SOPE   HN118887   3.559   0.687   6.116  0.8581 -0.8297  0.7968
  168SOPE   HN218888   3.490   0.840   6.100  1.6132  4.3252  1.0714
  168SOPE   HN318889   3.652   0.827   6.092  0.1069 -0.4783  1.2164
  168SOPE   C1218890   3.587   0.798   6.287  0.5819  0.0182 -1.0170
  168SOPE  H12A18891   3.696   0.798   6.304  0.1950 -1.8359  1.6730
  168SOPE  H12B18892   3.548   0.711   6.343 -2.9116  1.9927 -0.1850
  168SOPE   C1118893   3.515   0.929   6.340 -0.1483 -0.3329 -0.1722
  168SOPE  H11A18894   3.544   0.945   6.447  2.0206  1.6891 -1.0008
  168SOPE  H11B18895   3.406   0.910   6.340 -0.1136 -0.6159  1.4055
  168SOPE     P18896   3.691   1.127   6.289 -0.0732  0.5935  0.2539
  168SOPE   O1318897   3.713   1.215   6.171  0.3641  0.8561 -0.8723
  168SOPE   O1418898   3.806   1.036   6.313 -0.3879 -0.5746 -0.0860
  168SOPE   O1218899   3.561   1.042   6.257  0.0532  0.7909 -0.3055
  168SOPE   O1118900   3.656   1.210   6.417  0.3147  0.2571  0.5083
  168SOPE    C118901   3.536   1.294   6.422  0.0294  0.5437 -0.3643
  168SOPE    HA18902   3.452   1.235   6.465  0.5895  0.4775  0.6433
  168SOPE    HB18903   3.504   1.324   6.320 -0.8064 -0.6552 -0.4684
  168SOPE    C218904   3.561   1.414   6.519  0.3648  0.3837 -0.0562
  168SOPE    HS18905   3.645   1.477   6.482  0.5442 -0.2609 -0.7491
  168SOPE   O2118906   3.600   1.365   6.645 -0.2796  0.5097 -0.1629
  168SOPE   C2118907   3.657   1.452   6.728 -0.2550  0.8628 -0.3497
  168SOPE   O2218908   3.725   1.549   6.696 -0.4451 -0.3793  0.0427
  168SOPE   C2218909   3.646   1.399   6.862  0.3000  0.1171  0.4905
  168SOPE   H2R18910   3.746   1.358   6.886  1.4069  2.6261  0.3128
  168SOPE   H2S18911   3.570   1.318   6.869 -0.9739  1.4008  2.0423
  168SOPE    C318912   3.433   1.502   6.540  0.1096 -0.0066 -0.1508
  168SOPE    HX18913   3.361   1.449   6.605 -1.7574 -2.0507 -3.7697
  168SOPE    HY18914   3.379   1.505   6.443  0.9915  0.3465 -0.6434
  168SOPE   O3118915   3.456   1.636   6.591  0.0180 -0.5051 -0.2993
  168SOPE   C3118916   3.472   1.730   6.501 -0.0977 -0.1127  0.3341
  168SOPE   O3218917   3.481   1.712   6.381  0.1994 -0.0362 -0.6763
  168SOPE   C3218918   3.496   1.864   6.583  0.3078 -0.3543 -0.6570
  168SOPE   H2X18919   3.418   1.936   6.549 -2.2213 -1.6051  2.3309
  168SOPE   H2Y18920   3.593   1.898   6.542 -1.2481 -0.0439 -4.2777
  168SOPE   C2318921   3.613   1.502   6.966  0.0592  0.4330  1.4073
  168SOPE   H3R18922   3.517   1.551   6.941 -0.3918 -0.9457  0.3997
  168SOPE   H3S18923   3.690   1.583   6.964 -1.5941  2.1433  3.6668
  168SOPE   C2418924   3.617   1.430   7.103  0.0667 -0.9422 -0.3557
  168SOPE   H4R18925   3.545   1.345   7.106 -0.2991 -0.6114  0.9904
  168SOPE   H4S18926   3.717   1.390   7.128 -1.3312 -3.0186  2.2411
  168SOPE   C2518927   3.580   1.526   7.224  0.1675  0.1915 -0.5038
  168SOPE   H5R18928   3.662   1.595   7.255 -1.1931  1.3977  0.4966
  168SOPE   H5S18929   3.494   1.585   7.185  1.6773  1.6291 -1.7530
  168SOPE   C2618930   3.514   1.453   7.348  0.5109 -0.3446 -0.2325
  168SOPE   H6R18931   3.439   1.375   7.321 -1.4251  1.5680 -0.5041
  168SOPE   H6S18932   3.595   1.395   7.397  0.9686 -0.5897 -1.2494
  168SOPE   C2718933   3.445   1.558   7.434 -0.3160  0.0159  0.0131
  168SOPE   H7R18934   3.509   1.642   7.468 -0.1810  1.0520 -2.6380
  168SOPE   H7S18935   3.366   1.599   7.368 -1.2977 -0.1352  1.0948
  168SOPE   C2818936   3.378   1.493   7.562 -0.5814 -0.3125 -0.4012
  168SOPE   H8R18937   3.302   1.418   7.531  0.6748 -1.9360  0.3750
  168SOPE   H8S18938   3.460   1.427   7.598 -1.0475 -1.4498 -1.3954
  168SOPE   C2918939   3.340   1.607   7.655  0.1657 -0.2192 -0.1841
  168SOPE   H9118940   3.271   1.680   7.611 -0.5231  0.6099  2.1704
  168SOPE  C21018941   3.354   1.618   7.788 -0.6292  0.2084 -0.3827
  168SOPE  H10118942   3.321   1.711   7.837 -1.2894  0.8271 -1.9756
  168SOPE  C21118943   3.422   1.520   7.879 -0.4267 -0.2470 -0.0430
  168SOPE  H11R18944   3.445   1.574   7.974 -0.3430  1.0017 -0.7657
  168SOPE  H11S18945   3.519   1.481   7.844  0.1527  0.4964  0.7052
  168SOPE  C21218946   3.335   1.396   7.924 -0.2148  0.3003 -0.0311
  168SOPE  H12R18947   3.407   1.341   7.988  0.7475  0.9721 -0.5126
  168SOPE  H12S18948   3.326   1.333   7.833  2.1905  0.7358 -0.6148
  168SOPE  C21318949   3.204   1.424   7.994  0.1060  0.0087  0.9280
  168SOPE  H13R18950   3.171   1.333   8.050 -1.2503  0.3239  0.6645
  168SOPE  H13S18951   3.129   1.449   7.916  1.4910  1.5256  0.0749
  168SOPE  C21418952   3.200   1.529   8.108 -0.3806  0.5672 -0.3141
  168SOPE  H14R18953   3.095   1.543   8.142  0.1756  1.6056  1.0701
  168SOPE  H14S18954   3.239   1.626   8.071 -0.3065  0.4283 -0.5994
  168SOPE  C21518955   3.284   1.490   8.230  0.0935  0.5509  0.6444
  168SOPE  H15R18956   3.387   1.482   8.191 -1.8017  1.3127 -4.9598
  168SOPE  H15S18957   3.269   1.389   8.274  0.2187 -0.7549 -2.2374
  168SOPE  C21618958   3.276   1.575   8.360 -0.1513 -0.2603 -0.8886
  168SOPE  H16R18959   3.289   1.683   8.342 -0.5954  0.4124  2.5453
  168SOPE  H16S18960   3.356   1.536   8.427  0.3713  1.4304 -0.5146
  168SOPE  C21718961   3.141   1.571   8.431  0.2236 -0.6023 -0.3392
  168SOPE  H17R18962   3.099   1.470   8.448 -1.1241  0.3875  2.4936
  168SOPE  H17S18963   3.064   1.634   8.382  1.3497  0.5189 -0.6934
  168SOPE  C21818964   3.145   1.632   8.572 -0.2879 -0.6905 -1.2164
  168SOPE  H18R18965   3.050   1.606   8.622 -0.5996  2.7302  0.1161
  168SOPE  H18S18966   3.148   1.744   8.573 -0.2045 -0.6871  0.6116
  168SOPE  H18T18967   3.225   1.602   8.643  1.1252  0.8727 -2.0953
  168SOPE   C3318968   3.485   1.864   6.741 -0.0715 -0.1050  0.4505
  168SOPE   H3X18969   3.534   1.959   6.773  0.8935 -1.4652  3.2460
  168SOPE   H3Y18970   3.547   1.783   6.785  1.6181  0.9070 -0.0114
  168SOPE   C3418971   3.338   1.856   6.776 -0.2718 -0.0867 -0.0759
  168SOPE   H4X18972   3.292   1.755   6.781  1.5997 -0.9401  0.2965
  168SOPE   H4Y18973   3.290   1.907   6.689 -1.4838  0.5156  0.9200
  168SOPE   C3518974   3.294   1.944   6.898  0.4398 -0.2740  0.0967
  168SOPE   H5X18975   3.184   1.931   6.909  0.0974  0.2818 -2.3357
  168SOPE   H5Y18976   3.305   2.053   6.883  0.5106 -0.2097  0.6220
  168SOPE   C3618977   3.363   1.893   7.027  0.2434  0.0333  0.3041
  168SOPE   H6X18978   3.472   1.882   7.013 -0.0558 -1.2676 -1.1781
  168SOPE   H6Y18979   3.328   1.791   7.052 -0.9163  0.2578 -0.3501
  168SOPE   C3718980   3.342   1.988   7.152 -0.4819 -0.4198  0.4775
  168SOPE   H7X18981   3.231   1.990   7.160 -0.5522 -2.0451  0.0726
  168SOPE   H7Y18982   3.374   2.088   7.116  2.0101 -0.7104  1.8181
  168SOPE   C3818983   3.403   1.952   7.282 -0.0937  0.1962  0.3064
  168SOPE   H8X18984   3.513   1.950   7.266 -0.4231  1.0576 -2.3595
  168SOPE   H8Y18985   3.363   1.854   7.317  0.6855 -0.4658 -0.6351
  168SOPE   C3918986   3.363   2.057   7.388  0.0490  0.0104  0.4465
  168SOPE   H9X18987   3.255   2.078   7.395  0.1416  0.9158 -0.6922
  168SOPE   H9Y18988   3.414   2.152   7.362  0.6334  0.2938  2.5114
  168SOPE  C31018989   3.423   2.018   7.528  0.1055  0.5166  0.4577
  168SOPE  H10X18990   3.533   2.002   7.520  0.1785  2.1143 -1.9324
  168SOPE  H10Y18991   3.379   1.919   7.553  1.1529 -0.5791 -1.8971
  168SOPE  C31118992   3.401   2.116   7.644  0.2087  0.0251  0.1188
  168SOPE  H11X18993   3.291   2.123   7.652  0.4659  2.5555  2.3903
  168SOPE  H11Y18994   3.436   2.216   7.610 -2.6394  0.7287 -0.8144
  168SOPE  C31218995   3.462   2.077   7.780 -0.0991 -0.8729  0.1029
  168SOPE  H12X18996   3.494   2.168   7.834 -1.8497  0.8480 -1.7195
  168SOPE  H12Y18997   3.560   2.027   7.764 -0.5146 -1.6541 -0.0610
  168SOPE  C31318998   3.370   2.013   7.885  0.3484 -0.1512 -0.1541
  168SOPE  H13X18999   3.363   1.904   7.866 -0.1874 -0.1377 -0.0314
  168SOPE  H13Y19000   3.269   2.059   7.874  0.0472 -0.4951  1.0251
  168SOPE  C31419001   3.420   2.028   8.029  0.4551 -0.3063 -0.1070
  168SOPE  H14X19002   3.437   2.135   8.054  1.5286  0.2522 -3.0210
  168SOPE  H14Y19003   3.508   1.965   8.054  1.0856  0.5997 -0.0350
  168SOPE  C31519004   3.322   1.977   8.125 -0.2134  0.5012 -0.6295
  168SOPE  H15X19005   3.311   1.867   8.117 -1.8119  0.7052 -1.4051
  168SOPE  H15Y19006   3.222   2.021   8.104 -0.6845 -0.9223 -1.4129
  168SOPE  C31619007   3.351   2.021   8.276 -0.0821  0.2481  0.5594
  168SOPE  H16X19008   3.374   2.130   8.285  0.3019  0.1338  0.9896
  168SOPE  H16Y19009   3.439   1.962   8.309  0.9993  1.2854 -0.4273
  168SOPE  C31719010   3.235   1.992   8.370  0.1370  1.2173  0.1084
  168SOPE  H17X19011   3.195   1.892   8.346 -1.1625  1.2535  2.0811
  168SOPE  H17Y19012   3.150   2.062   8.353  0.2327  1.1144 -0.8135
  168SOPE  C31819013   3.282   1.994   8.518  0.7458  0.7204 -0.8651
  168SOPE  H18X19014   3.197   1.968   8.585  0.0773 -0.2010 -2.0459
  168SOPE  H18Y19015   3.316   2.097   8.541  0.6340 -0.0399  2.9292
  168SOPE  H18Z19016   3.371   1.931   8.541 -0.7837 -1.4809 -0.7845
  169SOPE     N19017   5.259   4.297   6.311 -0.4659 -0.0840  0.6253
  169SOPE   HN119018   5.188   4.257   6.246  2.7860 -0.5590 -2.8352
  169SOPE   HN219019   5.248   4.399   6.295  1.6707  0.1538  0.4944
  169SOPE   HN319020   5.343   4.263   6.259 -0.3760 -0.6541  1.1321
  169SOPE   C1219021   5.233   4.253   6.450  0.1269  0.5994 -0.0747
  169SOPE  H12A19022   5.140   4.299   6.491  0.2203 -1.1679  2.2783
  169SOPE  H12B19023   5.317   4.272   6.521  0.9317 -0.6876 -0.6683
  169SOPE   C1119024   5.214   4.105   6.447  0.7485 -0.0335 -0.4188
  169SOPE  H11A19025   5.156   4.073   6.357 -3.2361 -0.3908  2.1491
  169SOPE  H11B19026   5.149   4.095   6.536  1.1884 -0.8364 -0.1840
  169SOPE     P19027   5.336   3.901   6.532  0.2884 -0.1943  0.0302
  169SOPE   O1319028   5.477   3.847   6.535 -0.4186 -0.6056 -1.1271
  169SOPE   O1419029   5.229   3.823   6.466  0.5502 -0.1027 -0.1109
  169SOPE   O1219030   5.338   4.038   6.462  0.8112  0.2239  0.6187
  169SOPE   O1119031   5.289   3.928   6.681  0.4979  0.5074  0.1391
  169SOPE    C119032   5.353   4.035   6.751  0.2739  0.0778 -0.1755
  169SOPE    HA19033   5.267   4.101   6.776 -0.1541 -0.6956  0.4595
  169SOPE    HB19034   5.438   4.087   6.703 -0.8440  1.4173 -0.7529
  169SOPE    C219035   5.419   3.986   6.879 -0.1645  0.0267 -0.3301
  169SOPE    HS19036   5.520   3.956   6.843  0.4052  1.3539  0.1332
  169SOPE   O2119037   5.347   3.877   6.938 -0.0926 -0.1577  0.4504
  169SOPE   C2119038   5.425   3.782   7.003 -0.3477 -0.1194  0.0105
  169SOPE   O2219039   5.550   3.791   7.006  0.0651  0.5919 -0.3109
  169SOPE   C2219040   5.338   3.684   7.078  0.1679 -0.4697  0.6424
  169SOPE   H2R19041   5.248   3.657   7.020 -0.2212  0.5108  0.7761
  169SOPE   H2S19042   5.309   3.747   7.166  0.5185  0.1843  0.2986
  169SOPE    C319043   5.426   4.100   6.986  1.0659 -0.2954 -0.0573
  169SOPE    HX19044   5.319   4.117   7.011  2.0828  1.7189  3.3380
  169SOPE    HY19045   5.472   4.190   6.941  1.3384 -1.3297 -1.8737
  169SOPE   O3119046   5.513   4.069   7.097 -0.0231  0.0133  0.0643
  169SOPE   C3119047   5.453   4.040   7.208  0.9713 -0.1846  0.2197
  169SOPE   O3219048   5.336   4.052   7.236  0.3775 -0.7935 -0.3667
  169SOPE   C3219049   5.555   3.983   7.309  1.0880 -0.4996 -0.0761
  169SOPE   H2X19050   5.609   4.071   7.352  1.2297 -0.1899 -0.8785
  169SOPE   H2Y19051   5.627   3.917   7.255  1.6023  0.3382 -0.4408
  169SOPE   C2319052   5.406   3.553   7.122 -0.0362  0.0092  0.5733
  169SOPE   H3R19053   5.502   3.571   7.176  1.5408  0.7216 -2.3582
  169SOPE   H3S19054   5.432   3.490   7.034 -2.2955  1.1634 -0.9702
  169SOPE   C2419055   5.310   3.474   7.214  0.0130 -0.5325  0.0257
  169SOPE   H4R19056   5.283   3.536   7.302  0.7121 -1.0931  0.6505
  169SOPE   H4S19057   5.213   3.457   7.162 -0.1023 -2.8425  0.9319
  169SOPE   C2519058   5.365   3.335   7.257  0.0961  0.8549  0.1953
  169SOPE   H5R19059   5.384   3.276   7.165 -1.5415 -0.3617  0.6110
  169SOPE   H5S19060   5.454   3.341   7.324  1.0008 -0.1565 -0.8975
  169SOPE   C2619061   5.259   3.253   7.335 -0.1949 -0.2767  0.3534
  169SOPE   H6R19062   5.167   3.240   7.274  0.3769 -0.2023 -0.5356
  169SOPE   H6S19063   5.298   3.151   7.356 -0.8715 -0.2451  1.8248
  169SOPE   C2719064   5.224   3.314   7.465  0.2663 -0.1507  0.0532
  169SOPE   H7R19065   5.189   3.420   7.457  0.3418 -0.0366  1.2011
  169SOPE   H7S19066   5.139   3.254   7.503 -0.5183  0.9264  0.0498
  169SOPE   C2819067   5.328   3.319   7.576  0.3169  0.3946 -0.7952
  169SOPE   H8R19068   5.348   3.211   7.589 -1.7284 -0.0014 -0.7972
  169SOPE   H8S19069   5.425   3.358   7.540  0.2593  0.3340 -1.0158
  169SOPE   C2919070   5.274   3.379   7.704 -0.1677 -0.0041  0.0775
  169SOPE   H9119071   5.166   3.377   7.722  0.0177  0.1685  1.2702
  169SOPE  C21019072   5.349   3.430   7.804 -0.2799 -0.7012  0.0644
  169SOPE  H10119073   5.297   3.488   7.881 -3.8163 -2.5590 -0.8176
  169SOPE  C21119074   5.496   3.439   7.813 -0.9818  0.4115  0.5051
  169SOPE  H11R19075   5.525   3.516   7.886 -0.4382  0.6150  0.0766
  169SOPE  H11S19076   5.543   3.471   7.717 -0.4504 -0.9553  0.2971
  169SOPE  C21219077   5.559   3.301   7.855  0.4268 -0.0643 -0.1832
  169SOPE  H12R19078   5.656   3.334   7.898 -0.2582 -0.8543  2.0628
  169SOPE  H12S19079   5.575   3.234   7.768  0.6465  0.8300 -0.8350
  169SOPE  C21319080   5.490   3.219   7.961  0.4518  0.1734  0.2137
  169SOPE  H13R19081   5.387   3.183   7.940  0.6940  0.2703 -1.1970
  169SOPE  H13S19082   5.479   3.281   8.053 -0.0740 -0.0126  0.2817
  169SOPE  C21419083   5.573   3.101   8.006 -0.2797 -0.3637 -0.6015
  169SOPE  H14R19084   5.669   3.138   8.048 -0.5100  0.9348 -1.2103
  169SOPE  H14S19085   5.587   3.030   7.921 -0.3411 -1.1302  0.0301
  169SOPE  C21519086   5.498   3.022   8.117  0.1188 -0.5981 -0.4206
  169SOPE  H15R19087   5.387   3.029   8.105  0.1421 -0.3202 -0.4986
  169SOPE  H15S19088   5.529   3.073   8.210 -0.1752 -0.2328 -0.5179
  169SOPE  C21619089   5.549   2.880   8.120  0.1462 -0.2351  0.5022
  169SOPE  H16R19090   5.658   2.866   8.137  0.1449  0.0714  0.7569
  169SOPE  H16S19091   5.538   2.830   8.021  0.5527 -0.3669  0.5229
  169SOPE  C21719092   5.468   2.804   8.230 -0.5997 -0.2421 -0.2900
  169SOPE  H17R19093   5.497   2.697   8.221  1.7716  0.2895  0.6761
  169SOPE  H17S19094   5.360   2.819   8.207 -0.2456  1.9577 -0.5823
  169SOPE  C21819095   5.473   2.862   8.372  0.0051 -0.2767 -0.3082
  169SOPE  H18R19096   5.578   2.865   8.407 -1.1401  0.5241  3.3604
  169SOPE  H18S19097   5.419   2.789   8.437  1.8492 -0.7972  0.6684
  169SOPE  H18T19098   5.419   2.959   8.377 -0.7220 -0.7106  0.4868
  169SOPE   C3319099   5.480   3.908   7.416 -0.6216  0.1043 -0.0883
  169SOPE   H3X19100   5.401   3.839   7.380 -1.5341 -0.4450  2.7631
  169SOPE   H3Y19101   5.402   3.968   7.468 -2.6513 -2.1922 -0.4008
  169SOPE   C3419102   5.568   3.846   7.523 -0.1532 -0.4138  0.2967
  169SOPE   H4X19103   5.631   3.926   7.570 -1.9197  1.7481 -0.9313
  169SOPE   H4Y19104   5.637   3.777   7.469 -1.0233 -0.1210 -1.2127
  169SOPE   C3519105   5.486   3.784   7.634 -0.4871 -0.1841 -0.3489
  169SOPE   H5X19106   5.563   3.732   7.696  0.7345  0.8080 -1.0319
  169SOPE   H5Y19107   5.413   3.706   7.602  0.4562 -0.3678 -2.1242
  169SOPE   C3619108   5.405   3.881   7.728 -0.3151 -0.6241  0.9940
  169SOPE   H6X19109   5.345   3.819   7.798 -0.2645 -0.3026  1.3312
  169SOPE   H6Y19110   5.327   3.933   7.669  0.6290  0.5687  0.7616
  169SOPE   C3719111   5.498   3.973   7.801 -0.2133  0.2035 -0.4890
  169SOPE   H7X19112   5.439   4.033   7.873 -1.8980 -2.8752  0.7850
  169SOPE   H7Y19113   5.547   4.039   7.727 -0.5798  1.2846  0.2236
  169SOPE   C3819114   5.611   3.916   7.881  0.3912 -0.0790 -0.4869
  169SOPE   H8X19115   5.682   3.867   7.812 -0.3794 -0.4047 -1.0621
  169SOPE   H8Y19116   5.669   3.995   7.933  1.7751 -0.7656 -0.9570
  169SOPE   C3919117   5.574   3.815   7.991 -0.0541  0.2903 -0.2571
  169SOPE   H9X19118   5.662   3.813   8.059  0.5703 -0.7968 -1.0915
  169SOPE   H9Y19119   5.566   3.714   7.947 -0.9219  0.1180  0.3035
  169SOPE  C31019120   5.463   3.851   8.081 -0.0185 -0.8131  0.4422
  169SOPE  H10X19121   5.369   3.848   8.022  2.2258 -0.6688 -3.2615
  169SOPE  H10Y19122   5.477   3.946   8.137  3.7403  0.3300 -2.2520
  169SOPE  C31119123   5.443   3.740   8.189 -0.2300 -0.1670  0.3982
  169SOPE  H11X19124   5.537   3.730   8.249 -0.4681  0.5234  0.9051
  169SOPE  H11Y19125   5.429   3.640   8.144  2.9595 -0.6808  0.3998
  169SOPE  C31219126   5.325   3.780   8.266 -0.2292  0.1862 -0.2114
  169SOPE  H12X19127   5.242   3.752   8.198 -0.5540 -1.4239  0.8397
  169SOPE  H12Y19128   5.322   3.885   8.302  0.0741  0.3103 -0.5405
  169SOPE  C31319129   5.316   3.693   8.392  0.4615  0.3994  0.2505
  169SOPE  H13X19130   5.412   3.706   8.447  0.8175  1.8016 -0.6957
  169SOPE  H13Y19131   5.310   3.587   8.359  0.6355  0.3671  0.3230
  169SOPE  C31419132   5.198   3.727   8.476 -0.5666 -0.2984  0.3284
  169SOPE  H14X19133   5.110   3.724   8.408  0.0308 -1.8820 -0.4233
  169SOPE  H14Y19134   5.210   3.832   8.509  1.0391 -0.3367 -0.0798
  169SOPE  C31519135   5.169   3.636   8.602  0.7707  0.0679  0.1984
  169SOPE  H15X19136   5.263   3.643   8.661  0.8596 -0.9119  0.1844
  169SOPE  H15Y19137   5.161   3.530   8.573 -0.2745 -0.7081  3.1398
  169SOPE  C31619138   5.044   3.678   8.692  0.3058  0.2028 -0.3651
  169SOPE  H16X19139   5.028   3.584   8.750 -0.3554  0.4031 -0.2292
  169SOPE  H16Y19140   4.952   3.714   8.643 -0.0902  0.2544  0.4066
  169SOPE  C31719141   5.077   3.781   8.799 -0.0950 -0.1648 -0.3212
  169SOPE  H17X19142   5.139   3.864   8.761 -0.6405 -0.2677 -1.4538
  169SOPE  H17Y19143   5.152   3.730   8.864 -2.7295 -1.9848  1.4114
  169SOPE  C31819144   4.959   3.813   8.884 -0.8402 -0.0581  0.1163
  169SOPE  H18X19145   4.896   3.892   8.837  2.4116  2.6460  0.1398
  169SOPE  H18Y19146   4.993   3.859   8.980  0.2148 -1.4107  0.4058
  169SOPE  H18Z19147   4.907   3.717   8.905 -0.6751  0.0790  1.2129
  170SOPE     N19148   6.125   2.406   6.084  0.0364  1.1498  0.1933
  170SOPE   HN119149   6.151   2.453   5.996 -0.6906  1.0969 -0.0555
  170SOPE   HN219150   6.189   2.442   6.158 -0.0326  0.2187  0.7200
  170SOPE   HN319151   6.131   2.302   6.079  0.1202  1.0792  1.5150
  170SOPE   C1219152   5.987   2.453   6.117  0.2286 -0.1330 -0.6719
  170SOPE  H12A19153   5.959   2.399   6.210  0.4578 -0.6043 -0.8758
  170SOPE  H12B19154   5.922   2.426   6.030 -0.6381  0.2343 -0.1423
  170SOPE   C1119155   5.979   2.597   6.154  0.2907 -0.3390  0.4697
  170SOPE  H11A19156   5.872   2.628   6.150  1.0055  1.9900 -1.3395
  170SOPE  H11B19157   6.031   2.663   6.081  0.7607 -0.3592  0.7829
  170SOPE     P19158   5.949   2.664   6.403  0.0414 -0.1597 -0.0095
  170SOPE   O1319159   5.807   2.642   6.377  0.2858 -0.0957  0.0746
  170SOPE   O1419160   5.994   2.800   6.434 -0.1400  0.2509  0.2111
  170SOPE   O1219161   6.039   2.615   6.284  0.0634  0.0700  0.3527
  170SOPE   O1119162   5.986   2.566   6.511  0.4051  0.4674 -0.2670
  170SOPE    C119163   6.118   2.546   6.565 -0.0813  0.1317 -0.2529
  170SOPE    HA19164   6.187   2.536   6.478  0.8457  2.3420  0.2097
  170SOPE    HB19165   6.114   2.459   6.634 -0.0632  1.7196  1.7637
  170SOPE    C219166   6.170   2.667   6.653  0.8280  0.1810 -0.3252
  170SOPE    HS19167   6.180   2.760   6.592  1.2384  1.1971  1.2634
  170SOPE   O2119168   6.298   2.642   6.724 -0.1959  0.0845 -0.3200
  170SOPE   C2119169   6.405   2.649   6.645  0.2311  0.4942  0.1074
  170SOPE   O2219170   6.399   2.690   6.528  0.0416  0.2521  0.2133
  170SOPE   C2219171   6.529   2.584   6.714 -0.0285 -0.3548 -0.3343
  170SOPE   H2R19172   6.579   2.659   6.779  0.5945 -1.6803  0.7344
  170SOPE   H2S19173   6.605   2.555   6.638  0.3899  0.3487 -0.1914
  170SOPE    C319174   6.064   2.692   6.762  0.7478 -0.0190 -0.6889
  170SOPE    HX19175   6.031   2.597   6.807 -0.7796 -0.0315 -1.7987
  170SOPE    HY19176   5.976   2.747   6.722  0.6995 -0.9547 -1.8720
  170SOPE   O3119177   6.116   2.772   6.879 -1.0500  0.0292  0.3642
  170SOPE   C3119178   6.019   2.789   6.969 -1.1654 -0.3765 -0.5090
  170SOPE   O3219179   5.910   2.738   6.956  0.3903  0.0629 -0.6129
  170SOPE   C3219180   6.078   2.877   7.079  0.3441 -0.0502 -0.0170
  170SOPE   H2X19181   6.188   2.863   7.093 -0.0750 -2.0580  1.5367
  170SOPE   H2Y19182   6.029   2.847   7.174 -2.0707  1.3470 -0.7925
  170SOPE   C2319183   6.486   2.461   6.792  0.3406 -0.1096  0.8883
  170SOPE   H3R19184   6.419   2.404   6.724  0.4758 -0.2662  0.8862
  170SOPE   H3S19185   6.420   2.480   6.880 -0.5200 -0.6776  0.3762
  170SOPE   C2419186   6.603   2.368   6.839 -0.4331  0.1614 -0.4709
  170SOPE   H4R19187   6.649   2.330   6.746 -2.6220 -1.8204 -0.8027
  170SOPE   H4S19188   6.669   2.424   6.908  0.9525 -0.5443 -1.2102
  170SOPE   C2519189   6.542   2.241   6.920 -0.8678 -0.5129  0.6149
  170SOPE   H5R19190   6.471   2.275   6.999 -1.7168 -0.7651 -0.0307
  170SOPE   H5S19191   6.488   2.164   6.860 -0.5762  0.3291 -0.7571
  170SOPE   C2619192   6.659   2.170   6.989  0.1625 -0.0714 -0.4973
  170SOPE   H6R19193   6.732   2.165   6.905  0.0281  2.5574 -0.7952
  170SOPE   H6S19194   6.694   2.233   7.073  0.3521 -1.1589  0.2511
  170SOPE   C2719195   6.619   2.033   7.046  0.4699  0.0850  0.2415
  170SOPE   H7R19196   6.598   1.965   6.961 -2.5820 -0.8361  1.6678
  170SOPE   H7S19197   6.706   1.992   7.102 -1.1434  1.8292  4.2193
  170SOPE   C2819198   6.503   2.036   7.144 -0.1448  0.4048 -0.8104
  170SOPE   H8R19199   6.506   2.128   7.205  0.6142 -0.0717 -0.1248
  170SOPE   H8S19200   6.411   2.052   7.084 -0.4556 -1.3148 -0.8182
  170SOPE   C2919201   6.499   1.914   7.231  0.0851 -0.6440  0.3757
  170SOPE   H9119202   6.549   1.827   7.187  1.5689  1.6856 -2.7647
  170SOPE  C21019203   6.447   1.913   7.351  0.5333  0.7505 -0.0153
  170SOPE  H10119204   6.449   1.823   7.414  0.5715  1.8683  1.6379
  170SOPE  C21119205   6.395   2.039   7.418 -0.1017  0.6074 -0.3075
  170SOPE  H11R19206   6.308   2.070   7.358 -1.5340  0.1585  1.4978
  170SOPE  H11S19207   6.464   2.126   7.418 -0.8707  1.2250 -0.7954
  170SOPE  C21219208   6.340   2.034   7.562  0.3153  0.0345 -0.7496
  170SOPE  H12R19209   6.414   1.998   7.637  0.5361  0.0166 -0.9760
  170SOPE  H12S19210   6.256   1.961   7.573 -0.1624  0.6439 -0.2683
  170SOPE  C21319211   6.287   2.169   7.592  0.8961  0.0665 -0.4837
  170SOPE  H13R19212   6.203   2.190   7.522  1.1803 -0.3600 -0.9500
  170SOPE  H13S19213   6.363   2.242   7.558  1.4223 -0.8397 -1.2597
  170SOPE  C21419214   6.223   2.182   7.735 -0.3895  0.2946  0.1042
  170SOPE  H14R19215   6.299   2.163   7.813  1.4254  0.0774 -1.6709
  170SOPE  H14S19216   6.143   2.104   7.741 -0.8875  0.7483 -0.5589
  170SOPE  C21519217   6.152   2.318   7.759  0.4084  0.3080 -0.0932
  170SOPE  H15R19218   6.097   2.316   7.855 -1.7487  0.6487 -1.2840
  170SOPE  H15S19219   6.071   2.338   7.685  1.1682 -0.6828 -1.2273
  170SOPE  C21619220   6.248   2.436   7.759  0.1321 -0.1493 -0.7061
  170SOPE  H16R19221   6.315   2.452   7.672 -1.2485  1.4904 -1.5052
  170SOPE  H16S19222   6.320   2.420   7.841  0.5080 -1.0965 -1.2070
  170SOPE  C21719223   6.187   2.578   7.771  0.0848 -0.2266 -0.3606
  170SOPE  H17R19224   6.268   2.642   7.813 -1.1333 -0.3551  2.2576
  170SOPE  H17S19225   6.111   2.577   7.851 -0.6289 -1.5164 -1.0460
  170SOPE  C21819226   6.130   2.635   7.643 -0.3249 -0.2657  0.2753
  170SOPE  H18R19227   6.051   2.708   7.672  0.3708 -0.8777  3.8917
  170SOPE  H18S19228   6.090   2.552   7.581 -3.4993  0.8383  0.7520
  170SOPE  H18T19229   6.215   2.685   7.591  0.1483 -0.1924  1.1090
  170SOPE   C3319230   6.047   3.028   7.050 -0.3734 -1.0815  0.6636
  170SOPE   H3X19231   5.941   3.034   7.082 -0.1020 -1.1037  1.5960
  170SOPE   H3Y19232   6.057   3.057   6.943  2.2071 -0.8933  0.9090
  170SOPE   C3419233   6.136   3.124   7.130 -0.0534  0.5394  0.6460
  170SOPE   H4X19234   6.096   3.223   7.102 -0.6071 -0.5725 -2.7863
  170SOPE   H4Y19235   6.244   3.106   7.107 -0.7445 -2.2624 -0.6631
  170SOPE   C3519236   6.135   3.107   7.283  0.1356 -0.1096  1.1556
  170SOPE   H5X19237   6.191   3.014   7.307  0.4186 -0.3362 -0.2990
  170SOPE   H5Y19238   6.034   3.105   7.327  0.3259  0.1618  1.6092
  170SOPE   C3619239   6.214   3.228   7.347 -0.2400  0.3193 -0.5042
  170SOPE   H6X19240   6.144   3.314   7.339 -1.7462 -0.8643 -0.2037
  170SOPE   H6Y19241   6.299   3.257   7.282  0.0313  0.8329  0.0780
  170SOPE   C3719242   6.252   3.204   7.492  0.8101 -0.1505 -0.5502
  170SOPE   H7X19243   6.339   3.135   7.487  1.1913  0.3518 -0.8305
  170SOPE   H7Y19244   6.182   3.142   7.552  1.6875 -2.0954 -1.5016
  170SOPE   C3819245   6.288   3.335   7.574 -0.4012  0.5124 -0.5025
  170SOPE   H8X19246   6.200   3.402   7.585 -0.7269 -0.3826  2.9052
  170SOPE   H8Y19247   6.375   3.373   7.516  0.0094  1.7577  0.9101
  170SOPE   C3919248   6.334   3.302   7.716 -0.3353 -0.6257  0.1896
  170SOPE   H9X19249   6.262   3.231   7.761  0.7585 -1.0739  1.2684
  170SOPE   H9Y19250   6.339   3.389   7.785 -2.0031 -0.0137 -0.4213
  170SOPE  C31019251   6.476   3.238   7.712  0.2171  0.4133 -0.7895
  170SOPE  H10X19252   6.537   3.322   7.751 -1.9644  1.8530 -0.3832
  170SOPE  H10Y19253   6.499   3.206   7.608 -0.9426 -0.5930 -0.7471
  170SOPE  C31119254   6.473   3.108   7.798 -0.1856 -0.5768 -0.1200
  170SOPE  H11X19255   6.571   3.057   7.784  1.1729  1.0739  2.8048
  170SOPE  H11Y19256   6.395   3.040   7.759 -0.7186 -0.9851  1.5934
  170SOPE  C31219257   6.466   3.137   7.950  0.1631 -0.6479 -0.0197
  170SOPE  H12X19258   6.374   3.189   7.984  1.1716  0.3837  1.1705
  170SOPE  H12Y19259   6.545   3.210   7.975 -0.0151 -0.8873  1.2801
  170SOPE  C31319260   6.487   3.009   8.037  0.4367 -0.2174  0.9627
  170SOPE  H13X19261   6.593   2.985   8.016  0.5267  1.2126 -0.3166
  170SOPE  H13Y19262   6.430   2.920   8.004  0.3721 -0.1580  0.9134
  170SOPE  C31419263   6.482   3.032   8.189  0.0810  0.0063 -0.8218
  170SOPE  H14X19264   6.380   3.060   8.225 -0.1759 -0.5404 -1.1154
  170SOPE  H14Y19265   6.550   3.114   8.221  0.5844 -1.7167  2.6877
  170SOPE  C31519266   6.518   2.907   8.268 -0.5169  0.3490 -0.4021
  170SOPE  H15X19267   6.579   2.832   8.214 -0.8859  1.4785 -2.4318
  170SOPE  H15Y19268   6.420   2.856   8.278 -0.0961 -0.6061 -1.0824
  170SOPE  C31619269   6.593   2.930   8.402 -0.2199  0.2594  0.7172
  170SOPE  H16X19270   6.543   3.006   8.466  2.1459  1.9254  0.6534
  170SOPE  H16Y19271   6.688   2.977   8.367 -1.6737 -0.0280 -3.9407
  170SOPE  C31719272   6.619   2.803   8.478 -0.2988  0.5289 -0.6363
  170SOPE  H17X19273   6.669   2.729   8.413  0.6481  0.3529  0.2699
  170SOPE  H17Y19274   6.525   2.758   8.517  0.5945  0.6710  1.8371
  170SOPE  C31819275   6.715   2.817   8.602 -0.0613  0.4744  0.6287
  170SOPE  H18X19276   6.817   2.843   8.567 -1.4349  2.5619 -2.0388
  170SOPE  H18Y19277   6.725   2.719   8.652  0.3608  0.8569  1.3094
  170SOPE  H18Z19278   6.677   2.899   8.668  0.0277  1.6863 -0.8105
  171SOPE     N19279   6.264   5.644   6.511 -0.0112 -0.1607  0.4791
  171SOPE   HN119280   6.216   5.600   6.592 -0.0542  0.2098  0.6539
  171SOPE   HN219281   6.202   5.655   6.428  2.5050  2.4186 -1.1658
  171SOPE   HN319282   6.340   5.578   6.483 -0.6649 -1.1245  0.9507
  171SOPE   C1219283   6.299   5.778   6.564  0.2374  0.5449 -0.0423
  171SOPE  H12A19284   6.384   5.767   6.635  0.0575 -0.6821 -0.0141
  171SOPE  H12B19285   6.205   5.810   6.612 -0.5666  0.5302 -1.5769
  171SOPE   C1119286   6.338   5.884   6.455  0.9594 -0.0646 -0.3137
  171SOPE  H11A19287   6.350   5.971   6.522  2.0852 -1.4404  1.3093
  171SOPE  H11B19288   6.252   5.899   6.386 -0.3897 -0.2283  1.2998
  171SOPE     P19289   6.598   5.869   6.419  0.0150 -0.5327 -0.2523
  171SOPE   O1319290   6.618   6.005   6.367  0.6886 -0.5572  0.0423
  171SOPE   O1419291   6.698   5.769   6.366  0.1911  0.4021 -0.5605
  171SOPE   O1219292   6.451   5.833   6.389  0.3802  0.1888  0.6562
  171SOPE   O1119293   6.610   5.872   6.571  0.5260 -1.2786  0.0513
  171SOPE    C119294   6.710   5.786   6.633 -0.4471  0.0491  0.0266
  171SOPE    HA19295   6.803   5.758   6.579 -0.9407  1.3155 -1.5132
  171SOPE    HB19296   6.657   5.696   6.672  0.0770  0.3147  1.4090
  171SOPE    C219297   6.773   5.850   6.763 -0.7704  0.6384 -0.0299
  171SOPE    HS19298   6.831   5.771   6.816 -1.0377  0.4482 -0.0242
  171SOPE   O2119299   6.670   5.907   6.849  0.0278 -0.1123  0.1643
  171SOPE   C2119300   6.719   5.932   6.977 -0.3251 -1.1352  0.0158
  171SOPE   O2219301   6.820   5.877   7.019  0.1007 -0.2850  0.1253
  171SOPE   C2219302   6.635   6.037   7.042 -0.2604 -0.5179  0.8047
  171SOPE   H2R19303   6.539   6.048   6.987  0.3820  2.1091  0.1778
  171SOPE   H2S19304   6.687   6.134   7.029  1.2133 -1.2957  0.8865
  171SOPE    C319305   6.877   5.955   6.720  0.7575  0.5620  0.0942
  171SOPE    HX19306   6.819   6.045   6.690 -3.5150 -1.4515  1.8909
  171SOPE    HY19307   6.913   5.926   6.619  2.9492  1.8768  0.4797
  171SOPE   O3119308   6.987   5.985   6.812 -0.3347  0.6545 -0.4042
  171SOPE   C3119309   7.096   5.907   6.818 -1.0969 -0.2853 -0.1470
  171SOPE   O3219310   7.115   5.808   6.747 -0.6364 -0.3346  0.2861
  171SOPE   C3219311   7.205   5.963   6.918 -0.1028 -0.0555  0.5385
  171SOPE   H2X19312   7.154   6.037   6.983 -1.8390  0.1047 -0.9789
  171SOPE   H2Y19313   7.266   6.017   6.842 -1.0029 -1.5517 -1.2868
  171SOPE   C2319314   6.603   6.003   7.185  0.4885  0.3817 -0.3604
  171SOPE   H3R19315   6.587   5.895   7.202  0.2657  0.2815 -1.2032
  171SOPE   H3S19316   6.507   6.054   7.206 -0.5083 -2.3013  1.9486
  171SOPE   C2419317   6.696   6.073   7.282  0.6445  0.3684  0.7286
  171SOPE   H4R19318   6.800   6.038   7.266  0.4022 -1.1638  2.4145
  171SOPE   H4S19319   6.669   6.180   7.266  0.1708  0.4596  2.1000
  171SOPE   C2519320   6.651   6.042   7.425  0.1402 -0.5467  0.3193
  171SOPE   H5R19321   6.545   6.068   7.447 -0.0935 -1.2432  0.0445
  171SOPE   H5S19322   6.649   5.931   7.435  0.0389 -0.5242  0.5515
  171SOPE   C2619323   6.751   6.092   7.536  0.5618 -0.2191  1.1131
  171SOPE   H6R19324   6.841   6.027   7.536  0.1583 -0.8548 -1.7471
  171SOPE   H6S19325   6.782   6.197   7.517 -1.6105  0.6148  2.0538
  171SOPE   C2719326   6.684   6.095   7.677 -0.8068  0.0538 -0.4233
  171SOPE   H7R19327   6.584   6.143   7.680  0.0459  2.0302 -2.4530
  171SOPE   H7S19328   6.665   5.989   7.706 -1.2598 -0.7699 -3.5574
  171SOPE   C2819329   6.778   6.155   7.784 -0.0500  0.4543 -0.0741
  171SOPE   H8R19330   6.825   6.250   7.752  0.0712  0.4019 -0.0512
  171SOPE   H8S19331   6.705   6.193   7.859 -0.5987  0.7901 -0.7613
  171SOPE   C2919332   6.879   6.059   7.844 -0.0303 -0.1346  0.6690
  171SOPE   H9119333   6.970   6.046   7.784  0.1912  4.5634 -0.2741
  171SOPE  C21019334   6.866   5.994   7.964  0.7094 -0.5585  0.0901
  171SOPE  H10119335   6.931   5.911   7.997  0.6146 -0.3074  0.9177
  171SOPE  C21119336   6.743   6.001   8.058 -0.0526 -0.2012  0.3892
  171SOPE  H11R19337   6.727   5.916   8.129  1.7955  0.2228  1.3392
  171SOPE  H11S19338   6.650   6.000   7.996  0.7935 -2.7658 -0.9327
  171SOPE  C21219339   6.748   6.127   8.141  0.3720  0.1890 -0.0038
  171SOPE  H12R19340   6.707   6.214   8.085  0.6863  0.8813  0.8376
  171SOPE  H12S19341   6.853   6.139   8.175  0.0185 -0.5156  1.3774
  171SOPE  C21319342   6.684   6.111   8.281  0.0243  1.1602  0.4370
  171SOPE  H13R19343   6.680   6.208   8.336  0.1297  0.8354  1.0265
  171SOPE  H13S19344   6.740   6.035   8.339  0.5023  0.5454 -0.8175
  171SOPE  C21419345   6.536   6.075   8.282 -0.3973  0.4084  0.7273
  171SOPE  H14R19346   6.529   5.972   8.241  2.0424  0.0394  1.1670
  171SOPE  H14S19347   6.486   6.146   8.213  1.7247  1.0453 -0.2036
  171SOPE  C21519348   6.477   6.073   8.418 -0.1557  0.0106  0.0203
  171SOPE  H15R19349   6.477   6.175   8.460  0.1573  0.8941 -2.0513
  171SOPE  H15S19350   6.546   6.012   8.480  2.3828  2.0390 -0.7343
  171SOPE  C21619351   6.339   6.015   8.415  0.0233  0.2438 -0.1268
  171SOPE  H16R19352   6.329   5.908   8.386 -1.6929  0.1051  0.8916
  171SOPE  H16S19353   6.279   6.072   8.340 -1.3792  1.6163  1.9704
  171SOPE  C21719354   6.266   6.034   8.552 -0.9705  0.0781 -0.5283
  171SOPE  H17R19355   6.291   6.138   8.582  0.6484 -0.9587  1.8986
  171SOPE  H17S19356   6.315   5.960   8.618  1.5691  1.9540 -0.2020
  171SOPE  C21819357   6.118   6.010   8.549  0.0016  0.7718  0.0612
  171SOPE  H18R19358   6.073   6.086   8.482 -0.9225 -0.4858 -0.7713
  171SOPE  H18S19359   6.094   6.024   8.657 -2.3452 -0.0417 -0.3354
  171SOPE  H18T19360   6.090   5.913   8.502  3.6215  0.3512 -1.4122
  171SOPE   C3319361   7.283   5.853   6.992 -0.2761 -0.2106  0.1375
  171SOPE   H3X19362   7.378   5.898   7.029 -0.4597  1.8933 -1.8453
  171SOPE   H3Y19363   7.320   5.781   6.916  0.7097 -0.0958  0.4966
  171SOPE   C3419364   7.208   5.765   7.091 -0.6145  0.4625  0.2422
  171SOPE   H4X19365   7.105   5.742   7.056 -0.9617 -0.4268  1.8183
  171SOPE   H4Y19366   7.180   5.822   7.182  1.5480 -1.2752  2.0532
  171SOPE   C3519367   7.274   5.633   7.139 -0.0928  0.3315  0.7563
  171SOPE   H5X19368   7.384   5.632   7.147 -0.0061 -0.0073 -0.4220
  171SOPE   H5Y19369   7.259   5.570   7.049  0.5226  0.9217  0.2355
  171SOPE   C3619370   7.210   5.558   7.257  0.0368  0.2285 -0.2673
  171SOPE   H6X19371   7.229   5.448   7.257 -0.7186  0.0772  1.5240
  171SOPE   H6Y19372   7.099   5.558   7.262  0.0833  0.5738  1.1819
  171SOPE   C3719373   7.266   5.609   7.394 -0.4729 -1.1005  0.2175
  171SOPE   H7X19374   7.257   5.719   7.409 -0.7280 -1.0390 -0.3644
  171SOPE   H7Y19375   7.376   5.593   7.394 -0.3435 -0.3642 -1.2883
  171SOPE   C3819376   7.198   5.551   7.519 -0.9510 -0.7264 -0.3453
  171SOPE   H8X19377   7.092   5.579   7.532 -1.2410 -1.6052 -0.7877
  171SOPE   H8Y19378   7.261   5.587   7.603 -1.4893  0.9914 -0.6550
  171SOPE   C3919379   7.202   5.399   7.521  0.0234 -0.2338 -0.3811
  171SOPE   H9X19380   7.306   5.368   7.497 -0.2908 -1.2513 -0.4492
  171SOPE   H9Y19381   7.130   5.370   7.442 -2.4179 -1.8659  2.3310
  171SOPE  C31019382   7.163   5.343   7.653 -0.4307 -0.1614  0.0397
  171SOPE  H10X19383   7.142   5.235   7.643 -0.6799 -0.1616  0.5503
  171SOPE  H10Y19384   7.068   5.387   7.689 -0.7048 -0.0727 -0.7958
  171SOPE  C31119385   7.278   5.358   7.758 -0.0049  0.3005 -0.2537
  171SOPE  H11X19386   7.305   5.465   7.774 -0.7878  0.1008  2.6898
  171SOPE  H11Y19387   7.378   5.317   7.730  0.5028  1.1927  0.2157
  171SOPE  C31219388   7.240   5.301   7.886 -0.0653 -0.1557  0.3441
  171SOPE  H12X19389   7.232   5.190   7.879  3.0596 -0.4430  0.3107
  171SOPE  H12Y19390   7.136   5.337   7.897 -0.7908 -1.8465 -0.8580
  171SOPE  C31319391   7.336   5.339   7.998  0.4671  0.8356 -0.5819
  171SOPE  H13X19392   7.327   5.446   8.027 -0.2269  0.0533  2.2106
  171SOPE  H13Y19393   7.438   5.318   7.959  1.0588  1.3537  0.6560
  171SOPE  C31419394   7.321   5.249   8.124  0.1704  0.3561  0.1151
  171SOPE  H14X19395   7.219   5.269   8.165 -0.1656 -0.5240 -0.2749
  171SOPE  H14Y19396   7.388   5.287   8.204  0.9898 -1.9023  0.5679
  171SOPE  C31519397   7.356   5.102   8.097 -0.0615  0.4206  0.6247
  171SOPE  H15X19398   7.454   5.101   8.044 -0.6690  2.4681 -0.6041
  171SOPE  H15Y19399   7.278   5.060   8.030  0.9718 -0.6207  0.0528
  171SOPE  C31619400   7.362   5.013   8.224  0.4276  0.1067 -0.9106
  171SOPE  H16X19401   7.434   5.052   8.300  1.4945  1.1409 -2.4288
  171SOPE  H16Y19402   7.405   4.912   8.208 -2.0372 -1.5558  2.2956
  171SOPE  C31719403   7.216   5.000   8.276 -0.3969 -0.2602  0.1776
  171SOPE  H17X19404   7.160   5.096   8.274  0.3983  0.2401  1.1346
  171SOPE  H17Y19405   7.231   4.970   8.382 -0.4812 -1.4944 -0.1516
  171SOPE  C31819406   7.126   4.901   8.197  0.6660  0.4048 -0.1359
  171SOPE  H18X19407   7.017   4.904   8.218  0.2508 -0.0453 -2.1421
  171SOPE  H18Y19408   7.157   4.797   8.219  0.4051  0.1045 -1.1756
  171SOPE  H18Z19409   7.119   4.919   8.088 -0.3423 -2.2670 -0.5487
  172SOPE     N19410   0.905   0.111   6.471 -0.5496  0.0664  0.1688
  172SOPE   HN119411   0.856   0.197   6.440 -1.4105  0.2073  1.8800
  172SOPE   HN219412   1.006   0.120   6.493 -0.3684  1.8956 -1.2649
  172SOPE   HN319413   0.911   0.047   6.389  1.1106 -0.8465  0.9732
  172SOPE   C1219414   0.815   0.053   6.568 -0.2708  0.4922 -0.5020
  172SOPE  H12A19415   0.862  -0.028   6.628 -0.3075  0.2745 -0.7690
  172SOPE  H12B19416   0.733   0.002   6.512 -2.3404  2.4010  0.6820
  172SOPE   C1119417   0.765   0.161   6.666 -0.1190  0.2685 -0.0651
  172SOPE  H11A19418   0.845   0.183   6.739 -1.4096  2.6966  0.6628
  172SOPE  H11B19419   0.670   0.138   6.720 -1.2207  0.4897 -1.8659
  172SOPE     P19420   0.604   0.333   6.533 -0.2455 -0.0731  0.2460
  172SOPE   O1319421   0.541   0.216   6.466  0.2641 -0.5634  0.2147
  172SOPE   O1419422   0.622   0.458   6.456  0.5537 -0.2326 -0.9249
  172SOPE   O1219423   0.741   0.284   6.584  0.5056 -0.0666  0.6082
  172SOPE   O1119424   0.536   0.361   6.674  0.3565 -0.3946 -0.1083
  172SOPE    C119425   0.530   0.485   6.740 -0.6070  0.0043 -0.8878
  172SOPE    HA19426   0.424   0.516   6.730  0.2729  3.3448 -0.7473
  172SOPE    HB19427   0.590   0.565   6.691  1.3383  0.6081  2.3001
  172SOPE    C219428   0.578   0.476   6.888 -0.1312 -0.0261 -0.8884
  172SOPE    HS19429   0.689   0.487   6.880 -0.2183  0.9815 -0.8022
  172SOPE   O2119430   0.556   0.356   6.957 -0.2882 -0.3959 -0.3335
  172SOPE   C2119431   0.440   0.301   6.944  0.0659 -0.5898 -0.6308
  172SOPE   O2219432   0.333   0.353   6.918  0.4072  0.3210  0.0649
  172SOPE   C2219433   0.450   0.163   6.996  0.5199 -0.9353  0.0761
  172SOPE   H2R19434   0.512   0.111   6.921 -0.2232 -0.0786 -1.1524
  172SOPE   H2S19435   0.350   0.113   6.997  1.2101 -2.3592 -1.0769
  172SOPE    C319436   0.529   0.596   6.971 -0.6367 -0.1015 -0.1881
  172SOPE    HX19437   0.420   0.590   6.986 -0.8087 -2.5954 -1.9910
  172SOPE    HY19438   0.557   0.682   6.906  0.0305  0.1441  0.4217
  172SOPE   O3119439   0.596   0.592   7.101  0.3287  0.2208  0.2251
  172SOPE   C3119440   0.577   0.702   7.176  0.0336  0.9238  0.1267
  172SOPE   O3219441   0.484   0.777   7.159 -0.3357 -0.1541  0.4644
  172SOPE   C3219442   0.679   0.706   7.287  0.0999 -0.6461 -0.3417
  172SOPE   H2X19443   0.684   0.806   7.335  0.0723 -1.5098  1.5249
  172SOPE   H2Y19444   0.785   0.694   7.258  1.0338  1.7964  1.8667
  172SOPE   C2319445   0.527   0.124   7.130 -0.7273 -0.1061  0.1472
  172SOPE   H3R19446   0.636   0.146   7.118 -0.3970 -1.1984  1.0544
  172SOPE   H3S19447   0.526   0.013   7.135 -1.8432 -0.1318 -0.4803
  172SOPE   C2419448   0.461   0.169   7.261  0.3125 -0.8573  0.3079
  172SOPE   H4R19449   0.465   0.280   7.269 -3.3855 -0.5724 -0.8652
  172SOPE   H4S19450   0.351   0.148   7.260 -0.0098  0.8428 -2.2127
  172SOPE   C2519451   0.523   0.103   7.383 -0.6627  0.3317  0.3285
  172SOPE   H5R19452   0.509  -0.007   7.381  0.1658  0.2286 -1.1407
  172SOPE   H5S19453   0.634   0.111   7.384 -0.7154  1.1257  0.6130
  172SOPE   C2619454   0.489   0.165   7.525  0.1532 -0.1983  1.2277
  172SOPE   H6R19455   0.504   0.273   7.508 -2.1166 -0.2284 -1.2910
  172SOPE   H6S19456   0.379   0.159   7.538  0.3851 -2.7334  2.3083
  172SOPE   C2719457   0.566   0.119   7.644 -0.1567  0.3319 -0.3025
  172SOPE   H7R19458   0.552   0.009   7.652 -2.7440  0.3666 -3.4191
  172SOPE   H7S19459   0.671   0.150   7.627  0.3779 -0.8742  0.7277
  172SOPE   C2819460   0.524   0.186   7.780  0.0527 -0.5677  0.2619
  172SOPE   H8R19461   0.614   0.189   7.844  0.8289 -0.8805 -0.8061
  172SOPE   H8S19462   0.512   0.293   7.753  0.0138 -0.9743 -1.4057
  172SOPE   C2919463   0.392   0.135   7.840 -0.0433  0.4256 -0.0264
  172SOPE   H9119464   0.308   0.129   7.769  1.4461  0.1131 -1.7861
  172SOPE  C21019465   0.374   0.113   7.973 -0.0148 -0.4684  0.8774
  172SOPE  H10119466   0.279   0.077   8.015  1.3987 -3.0683  2.0485
  172SOPE  C21119467   0.474   0.136   8.082 -0.2377  0.2263 -0.0117
  172SOPE  H11R19468   0.567   0.180   8.041  0.3706 -1.3650 -0.3843
  172SOPE  H11S19469   0.505   0.035   8.117 -0.5879 -0.6758 -2.2024
  172SOPE  C21219470   0.420   0.224   8.193 -0.0561  0.0795  0.3062
  172SOPE  H12R19471   0.479   0.218   8.287  1.9437  1.5878 -0.8046
  172SOPE  H12S19472   0.327   0.177   8.232  1.4864 -2.5653  0.9758
  172SOPE  C21319473   0.381   0.366   8.163  0.0155  0.6059 -0.0587
  172SOPE  H13R19474   0.325   0.365   8.067  2.3260 -1.0643 -1.4225
  172SOPE  H13S19475   0.469   0.426   8.132 -0.4227  0.9004 -0.7583
  172SOPE  C21419476   0.297   0.428   8.274 -0.5186  0.7371  0.3214
  172SOPE  H14R19477   0.355   0.454   8.364  0.7639 -3.1407  0.7190
  172SOPE  H14S19478   0.225   0.355   8.317  0.7890 -0.1956  0.9528
  172SOPE  C21519479   0.202   0.545   8.235 -0.3304 -0.6872 -0.2007
  172SOPE  H15R19480   0.130   0.497   8.165 -0.5770 -0.1392 -0.3245
  172SOPE  H15S19481   0.244   0.628   8.175 -0.1819 -0.4001  0.2982
  172SOPE  C21619482   0.132   0.605   8.360 -0.7703  0.4680 -0.2630
  172SOPE  H16R19483   0.077   0.528   8.418  3.9537 -2.9702 -0.0429
  172SOPE  H16S19484   0.055   0.679   8.327 -0.8185  0.6505  0.2482
  172SOPE  C21719485   0.214   0.690   8.463  0.1730 -0.0328  0.0789
  172SOPE  H17R19486   0.301   0.631   8.497 -0.1502 -1.5757 -1.6516
  172SOPE  H17S19487   0.156   0.714   8.554  1.6142  0.6676  0.8303
  172SOPE  C21819488   0.255   0.827   8.400 -0.6509  0.2285  0.0284
  172SOPE  H18R19489   0.168   0.888   8.368 -1.4380 -1.2633 -0.7229
  172SOPE  H18S19490   0.300   0.797   8.303  1.5842  0.6762  0.9093
  172SOPE  H18T19491   0.331   0.883   8.459  0.6029 -1.7831  0.3725
  172SOPE   C3319492   0.644   0.610   7.409 -0.4908 -0.3491  0.0291
  172SOPE   H3X19493   0.740   0.608   7.465 -1.2630 -2.6175  1.3679
  172SOPE   H3Y19494   0.627   0.504   7.379  1.4568 -1.0803  1.3829
  172SOPE   C3419495   0.524   0.668   7.493  0.4933 -0.4801  0.0477
  172SOPE   H4X19496   0.427   0.648   7.443 -1.0911  0.1768  2.7408
  172SOPE   H4Y19497   0.542   0.777   7.503  0.7007 -0.3181 -1.8511
  172SOPE   C3519498   0.520   0.613   7.636 -0.3268  0.0402 -0.1583
  172SOPE   H5X19499   0.623   0.622   7.677  0.4400  0.5162 -2.1331
  172SOPE   H5Y19500   0.488   0.507   7.632 -1.6789  0.3466  2.0835
  172SOPE   C3619501   0.437   0.710   7.732 -0.1650  0.1093  0.6606
  172SOPE   H6X19502   0.357   0.654   7.785 -0.4517 -0.9567 -0.8718
  172SOPE   H6Y19503   0.384   0.787   7.673  0.8216  0.7866  0.6443
  172SOPE   C3719504   0.513   0.786   7.837  0.2350 -0.4150 -0.0682
  172SOPE   H7X19505   0.445   0.863   7.880 -1.5025 -1.5836 -0.6643
  172SOPE   H7Y19506   0.601   0.824   7.780 -0.0360 -2.3154 -1.8126
  172SOPE   C3819507   0.568   0.702   7.952  0.7388  0.2360 -0.5771
  172SOPE   H8X19508   0.617   0.616   7.902 -1.9438 -2.2100  0.8637
  172SOPE   H8Y19509   0.476   0.665   8.002  0.2367  3.1922  0.8603
  172SOPE   C3919510   0.653   0.783   8.053 -0.6409  0.2866  0.2258
  172SOPE   H9X19511   0.588   0.863   8.095 -1.5867 -0.0592 -0.5582
  172SOPE   H9Y19512   0.736   0.834   7.999 -0.9924  0.5686 -0.0483
  172SOPE  C31019513   0.708   0.701   8.170 -1.0351  0.9069 -1.1730
  172SOPE  H10X19514   0.767   0.618   8.125  0.3140 -1.0776  3.8628
  172SOPE  H10Y19515   0.636   0.647   8.235  2.0438 -2.9484 -0.7975
  172SOPE  C31119516   0.816   0.768   8.256 -0.5725  0.2088 -0.2446
  172SOPE  H11X19517   0.877   0.830   8.187 -0.7634  1.3896  0.6190
  172SOPE  H11Y19518   0.887   0.691   8.292  0.6335  1.2690 -0.2973
  172SOPE  C31219519   0.772   0.847   8.381  0.5085 -0.0059  0.3057
  172SOPE  H12X19520   0.698   0.804   8.452 -0.4725  2.2879  0.7046
  172SOPE  H12Y19521   0.727   0.940   8.340 -1.4304 -1.2780 -0.5490
  172SOPE  C31319522   0.881   0.895   8.473 -0.3397 -0.4448 -0.6847
  172SOPE  H13X19523   0.963   0.933   8.409 -2.8417  0.9450 -3.2021
  172SOPE  H13Y19524   0.923   0.803   8.520  0.9054  0.8618  0.8336
  172SOPE  C31419525   0.840   0.991   8.581 -0.6854 -0.0343 -0.2322
  172SOPE  H14X19526   0.808   1.086   8.532 -2.0456 -1.2852 -1.8264
  172SOPE  H14Y19527   0.924   1.027   8.645  1.0466 -1.1956 -1.8105
  172SOPE  C31519528   0.733   0.934   8.669  0.4252 -0.1404  0.1971
  172SOPE  H15X19529   0.631   0.931   8.624  1.3309  0.8399 -2.0393
  172SOPE  H15Y19530   0.719   1.006   8.752  0.1426 -1.1518  1.0332
  172SOPE  C31619531   0.765   0.795   8.735 -0.1425  0.5594  0.3476
  172SOPE  H16X19532   0.874   0.781   8.746  0.0903  0.0493 -2.4186
  172SOPE  H16Y19533   0.726   0.723   8.661  2.8580  3.5247 -4.3462
  172SOPE  C31719534   0.719   0.785   8.882 -0.2994  0.2548 -0.7279
  172SOPE  H17X19535   0.616   0.827   8.888 -1.2861 -1.9916 -1.2278
  172SOPE  H17Y19536   0.788   0.849   8.941 -0.6100 -1.3371  1.3861
  172SOPE  C31819537   0.737   0.647   8.945  0.1624 -0.1980  0.0169
  172SOPE  H18X19538   0.713   0.644   9.054  3.5700 -0.0853  0.8395
  172SOPE  H18Y19539   0.832   0.592   8.928 -0.7264 -1.8460  0.3147
  172SOPE  H18Z19540   0.656   0.579   8.911 -1.3746 -0.6212  4.1391
  173SAPI   C1219541   2.723   4.290  10.987 -0.1399 -0.1145  0.3191
  173SAPI    H219542   2.724   4.279  10.877 -0.2046  1.9019  0.0980
  173SAPI    O219543   2.588   4.278  11.016  0.0415 -0.0562 -0.3741
  173SAPI   HO219544   2.543   4.262  10.933 -0.1560  0.7878 -0.4281
  173SAPI   C1319545   2.800   4.179  11.053 -0.0145 -0.3176 -0.3261
  173SAPI    H319546   2.906   4.181  11.018  0.6478 -5.8881  0.8041
  173SAPI    O319547   2.746   4.058  11.003  0.4090  0.4373 -0.1194
  173SAPI   HO319548   2.656   4.071  11.032  0.3010  2.9470 -1.3763
  173SAPI   C1419549   2.789   4.189  11.202  0.9053 -0.4813 -0.4539
  173SAPI    H419550   2.682   4.180  11.232  0.6911 -1.8035 -1.5664
  173SAPI    O419551   2.844   4.073  11.261  0.2827  0.0684  0.1935
  173SAPI   HO419552   2.787   4.035  11.329  0.3075 -0.4531 -0.0708
  173SAPI   C1519553   2.859   4.322  11.240  0.5433 -0.1434  0.2096
  173SAPI    H519554   2.965   4.323  11.206  0.5299  1.6663  0.1328
  173SAPI    O519555   2.858   4.347  11.378 -0.3178  0.4452  0.0992
  173SAPI   HO519556   2.844   4.440  11.397 -1.0828  0.8580 -2.2878
  173SAPI   C1619557   2.791   4.436  11.175 -0.3854 -0.6357  0.8147
  173SAPI    H619558   2.685   4.440  11.210 -0.3638 -0.4484  0.8567
  173SAPI    O619559   2.848   4.561  11.208  0.5303  0.1189 -0.1304
  173SAPI   HO619560   2.855   4.612  11.127 -1.1892  1.4150  0.5010
  173SAPI   C1119561   2.786   4.418  11.020 -0.3933  0.7094 -0.2539
  173SAPI    H119562   2.894   4.412  10.996  0.0959  1.6044  1.5641
  173SAPI     P19563   2.785   4.618  10.840 -0.4882  0.4125 -0.3646
  173SAPI   O1319564   2.924   4.648  10.871 -0.1125  0.5165  0.1210
  173SAPI   O1419565   2.686   4.729  10.817 -0.7030 -0.6756 -0.0870
  173SAPI   O1219566   2.719   4.525  10.951  0.2874 -0.2204 -0.2674
  173SAPI   O1119567   2.787   4.526  10.708  0.3327  0.4749  0.3474
  173SAPI    C119568   2.666   4.486  10.640  0.5965 -0.2364  0.6174
  173SAPI    HA19569   2.609   4.418  10.707  1.1579  0.8529  2.2370
  173SAPI    HB19570   2.599   4.573  10.620  0.7688  0.1409  1.6833
  173SAPI    C219571   2.706   4.415  10.513  0.2571  0.4524  0.2697
  173SAPI    HS19572   2.772   4.329  10.537 -1.0626 -0.3222  1.2291
  173SAPI   O2119573   2.767   4.510  10.425  0.4204  0.1883 -0.9805
  173SAPI   C2119574   2.857   4.472  10.345 -1.2493  0.3813 -0.1674
  173SAPI   O2219575   2.915   4.366  10.345 -0.3306 -0.3220 -0.0080
  173SAPI   C2219576   2.891   4.590  10.248  0.2050 -0.0033 -0.4115
  173SAPI   H2R19577   2.801   4.654  10.237 -0.6479 -0.6453  2.4157
  173SAPI   H2S19578   2.966   4.666  10.281 -0.0244 -0.2183  0.6122
  173SAPI    C319579   2.576   4.356  10.458 -0.5027 -0.3931  0.0806
  173SAPI    HX19580   2.504   4.437  10.437 -0.8264 -0.6041  0.3712
  173SAPI    HY19581   2.518   4.285  10.521 -4.5344  1.0654 -1.8342
  173SAPI   O3119582   2.603   4.290  10.330 -0.8545 -0.0480  0.0455
  173SAPI   C3119583   2.626   4.155  10.327  0.3337 -0.9003 -0.2021
  173SAPI   O3219584   2.642   4.090  10.426 -0.1685  0.0410 -0.2044
  173SAPI   C3219585   2.621   4.111  10.182 -0.2216  0.1931 -0.6357
  173SAPI   H2X19586   2.512   4.101  10.163  0.1379 -2.1907 -1.5588
  173SAPI   H2Y19587   2.660   4.008  10.191 -0.0907  0.1967 -1.1270
  173SAPI   C2319588   2.926   4.529  10.110 -0.4932 -0.4725 -0.5020
  173SAPI   H3R19589   2.858   4.446  10.081  0.6564 -0.5917 -3.0675
  173SAPI   H3S19590   3.025   4.479  10.110 -1.1600 -1.8108 -0.4024
  173SAPI   C2419591   2.927   4.641   9.994 -0.1666  0.0956  0.0753
  173SAPI   H4R19592   2.985   4.722  10.043 -1.1948  0.5534  0.5474
  173SAPI   H4S19593   2.828   4.684   9.970 -0.0783 -0.7654 -1.9193
  173SAPI   C2519594   2.999   4.592   9.879  0.1104  0.5122 -0.0620
  173SAPI   H5R19595   3.094   4.545   9.908 -2.0181 -3.4033  0.9482
  173SAPI   C2619596   2.965   4.599   9.751 -0.4805 -0.0326 -1.1340
  173SAPI   H6R19597   3.031   4.553   9.676  2.0863  0.0737  0.9874
  173SAPI   C2719598   2.830   4.652   9.693  0.4287 -0.1410 -0.3831
  173SAPI   H7R19599   2.765   4.706   9.765 -0.7516 -0.0424 -1.5263
  173SAPI   H7S19600   2.764   4.570   9.658 -0.0934  0.9155 -1.9139
  173SAPI   C2819601   2.858   4.744   9.573 -0.1563 -0.5775  0.5144
  173SAPI   H8R19602   2.894   4.845   9.596  1.0082 -0.9412  0.3765
  173SAPI   C2919603   2.842   4.720   9.443  0.2608  0.0707 -0.3745
  173SAPI   H9R19604   2.879   4.791   9.367  0.2987  1.6212  1.0747
  173SAPI  C21019605   2.790   4.594   9.385 -0.5022  0.8539 -0.0347
  173SAPI  H10R19606   2.727   4.618   9.296  0.6615  0.4336 -0.9863
  173SAPI  H10S19607   2.714   4.544   9.448 -0.8152  1.1359 -0.1841
  173SAPI  C21119608   2.899   4.500   9.347  0.3974 -0.5569 -0.1459
  173SAPI  H11R19609   2.959   4.468   9.433  1.5206 -0.6669 -0.9501
  173SAPI  C21219610   2.955   4.465   9.229 -0.0606 -0.3338 -0.4714
  173SAPI  H12R19611   3.040   4.395   9.225 -1.6560 -2.2671 -2.0772
  173SAPI  C21319612   2.910   4.516   9.097  0.1667 -0.3270 -0.3832
  173SAPI  H13R19613   2.802   4.542   9.093  0.2731 -0.0619 -2.0638
  173SAPI  H13S19614   2.916   4.434   9.022  0.2932  0.3758 -1.1417
  173SAPI  C21419615   2.991   4.640   9.064 -1.2148 -0.0419 -0.8901
  173SAPI  H14R19616   3.099   4.635   9.087 -1.3392 -0.1667 -0.3222
  173SAPI  C21519617   2.949   4.741   8.985 -0.3802  0.1820  0.0137
  173SAPI  H15R19618   3.015   4.826   8.965 -0.9132  0.4573 -0.5982
  173SAPI  C21619619   2.819   4.757   8.920 -0.0214  0.1697 -0.4594
  173SAPI  H16R19620   2.790   4.864   8.912 -1.5595 -0.1091  1.0673
  173SAPI  H16S19621   2.740   4.704   8.976 -1.2184  0.6442 -1.6781
  173SAPI  C21719622   2.816   4.710   8.772  0.1027 -0.3474 -0.6861
  173SAPI  H17R19623   2.718   4.742   8.730 -1.3113 -0.8566  2.0945
  173SAPI  H17S19624   2.818   4.599   8.780 -0.2947 -0.3891 -1.1086
  173SAPI  C21819625   2.925   4.759   8.683 -0.9602  1.0273 -0.7664
  173SAPI  H18R19626   3.018   4.750   8.743 -1.1429  1.2975 -0.4418
  173SAPI  H18S19627   2.917   4.869   8.676  2.5781  1.4765  1.1925
  173SAPI  C21919628   2.922   4.694   8.546 -0.6571  0.1417 -0.1277
  173SAPI  H19R19629   2.822   4.712   8.503 -0.2473  4.2273  0.4255
  173SAPI  H19S19630   2.949   4.586   8.545 -1.7963 -0.1496  0.8047
  173SAPI  C22019631   3.020   4.760   8.450  0.4811  0.3797  0.2881
  173SAPI  H20R19632   2.997   4.868   8.446 -1.5805 -0.1025 -2.3419
  173SAPI  H20S19633   3.009   4.726   8.344 -1.2178  0.2888  0.4833
  173SAPI  H20T19634   3.120   4.732   8.490  1.5602  1.3721 -1.6170
  173SAPI   C3319635   2.685   4.209  10.086 -0.2240  0.2152 -0.0868
  173SAPI   H3X19636   2.785   4.235  10.126 -0.3489 -1.1163  1.1304
  173SAPI   H3Y19637   2.611   4.292  10.084 -0.2648  0.1688 -0.8043
  173SAPI   C3419638   2.691   4.157   9.945  0.2258  0.1867 -0.2377
  173SAPI   H4X19639   2.590   4.142   9.899  0.5983 -0.1502 -0.9612
  173SAPI   H4Y19640   2.748   4.062   9.951 -1.6127 -1.1092 -2.3050
  173SAPI   C3519641   2.770   4.259   9.865  0.0088  0.4478  0.2267
  173SAPI   H5X19642   2.871   4.251   9.910  1.5218  1.1018 -2.8970
  173SAPI   H5Y19643   2.707   4.350   9.867 -0.5574  0.0838 -0.4928
  173SAPI   C3619644   2.786   4.216   9.720  0.5604 -0.1814  0.0574
  173SAPI   H6X19645   2.834   4.118   9.699 -0.1434 -0.9485  1.8973
  173SAPI   H6Y19646   2.848   4.296   9.673  1.9580 -1.1740  0.1853
  173SAPI   C3719647   2.662   4.203   9.633  0.5002  0.9486  0.2088
  173SAPI   H7X19648   2.581   4.271   9.667  0.0964  0.0134  1.1417
  173SAPI   H7Y19649   2.608   4.109   9.658 -1.6401  2.6091  1.9497
  173SAPI   C3819650   2.676   4.195   9.480 -0.5500  0.4647 -0.0368
  173SAPI   H8X19651   2.726   4.100   9.453 -0.3631  0.4533  0.3475
  173SAPI   H8Y19652   2.748   4.270   9.439  0.2949 -2.0117 -3.2716
  173SAPI   C3919653   2.550   4.198   9.400 -0.2706 -0.5096  0.5888
  173SAPI   H9X19654   2.502   4.297   9.381 -2.8142 -1.6682  0.7658
  173SAPI   H9Y19655   2.477   4.146   9.466 -1.8365 -1.0273 -1.4895
  173SAPI  C31019656   2.544   4.130   9.263 -0.4114  0.2782 -0.3506
  173SAPI  H10X19657   2.443   4.090   9.240 -0.1537 -1.7854  1.9247
  173SAPI  H10Y19658   2.622   4.051   9.270 -1.2820 -0.6370 -0.8275
  173SAPI  C31119659   2.598   4.221   9.144  0.5525 -1.0729 -0.3512
  173SAPI  H11X19660   2.640   4.153   9.068 -0.0809  1.0467 -2.6478
  173SAPI  H11Y19661   2.676   4.281   9.195 -0.3965  0.0627 -0.2194
  173SAPI  C31219662   2.491   4.301   9.072 -0.4646 -0.1204 -0.1265
  173SAPI  H12X19663   2.433   4.346   9.155 -0.7754 -1.1999  0.2572
  173SAPI  H12Y19664   2.429   4.229   9.013  1.4030 -1.7384 -0.1633
  173SAPI  C31319665   2.532   4.410   8.967 -0.3150 -1.0370  0.0918
  173SAPI  H13X19666   2.594   4.366   8.886 -0.7031 -0.6666 -0.4043
  173SAPI  H13Y19667   2.590   4.490   9.018  1.3326 -1.6264 -0.8223
  173SAPI  C31419668   2.406   4.472   8.894 -0.5913 -0.0026 -0.0454
  173SAPI  H14X19669   2.322   4.495   8.962 -1.0672  1.8142 -1.2083
  173SAPI  H14Y19670   2.371   4.391   8.827 -0.5426  0.1517 -0.2583
  173SAPI  C31519671   2.435   4.591   8.795  0.1085  0.2851 -1.1015
  173SAPI  H15X19672   2.492   4.681   8.827 -0.7990  0.3033  0.5005
  173SAPI  H15Y19673   2.341   4.643   8.769 -0.1458  0.7577  0.6617
  173SAPI  C31619674   2.502   4.536   8.659 -0.2688 -0.6136  0.2207
  173SAPI  H16X19675   2.603   4.491   8.668 -0.0797 -0.5203 -1.2845
  173SAPI  H16Y19676   2.526   4.624   8.594  3.1280 -0.3170  1.7570
  173SAPI  C31719677   2.411   4.450   8.574  0.4613  1.1992  0.4569
  173SAPI  H17X19678   2.405   4.356   8.633 -1.0320  1.4403  0.7093
  173SAPI  H17Y19679   2.466   4.420   8.482  2.0465 -0.8113  1.9801
  173SAPI  C31819680   2.274   4.510   8.546  0.3140  0.5273 -0.3496
  173SAPI  H18X19681   2.297   4.587   8.470 -1.1227 -0.4108 -1.7669
  173SAPI  H18Y19682   2.211   4.566   8.619 -0.4365 -0.6081 -0.1006
  173SAPI  H18Z19683   2.211   4.432   8.498  1.7807 -0.1835 -1.1638
  174SAPI   C1219684   6.142   5.515  11.094 -0.4697  0.0948  0.1604
  174SAPI    H219685   6.067   5.498  11.014  1.1525 -0.2244 -1.3334
  174SAPI    O219686   6.093   5.604  11.192  0.3869  0.4863  0.3592
  174SAPI   HO219687   6.089   5.692  11.154 -1.9085  1.2009  2.1629
  174SAPI   C1319688   6.177   5.380  11.152  0.9459 -0.3623  0.2239
  174SAPI    H319689   6.218   5.323  11.066 -0.4633 -0.9240 -0.0984
  174SAPI    O319690   6.055   5.313  11.204  0.1023 -0.6817 -0.4977
  174SAPI   HO319691   6.003   5.385  11.241 -0.7945 -1.1231 -0.9007
  174SAPI   C1419692   6.291   5.389  11.262  0.1297  0.2133 -0.4549
  174SAPI    H419693   6.255   5.446  11.350  2.1296 -3.2796  2.7578
  174SAPI    O419694   6.336   5.258  11.316  0.0454 -0.1903 -0.0190
  174SAPI   HO419695   6.303   5.250  11.405 -2.0993  4.4737 -0.2327
  174SAPI   C1519696   6.407   5.468  11.200 -0.0525  0.4033  0.2239
  174SAPI    H519697   6.461   5.410  11.122  1.2730 -0.5129  1.7820
  174SAPI    O519698   6.513   5.488  11.300  0.7885 -0.0512  0.3175
  174SAPI   HO519699   6.468   5.504  11.383 -0.2305 -1.7532  0.1020
  174SAPI   C1619700   6.369   5.601  11.139  0.4530  0.3252 -0.4852
  174SAPI    H619701   6.328   5.661  11.223  3.2930  2.3224 -0.4681
  174SAPI    O619702   6.478   5.677  11.092  0.1667 -0.3827  1.0707
  174SAPI   HO619703   6.472   5.685  10.996  0.0096 -1.8781  0.9467
  174SAPI   C1119704   6.262   5.583  11.026 -0.0427  0.2587 -0.3932
  174SAPI    H119705   6.297   5.498  10.964 -1.8968 -2.5318  2.2076
  174SAPI     P19706   6.295   5.750  10.819 -0.1190  0.2135  0.1027
  174SAPI   O1319707   6.434   5.698  10.839  0.2831 -0.4173  0.2437
  174SAPI   O1419708   6.276   5.897  10.815  0.4884 -0.5343 -0.0988
  174SAPI   O1219709   6.215   5.698  10.957  0.5243 -0.1682 -0.4476
  174SAPI   O1119710   6.227   5.667  10.702 -0.5294  0.5231  0.9141
  174SAPI    C119711   6.085   5.655  10.693  0.5839  0.1282 -0.0204
  174SAPI    HA19712   6.058   5.552  10.726  2.0572  0.0548  1.0328
  174SAPI    HB19713   6.027   5.725  10.756  2.1734  2.2452 -0.8446
  174SAPI    C219714   6.031   5.693  10.560  0.6016 -0.0956 -0.4179
  174SAPI    HS19715   5.926   5.657  10.563  0.4075  0.5767  0.8846
  174SAPI   O2119716   6.103   5.630  10.452  0.2146  0.1263 -0.8988
  174SAPI   C2119717   6.081   5.497  10.439 -0.3587  0.1868  0.0028
  174SAPI   O2219718   5.992   5.439  10.492  0.7284 -0.6343 -0.1732
  174SAPI   C2219719   6.181   5.436  10.345 -0.1443 -0.0829  0.4278
  174SAPI   H2R19720   6.162   5.475  10.243 -0.5702  0.5442  0.7463
  174SAPI   H2S19721   6.279   5.479  10.372 -0.1100 -2.0349  3.7397
  174SAPI    C319722   6.024   5.847  10.534 -0.1418  0.0903  0.1236
  174SAPI    HX19723   6.123   5.893  10.515 -0.4161  0.0172 -1.5088
  174SAPI    HY19724   5.986   5.884  10.632 -0.3169  1.5801 -0.4905
  174SAPI   O3119725   5.938   5.873  10.419  0.7626 -0.2140  0.2875
  174SAPI   C3119726   5.927   6.003  10.400 -0.7263 -0.1697 -0.0033
  174SAPI   O3219727   5.988   6.087  10.472  0.3878 -0.2605 -0.1233
  174SAPI   C3219728   5.829   6.034  10.284 -0.2227 -0.2043 -0.0030
  174SAPI   H2X19729   5.778   5.936  10.276 -1.0391  0.1285  1.0221
  174SAPI   H2Y19730   5.894   6.047  10.194  0.7189  0.8456  0.8122
  174SAPI   C2319731   6.196   5.281  10.345  0.4761  0.2945 -0.3305
  174SAPI   H3R19732   6.102   5.221  10.343  0.6826 -0.0025 -1.1121
  174SAPI   H3S19733   6.250   5.263  10.441  0.9708  0.7819 -0.5175
  174SAPI   C2419734   6.285   5.244  10.222 -0.5909  0.5498  0.7733
  174SAPI   H4R19735   6.217   5.245  10.134 -0.3724 -2.3011  0.5303
  174SAPI   H4S19736   6.317   5.140  10.246 -1.2158  0.0567 -0.4851
  174SAPI   C2519737   6.405   5.334  10.187 -0.2305  0.0577 -0.1772
  174SAPI   H5R19738   6.481   5.333  10.266 -1.6821  2.4586  1.2987
  174SAPI   C2619739   6.422   5.416  10.081 -0.1460 -0.2460  0.0886
  174SAPI   H6R19740   6.507   5.485  10.070 -0.8426  0.3759 -1.5577
  174SAPI   C2719741   6.329   5.438   9.971  0.1494  0.0705 -0.4427
  174SAPI   H7R19742   6.267   5.347   9.962  1.7096 -1.2017  1.2819
  174SAPI   H7S19743   6.388   5.443   9.877 -1.4578  0.6965 -1.4380
  174SAPI   C2819744   6.253   5.569   9.982  0.1692 -0.2172  0.5463
  174SAPI   H8R19745   6.244   5.603  10.086  1.2965  0.3106  0.4772
  174SAPI   C2919746   6.207   5.639   9.884  0.5420  0.4792 -0.1332
  174SAPI   H9R19747   6.154   5.733   9.907  1.2136  0.1738  2.8877
  174SAPI  C21019748   6.224   5.618   9.731 -0.4603  0.2163 -0.7238
  174SAPI  H10R19749   6.267   5.519   9.703 -0.2249  0.7717 -2.3863
  174SAPI  H10S19750   6.294   5.694   9.691 -0.7539 -0.1475 -1.9657
  174SAPI  C21119751   6.092   5.637   9.666  0.3479  0.3832  0.1922
  174SAPI  H11R19752   6.005   5.601   9.724 -0.1235  0.7317 -0.2914
  174SAPI  C21219753   6.056   5.697   9.544 -0.3018 -0.1738  0.1532
  174SAPI  H12R19754   5.948   5.703   9.524  0.3043  3.7153 -2.4068
  174SAPI  C21319755   6.158   5.739   9.441  0.1562  0.4024  0.6500
  174SAPI  H13R19756   6.129   5.687   9.347 -4.6538 -0.3119  2.3812
  174SAPI  H13S19757   6.258   5.701   9.471 -0.1023  1.7435  3.3115
  174SAPI  C21419758   6.179   5.893   9.425 -0.0675 -0.0956 -0.1499
  174SAPI  H14R19759   6.242   5.936   9.504 -1.1714  1.2237  0.0266
  174SAPI  C21519760   6.118   5.969   9.329 -0.6745 -0.5049 -0.5300
  174SAPI  H15R19761   6.136   6.078   9.322  1.1439 -0.8019 -0.7146
  174SAPI  C21619762   6.035   5.916   9.214 -0.6000 -0.7145  0.0790
  174SAPI  H16R19763   5.952   5.981   9.180 -1.4646 -0.8612  1.8607
  174SAPI  H16S19764   5.987   5.821   9.246  0.0516 -0.2810  2.4656
  174SAPI  C21719765   6.127   5.884   9.092  0.2034  0.0405 -0.1324
  174SAPI  H17R19766   6.219   5.848   9.142  0.0124  1.1160  1.0444
  174SAPI  H17S19767   6.149   5.975   9.034  0.1858 -0.1174 -0.3868
  174SAPI  C21819768   6.069   5.783   8.988  1.0566  0.2656  0.0825
  174SAPI  H18R19769   6.042   5.681   9.024  3.2769 -1.0055 -1.6497
  174SAPI  H18S19770   6.142   5.762   8.906 -0.7076  1.9395 -1.9704
  174SAPI  C21919771   5.939   5.830   8.917  0.0004 -0.0586  0.0857
  174SAPI  H19R19772   5.986   5.904   8.848 -0.0687  2.5689  2.7345
  174SAPI  H19S19773   5.869   5.872   8.993  0.6328  1.1874 -0.0101
  174SAPI  C22019774   5.865   5.733   8.832 -0.2532 -0.2469 -0.2427
  174SAPI  H20R19775   5.939   5.665   8.785 -0.5830 -0.8875  0.1666
  174SAPI  H20S19776   5.805   5.782   8.752  1.2002 -1.9915 -2.4743
  174SAPI  H20T19777   5.795   5.674   8.895 -1.2348  3.7164  2.5980
  174SAPI   C3319778   5.726   6.139  10.313  0.4174 -0.1061  0.6383
  174SAPI   H3X19779   5.706   6.165  10.419 -0.1690  2.1394  0.0045
  174SAPI   H3Y19780   5.622   6.108  10.288  0.2591  0.6991  0.2718
  174SAPI   C3419781   5.769   6.273  10.252  0.2746  0.2272  0.1571
  174SAPI   H4X19782   5.879   6.277  10.269  0.2199  1.8788  0.1774
  174SAPI   H4Y19783   5.716   6.349  10.314 -0.5875 -1.5989  1.7266
  174SAPI   C3519784   5.737   6.278  10.106  0.4429  0.0080 -0.1904
  174SAPI   H5X19785   5.628   6.263  10.090 -0.1179 -0.7278  3.8185
  174SAPI   H5Y19786   5.784   6.191  10.055  2.7192  1.6268 -0.9279
  174SAPI   C3619787   5.773   6.406  10.032 -0.2375 -0.2375 -0.9588
  174SAPI   H6X19788   5.882   6.414  10.047 -0.5641 -1.8726  2.9953
  174SAPI   H6Y19789   5.717   6.491  10.076  1.0769  0.1596 -0.0452
  174SAPI   C3719790   5.744   6.404   9.884 -0.0314 -0.3374 -0.0563
  174SAPI   H7X19791   5.789   6.502   9.854  1.1798 -0.7431  0.3830
  174SAPI   H7Y19792   5.636   6.408   9.861  0.1477  1.0914 -0.7540
  174SAPI   C3819793   5.824   6.305   9.803  0.4373 -0.5494  0.2578
  174SAPI   H8X19794   5.803   6.200   9.832 -2.1788 -0.5953 -1.7162
  174SAPI   H8Y19795   5.928   6.320   9.840  0.1692 -0.6071  1.0492
  174SAPI   C3919796   5.801   6.331   9.656  0.0112  0.1841  0.2543
  174SAPI   H9X19797   5.880   6.265   9.615 -0.1062 -0.6199  1.3211
  174SAPI   H9Y19798   5.837   6.436   9.642  0.1917  0.1887  0.7440
  174SAPI  C31019799   5.660   6.300   9.608  0.1203 -0.4119  0.7747
  174SAPI  H10X19800   5.581   6.366   9.651 -1.2541 -1.5406 -0.0210
  174SAPI  H10Y19801   5.649   6.191   9.628 -1.2670 -0.2116  1.1675
  174SAPI  C31119802   5.651   6.334   9.462  0.7467 -0.3768  0.1353
  174SAPI  H11X19803   5.605   6.434   9.444  1.1883 -0.1448  0.2929
  174SAPI  H11Y19804   5.572   6.261   9.435  1.5363 -0.8515 -0.9150
  174SAPI  C31219805   5.774   6.326   9.377  0.5497 -0.3501 -0.6509
  174SAPI  H12X19806   5.826   6.228   9.384  0.5589 -0.2680  0.4717
  174SAPI  H12Y19807   5.835   6.417   9.397  1.6549 -1.4100  0.9033
  174SAPI  C31319808   5.740   6.337   9.225  0.0562 -0.5129  0.4391
  174SAPI  H13X19809   5.707   6.441   9.207 -0.3789 -1.1111 -2.3461
  174SAPI  H13Y19810   5.659   6.266   9.198  0.1371  0.6688 -3.1287
  174SAPI  C31419811   5.863   6.319   9.133 -0.3022 -0.3574 -0.2605
  174SAPI  H14X19812   5.923   6.238   9.180  0.1959  0.0789 -0.1511
  174SAPI  H14Y19813   5.932   6.405   9.143 -0.7358 -0.1237  0.8351
  174SAPI  C31519814   5.830   6.293   8.985 -0.2716 -0.5197  0.9003
  174SAPI  H15X19815   5.768   6.377   8.947  0.8813 -0.1394 -0.1859
  174SAPI  H15Y19816   5.773   6.198   8.985  0.2680 -0.8555  1.6291
  174SAPI  C31619817   5.957   6.273   8.899 -0.2582 -0.1313 -0.2404
  174SAPI  H16X19818   5.935   6.240   8.795 -2.3267  2.2629 -0.6025
  174SAPI  H16Y19819   6.019   6.198   8.951 -1.2789 -1.5495 -1.0440
  174SAPI  C31719820   6.024   6.406   8.865 -0.0353  0.2880  0.1966
  174SAPI  H17X19821   6.134   6.416   8.881 -0.3310  2.1954  1.2608
  174SAPI  H17Y19822   5.980   6.484   8.931  1.5173 -0.0275  1.6458
  174SAPI  C31819823   5.993   6.451   8.716  0.4514  0.0159  0.0419
  174SAPI  H18X19824   6.045   6.382   8.647  0.6517  2.0288 -1.8523
  174SAPI  H18Y19825   6.031   6.555   8.707  1.0066 -0.2286 -0.4290
  174SAPI  H18Z19826   5.884   6.449   8.693  0.2763  1.2716  0.7288
  175SAPI   C1219827   0.895   4.611   6.104 -0.5592 -0.3646 -0.0833
  175SAPI    H219828   0.998   4.582   6.077 -0.4831  0.7260 -1.0170
  175SAPI    O219829   0.882   4.746   6.067 -0.2459 -0.0296 -0.2797
  175SAPI   HO219830   0.818   4.752   5.996 -0.7084  0.1079  0.1400
  175SAPI   C1319831   0.806   4.521   6.023  0.5250 -0.5043  0.6198
  175SAPI    H319832   0.817   4.419   6.066 -1.1911 -0.2727  1.6675
  175SAPI    O319833   0.837   4.510   5.883  0.6083  0.2054  0.2321
  175SAPI   HO319834   0.823   4.419   5.858 -0.2615  0.9464 -2.1871
  175SAPI   C1419835   0.657   4.555   6.030 -0.7846  0.0719 -0.1712
  175SAPI    H419836   0.635   4.659   6.000  2.6576  0.8814 -0.0954
  175SAPI    O419837   0.579   4.467   5.944  0.2591  0.6799  0.1038
  175SAPI   HO419838   0.497   4.515   5.932  0.4078  1.5945  2.4852
  175SAPI   C1519839   0.620   4.535   6.180 -0.7340 -1.0805  0.4674
  175SAPI    H519840   0.656   4.431   6.198 -2.1491 -1.8984 -1.2891
  175SAPI    O519841   0.479   4.548   6.211  0.0161 -0.0611  0.2327
  175SAPI   HO519842   0.481   4.604   6.289  0.2457 -1.3259  1.1679
  175SAPI   C1619843   0.705   4.633   6.265  0.5902  0.6032  0.0842
  175SAPI    H619844   0.688   4.739   6.235  0.1338  0.8987  1.3775
  175SAPI    O619845   0.668   4.621   6.402 -0.0239  0.2388 -0.0231
  175SAPI   HO619846   0.736   4.678   6.439  0.0923  1.3699 -1.9032
  175SAPI   C1119847   0.855   4.605   6.249  0.7968 -0.0973 -0.0001
  175SAPI    H119848   0.865   4.497   6.271  0.9077 -0.6356 -2.5401
  175SAPI     P19849   1.089   4.629   6.384  0.3525  0.0948 -0.2019
  175SAPI   O1319850   1.170   4.749   6.419  0.4327 -0.1639  0.7062
  175SAPI   O1419851   1.146   4.534   6.291  0.6300  0.6878  0.5025
  175SAPI   O1219852   0.942   4.688   6.327  0.6509 -0.3740  0.8901
  175SAPI   O1119853   1.037   4.566   6.525 -0.5469 -0.4731  0.1575
  175SAPI    C119854   1.068   4.435   6.566  0.2314  0.2303 -0.4092
  175SAPI    HA19855   1.162   4.398   6.519  0.4103 -0.9919  0.8870
  175SAPI    HB19856   1.065   4.430   6.677 -1.0228 -2.4463 -0.5407
  175SAPI    C219857   0.957   4.338   6.520  0.3376 -0.8833 -0.7042
  175SAPI    HS19858   0.959   4.341   6.409 -1.4546  0.6469 -0.7259
  175SAPI   O2119859   0.827   4.389   6.560 -0.0070 -0.1569 -0.5592
  175SAPI   C2119860   0.723   4.319   6.517 -0.2101 -0.2394  0.0509
  175SAPI   O2219861   0.730   4.244   6.422  0.3401  0.3881  0.4945
  175SAPI   C2219862   0.592   4.356   6.591  0.1690  0.3526  0.1312
  175SAPI   H2R19863   0.624   4.407   6.685 -0.4021 -0.4873  0.7775
  175SAPI   H2S19864   0.527   4.422   6.530 -0.2916 -0.0327  0.2084
  175SAPI    C319865   0.981   4.198   6.578  0.2266 -0.0634  0.0239
  175SAPI    HX19866   1.086   4.180   6.546  0.6890  3.3004 -0.5821
  175SAPI    HY19867   0.918   4.133   6.514  2.0135 -0.0505 -1.7872
  175SAPI   O3119868   0.972   4.181   6.717 -0.7136  0.4719 -0.1861
  175SAPI   C3119869   0.952   4.063   6.763 -0.6907  0.0275  0.3068
  175SAPI   O3219870   0.922   3.967   6.693  0.2273  0.0299 -0.7664
  175SAPI   C3219871   0.985   4.057   6.907 -0.3591  0.1517 -0.0712
  175SAPI   H2X19872   0.898   4.079   6.973 -0.9189  0.3175 -0.8666
  175SAPI   H2Y19873   1.066   4.127   6.937 -1.5890  1.2272  0.8329
  175SAPI   C2319874   0.513   4.235   6.612 -0.2393 -0.3293 -0.2246
  175SAPI   H3R19875   0.485   4.198   6.511  2.0869 -0.0155 -1.0181
  175SAPI   H3S19876   0.422   4.265   6.668  0.4466 -3.2978  2.6456
  175SAPI   C2419877   0.583   4.121   6.695 -0.6422  0.0760  0.2555
  175SAPI   H4R19878   0.648   4.166   6.774  2.6940 -1.5111 -1.4970
  175SAPI   H4S19879   0.653   4.068   6.627  1.1826  1.3909  1.0353
  175SAPI   C2519880   0.483   4.029   6.773  0.2793  0.1262  0.4182
  175SAPI   H5R19881   0.413   3.977   6.707  1.4676 -0.0587 -0.7205
  175SAPI   C2619882   0.461   3.993   6.899 -0.4982  0.1561  0.1612
  175SAPI   H6R19883   0.379   3.923   6.921  0.3715 -0.6231  0.9082
  175SAPI   C2719884   0.542   4.047   7.009  0.1337 -0.1638 -0.6693
  175SAPI   H7R19885   0.527   4.156   7.026  1.4506 -0.1819  0.7423
  175SAPI   H7S19886   0.652   4.039   6.990  0.2891  0.2849  0.0274
  175SAPI   C2819887   0.511   3.982   7.143 -0.1550 -0.1795 -0.7631
  175SAPI   H8R19888   0.413   4.010   7.184  0.0163 -0.8664  0.1326
  175SAPI   C2919889   0.590   3.906   7.218 -0.2613  0.3501  0.1168
  175SAPI   H9R19890   0.570   3.874   7.321  0.2287 -1.7017 -0.3939
  175SAPI  C21019891   0.730   3.872   7.177  0.2506 -0.3474 -0.2411
  175SAPI  H10R19892   0.792   3.937   7.242  0.5356 -2.0966  1.2695
  175SAPI  H10S19893   0.759   3.911   7.077 -0.2674 -1.4189 -0.8230
  175SAPI  C21119894   0.775   3.727   7.169 -0.1183  0.4149 -0.2503
  175SAPI  H11R19895   0.791   3.690   7.067  0.1620 -2.5523  0.8174
  175SAPI  C21219896   0.810   3.651   7.269 -0.5159  0.1063  0.5494
  175SAPI  H12R19897   0.854   3.553   7.245 -0.1504  0.3899  0.0461
  175SAPI  C21319898   0.804   3.688   7.410  0.4311  0.3922 -0.4605
  175SAPI  H13R19899   0.783   3.596   7.469  1.2109  1.4821  1.5996
  175SAPI  H13S19900   0.719   3.754   7.436 -1.1578 -1.3055 -1.2224
  175SAPI  C21419901   0.934   3.747   7.460  0.0912 -0.0620  0.3902
  175SAPI  H14R19902   0.991   3.809   7.389  1.0223  0.1647  1.3146
  175SAPI  C21519903   0.996   3.713   7.575  0.6224 -0.2445 -0.2858
  175SAPI  H15R19904   1.083   3.772   7.607 -1.9256  2.6134  1.6615
  175SAPI  C21619905   0.949   3.613   7.683  0.2864 -0.4456 -0.3383
  175SAPI  H16R19906   0.838   3.623   7.689  0.4812  0.8043  1.8594
  175SAPI  H16S19907   0.999   3.649   7.776  0.4957 -1.6280  0.0139
  175SAPI  C21719908   0.988   3.469   7.681  0.0047  0.6181  0.1667
  175SAPI  H17R19909   1.091   3.456   7.719  0.5901 -0.4185 -1.7116
  175SAPI  H17S19910   0.971   3.427   7.579 -1.6575  0.1717  0.5993
  175SAPI  C21819911   0.915   3.376   7.782  0.3015 -0.1843 -0.1562
  175SAPI  H18R19912   0.946   3.270   7.775  1.9469  0.2702  0.1059
  175SAPI  H18S19913   0.808   3.378   7.750  0.4951  1.5822 -0.7517
  175SAPI  C21919914   0.922   3.433   7.928 -0.2209  0.4698 -0.5224
  175SAPI  H19R19915   0.875   3.357   7.993  0.4857  0.9438  0.5609
  175SAPI  H19S19916   0.865   3.526   7.949 -2.3246 -1.3110  1.8740
  175SAPI  C22019917   1.066   3.444   7.989  0.1357  1.3029  0.2056
  175SAPI  H20R19918   1.075   3.480   8.094  0.3539 -1.9458  1.3596
  175SAPI  H20S19919   1.138   3.499   7.924 -0.4608 -0.8449 -2.3516
  175SAPI  H20T19920   1.103   3.339   7.997 -1.0762  0.8071 -0.5610
  175SAPI   C3319921   1.044   3.917   6.933 -0.4478 -0.7521  0.0388
  175SAPI   H3X19922   1.114   3.884   6.853 -0.0675  2.3391 -1.0012
  175SAPI   H3Y19923   0.959   3.845   6.931 -0.7139 -0.4104 -1.6804
  175SAPI   C3419924   1.108   3.908   7.071 -0.1516 -0.6295 -0.3164
  175SAPI   H4X19925   1.102   3.800   7.097 -0.5076 -1.1171 -2.3653
  175SAPI   H4Y19926   1.047   3.974   7.137  2.5067  1.3667  0.2378
  175SAPI   C3519927   1.250   3.954   7.087  0.0001  0.0526  0.2515
  175SAPI   H5X19928   1.258   4.063   7.064 -0.0518  0.1401  0.6399
  175SAPI   H5Y19929   1.315   3.900   7.015 -0.6463 -0.7951  0.2940
  175SAPI   C3619930   1.310   3.934   7.229  0.1896  1.0747  0.1359
  175SAPI   H6X19931   1.420   3.950   7.227  0.3442  0.1035  0.7481
  175SAPI   H6Y19932   1.298   3.828   7.259  0.7016  0.9196 -0.1853
  175SAPI   C3719933   1.244   4.015   7.341 -0.3385  0.0177 -0.0011
  175SAPI   H7X19934   1.136   3.991   7.352 -0.0968 -1.4411 -0.7666
  175SAPI   H7Y19935   1.254   4.120   7.308 -1.1000 -0.5982 -2.2685
  175SAPI   C3819936   1.318   4.006   7.479 -0.1732  0.3787  0.6251
  175SAPI   H8X19937   1.421   4.046   7.470 -0.0670 -0.1894 -0.9678
  175SAPI   H8Y19938   1.331   3.902   7.517  1.0044 -0.1185 -1.0424
  175SAPI   C3919939   1.236   4.083   7.578  0.0208 -0.3301  0.7505
  175SAPI   H9X19940   1.140   4.027   7.576 -1.5967  2.3529  0.5747
  175SAPI   H9Y19941   1.216   4.184   7.536  1.3420 -0.5027 -0.3406
  175SAPI  C31019942   1.293   4.085   7.719 -0.2885  0.9952  0.1295
  175SAPI  H10X19943   1.332   4.189   7.729  0.8245  0.6951 -0.8251
  175SAPI  H10Y19944   1.384   4.024   7.736 -0.1031  1.1750 -0.1935
  175SAPI  C31119945   1.182   4.052   7.817 -0.6412  0.2476  0.0562
  175SAPI  H11X19946   1.143   3.948   7.817  0.8986 -0.3362 -0.3093
  175SAPI  H11Y19947   1.091   4.105   7.780 -0.4832  0.3486 -0.1843
  175SAPI  C31219948   1.232   4.081   7.961  0.2739 -0.5850  0.1776
  175SAPI  H12X19949   1.260   4.189   7.961 -3.4510  0.4858 -1.8725
  175SAPI  H12Y19950   1.320   4.014   7.973  1.8402  1.5392  0.9908
  175SAPI  C31319951   1.142   4.042   8.080 -0.8144 -0.0306  0.2891
  175SAPI  H13X19952   1.110   3.940   8.050  0.0345  0.0007 -0.7548
  175SAPI  H13Y19953   1.058   4.113   8.072 -1.1316 -0.4519 -0.1384
  175SAPI  C31419954   1.211   4.042   8.219 -1.1700  0.5936  0.7577
  175SAPI  H14X19955   1.255   4.142   8.237 -0.8723  0.5152  0.4833
  175SAPI  H14Y19956   1.298   3.972   8.221 -0.3162  1.6052 -0.1993
  175SAPI  C31519957   1.117   3.999   8.338 -0.2985 -0.8350 -0.1812
  175SAPI  H15X19958   1.065   3.906   8.307 -0.2535  0.0527 -3.0821
  175SAPI  H15Y19959   1.034   4.073   8.334 -1.2555 -1.9880 -2.7648
  175SAPI  C31619960   1.188   3.971   8.470 -0.1519  0.3011  0.5344
  175SAPI  H16X19961   1.232   4.067   8.506 -1.1800  0.3456  1.6989
  175SAPI  H16Y19962   1.257   3.885   8.456 -1.4255 -0.8285  1.0942
  175SAPI  C31719963   1.101   3.923   8.582 -0.5199 -0.6560 -0.2541
  175SAPI  H17X19964   1.048   3.831   8.550  2.8341 -1.7999 -2.7430
  175SAPI  H17Y19965   1.028   4.005   8.598  0.3569 -0.1035  1.0455
  175SAPI  C31819966   1.182   3.906   8.712  0.5533 -0.0528 -0.4635
  175SAPI  H18X19967   1.225   4.004   8.742  2.1608 -0.9568  0.2306
  175SAPI  H18Y19968   1.270   3.842   8.691  1.4331  0.6910  0.8451
  175SAPI  H18Z19969   1.119   3.862   8.792  0.0877  0.4980 -0.5204
  176SAPI   C1219970   0.809   2.748   6.419 -0.6225  0.1300  0.0795
  176SAPI    H219971   0.716   2.729   6.478 -0.0900 -2.0490  0.2586
  176SAPI    O219972   0.915   2.654   6.442  0.1396  0.2968 -0.3211
  176SAPI   HO219973   0.877   2.567   6.450 -2.4608  1.3731 -0.3787
  176SAPI   C1319974   0.765   2.757   6.277 -0.2075 -0.2654 -0.3993
  176SAPI    H319975   0.692   2.839   6.265 -2.2159 -1.8563  0.7370
  176SAPI    O319976   0.696   2.640   6.238  0.6873  0.0100  0.4965
  176SAPI   HO319977   0.762   2.571   6.227 -1.1492 -1.9821  1.5221
  176SAPI   C1419978   0.885   2.779   6.189  0.7457  0.9442  0.3503
  176SAPI    H419979   0.970   2.709   6.202 -1.3781 -1.6825  0.5765
  176SAPI    O419980   0.838   2.788   6.055 -0.7519  0.6683 -0.3524
  176SAPI   HO419981   0.918   2.788   6.002 -0.2879 -0.5822  0.3271
  176SAPI   C1519982   0.936   2.920   6.223  0.3603  0.2160  0.1432
  176SAPI    H519983   0.852   2.993   6.228  0.0793 -0.1952  1.6266
  176SAPI    O519984   1.030   2.968   6.131  0.3105  0.4360  0.0258
  176SAPI   HO519985   0.992   3.047   6.092  0.5426  2.3357  3.4293
  176SAPI   C1619986   0.983   2.917   6.371 -0.3698 -0.2465 -0.0136
  176SAPI    H619987   1.066   2.844   6.382  1.5471  2.2259  2.8459
  176SAPI    O619988   1.031   3.043   6.414  0.0701  0.4440  0.1808
  176SAPI   HO619989   1.089   3.028   6.489  0.7005 -0.2954 -0.4332
  176SAPI   C1119990   0.866   2.884   6.466  0.1710 -0.5421 -0.6251
  176SAPI    H119991   0.786   2.959   6.450 -0.3913 -1.1742 -0.7961
  176SAPI     P19992   0.825   2.942   6.724 -0.1372 -0.3122  0.3231
  176SAPI   O1319993   0.777   3.080   6.693  0.4465 -0.3781 -0.1929
  176SAPI   O1419994   0.913   2.946   6.848  0.2681 -0.0370  0.3035
  176SAPI   O1219995   0.918   2.876   6.600  0.0089 -0.0938  0.3008
  176SAPI   O1119996   0.703   2.844   6.738 -0.0363 -0.5582 -0.4492
  176SAPI    C119997   0.723   2.713   6.785 -0.3123  0.3193 -1.0175
  176SAPI    HA19998   0.627   2.660   6.770 -0.9382  1.5217 -1.3225
  176SAPI    HB19999   0.799   2.660   6.724 -0.4510 -2.0270  0.7854
  176SAPI    C220000   0.748   2.704   6.939  0.6974 -0.2454  0.6923
  176SAPI    HS20001   0.841   2.762   6.958  0.6436 -0.3711  1.3513
  176SAPI   O2120002   0.741   2.566   6.979 -0.5833  0.3223 -0.2178
  176SAPI   C2120003   0.832   2.525   7.075 -0.5158 -0.3673  0.5122
  176SAPI   O2220004   0.903   2.607   7.131 -0.4977 -0.1224  0.0855
  176SAPI   C2220005   0.813   2.374   7.117 -0.0377  0.6412  0.9415
  176SAPI   H2R20006   0.735   2.367   7.195 -1.7091  0.1011 -0.7521
  176SAPI   H2S20007   0.780   2.321   7.025 -0.8071  0.6721  1.1993
  176SAPI    C320008   0.629   2.783   7.013  0.0322  0.1425 -0.2529
  176SAPI    HX20009   0.532   2.757   6.966  0.0534  0.1323 -0.2914
  176SAPI    HY20010   0.636   2.890   6.985  1.9701  0.3829  1.0719
  176SAPI   O3120011   0.625   2.763   7.157 -0.0323 -0.9828 -0.6200
  176SAPI   C3120012   0.711   2.824   7.233 -0.3450  0.2497 -0.1032
  176SAPI   O3220013   0.779   2.925   7.203 -0.4653  0.5747  0.5943
  176SAPI   C3220014   0.701   2.758   7.366 -0.4389  0.3795 -0.3702
  176SAPI   H2X20015   0.701   2.647   7.352  1.3060  0.4450 -0.9144
  176SAPI   H2Y20016   0.600   2.775   7.410 -0.8564 -0.3765 -1.0129
  176SAPI   C2320017   0.950   2.325   7.173 -0.1710 -0.0830 -0.0678
  176SAPI   H3R20018   0.970   2.353   7.279 -1.6875 -0.4753  0.3286
  176SAPI   H3S20019   1.039   2.354   7.113  0.6605 -1.0565  0.6851
  176SAPI   C2420020   0.950   2.167   7.177 -0.4807 -0.8780 -0.3395
  176SAPI   H4R20021   0.902   2.130   7.084 -1.2194 -3.4316  1.0003
  176SAPI   H4S20022   0.885   2.150   7.266  1.2156  0.8567  1.2575
  176SAPI   C2520023   1.088   2.108   7.202  0.0595  0.1340  0.1975
  176SAPI   H5R20024   1.149   2.090   7.113 -1.3839  0.2387 -0.8361
  176SAPI   C2620025   1.134   2.088   7.326 -0.7740 -0.5005 -0.2083
  176SAPI   H6R20026   1.230   2.034   7.320  0.6618  1.8202  1.3467
  176SAPI   C2720027   1.070   2.115   7.460 -0.3622 -0.2501  0.8634
  176SAPI   H7R20028   1.100   2.041   7.536  0.5791 -0.7700 -0.0088
  176SAPI   H7S20029   0.962   2.089   7.457  0.0629 -2.0133  0.4643
  176SAPI   C2820030   1.094   2.249   7.528 -0.3444  0.4730 -0.4975
  176SAPI   H8R20031   1.146   2.314   7.457  0.1492 -1.1955 -1.7086
  176SAPI   C2920032   1.067   2.288   7.660 -1.0537 -0.4053 -0.3866
  176SAPI   H9R20033   1.081   2.395   7.679  0.6227 -0.0311 -3.4707
  176SAPI  C21020034   0.992   2.215   7.770 -0.6718 -0.7765  0.0072
  176SAPI  H10R20035   0.987   2.108   7.743 -0.1244 -0.6391 -0.6770
  176SAPI  H10S20036   0.887   2.250   7.776 -1.1614 -2.2370  0.1257
  176SAPI  C21120037   1.053   2.210   7.911  0.1724 -0.1648 -0.2096
  176SAPI  H11R20038   1.149   2.156   7.915  0.7307  0.8436  0.2826
  176SAPI  C21220039   1.004   2.265   8.023 -0.3570 -0.0362 -0.2454
  176SAPI  H12R20040   1.048   2.228   8.117 -0.8879  0.6543  0.2756
  176SAPI  C21320041   0.878   2.355   8.039  0.3567  0.4093  1.2073
  176SAPI  H13R20042   0.793   2.317   7.980  0.2146  3.2803 -0.5456
  176SAPI  H13S20043   0.885   2.449   7.979 -0.8086  0.1225  0.6024
  176SAPI  C21420044   0.832   2.381   8.182  0.2728 -0.2938 -0.0715
  176SAPI  H14R20045   0.893   2.453   8.240  0.5320 -0.5548 -0.0168
  176SAPI  C21520046   0.739   2.315   8.256 -0.7234 -0.5115  0.7191
  176SAPI  H15R20047   0.709   2.347   8.357 -1.6153  1.2156 -0.0786
  176SAPI  C21620048   0.648   2.202   8.215 -0.4536 -0.2636  0.3996
  176SAPI  H16R20049   0.699   2.104   8.231  0.8413  0.1565 -1.0780
  176SAPI  H16S20050   0.639   2.193   8.104  0.4940 -1.1776  0.3877
  176SAPI  C21720051   0.504   2.204   8.274 -0.6390  0.1404  0.3732
  176SAPI  H17R20052   0.468   2.309   8.268 -1.1725 -0.0288  0.6155
  176SAPI  H17S20053   0.504   2.185   8.383  0.1305  2.2652  0.7732
  176SAPI  C21820054   0.410   2.102   8.215  0.1624 -0.0392  0.0937
  176SAPI  H18R20055   0.449   1.999   8.232  0.6050 -0.1303 -1.4280
  176SAPI  H18S20056   0.418   2.106   8.105  1.3995  0.0261  0.1869
  176SAPI  C21920057   0.265   2.099   8.273 -0.2140 -0.3195  0.7152
  176SAPI  H19R20058   0.217   2.020   8.211  2.8554 -1.2234 -0.5792
  176SAPI  H19S20059   0.213   2.194   8.249 -0.4316 -1.2508 -2.7154
  176SAPI  C22020060   0.258   2.059   8.418  0.0090 -0.1308  0.5028
  176SAPI  H20R20061   0.153   2.035   8.447 -0.4492  2.7888  1.3610
  176SAPI  H20S20062   0.288   2.134   8.494  0.7017 -1.8485  1.9729
  176SAPI  H20T20063   0.317   1.966   8.434  2.1943  0.8209 -1.7755
  176SAPI   C3320064   0.812   2.785   7.467  0.0189  0.6441 -0.8779
  176SAPI   H3X20065   0.818   2.893   7.491 -0.6320  1.1017 -2.6506
  176SAPI   H3Y20066   0.905   2.759   7.412  1.2044  0.8152  1.0276
  176SAPI   C3420067   0.797   2.712   7.599 -0.2034  0.1177  0.3097
  176SAPI   H4X20068   0.786   2.602   7.587 -0.9742  0.2627 -0.3995
  176SAPI   H4Y20069   0.708   2.755   7.651  0.3776  0.2633  1.1841
  176SAPI   C3520070   0.923   2.749   7.682  0.3750  0.0193 -0.4223
  176SAPI   H5X20071   0.915   2.858   7.701 -1.2291 -0.1797  0.1745
  176SAPI   H5Y20072   1.016   2.712   7.635 -0.0346 -3.7687  1.4699
  176SAPI   C3620073   0.912   2.692   7.824  0.4291  0.5575  0.2501
  176SAPI   H6X20074   0.876   2.586   7.819  0.3011  0.6222 -0.2546
  176SAPI   H6Y20075   0.834   2.740   7.887  0.7459 -0.7453  1.6817
  176SAPI   C3720076   1.053   2.697   7.887  0.5369  0.5810  0.3989
  176SAPI   H7X20077   1.123   2.655   7.811 -2.7074 -0.0546 -2.4032
  176SAPI   H7Y20078   1.048   2.646   7.985 -1.7521 -0.8084 -0.3833
  176SAPI   C3820079   1.097   2.846   7.910  0.4824 -0.7270  0.0951
  176SAPI   H8X20080   1.115   2.900   7.815  0.5665  2.1523  1.7121
  176SAPI   H8Y20081   1.195   2.848   7.963 -0.2475  0.6518  1.4018
  176SAPI   C3920082   0.998   2.937   7.990  0.4234  0.6031  0.7081
  176SAPI   H9X20083   0.891   2.917   7.965  1.0997 -0.5120 -1.3338
  176SAPI   H9Y20084   1.021   3.040   7.956  1.8386 -0.2238 -0.8655
  176SAPI  C31020085   1.022   2.931   8.147  0.2812  0.0696 -0.1923
  176SAPI  H10X20086   1.131   2.919   8.167  0.1652  0.1894  0.5077
  176SAPI  H10Y20087   0.968   2.842   8.184 -0.5029  1.0466  1.0198
  176SAPI  C31120088   0.984   3.066   8.221 -0.3106  0.6024 -0.6706
  176SAPI  H11X20089   0.874   3.077   8.226 -0.2458  0.5344  1.6696
  176SAPI  H11Y20090   1.042   3.148   8.173  1.6343 -1.0156 -1.1714
  176SAPI  C31220091   1.036   3.056   8.367 -0.5455  0.0311  0.2664
  176SAPI  H12X20092   1.147   3.067   8.363 -0.4845 -0.0369  1.7279
  176SAPI  H12Y20093   1.014   2.955   8.406  0.1087 -0.0252  0.5037
  176SAPI  C31320094   0.989   3.171   8.457  0.3990 -0.1450 -0.1735
  176SAPI  H13X20095   1.017   3.153   8.563  0.9445 -0.0084 -0.2930
  176SAPI  H13Y20096   0.878   3.180   8.453  0.2957 -1.7854 -1.9542
  176SAPI  C31420097   1.051   3.308   8.405 -0.4569 -0.4751  0.0416
  176SAPI  H14X20098   1.034   3.339   8.300 -0.0482 -0.2062  0.0505
  176SAPI  H14Y20099   1.160   3.304   8.427 -0.0046 -0.3097 -2.0506
  176SAPI  C31520100   0.992   3.419   8.498 -0.3336 -0.7414 -0.2805
  176SAPI  H15X20101   1.013   3.392   8.604 -0.3630 -0.3059 -0.1616
  176SAPI  H15Y20102   0.881   3.418   8.495 -0.3839  1.6417 -0.3583
  176SAPI  C31620103   1.033   3.571   8.479  0.1296  0.3967  0.2379
  176SAPI  H16X20104   0.987   3.629   8.561 -1.4364 -1.4534  0.7248
  176SAPI  H16Y20105   0.984   3.597   8.383  1.2776  0.2390 -0.3951
  176SAPI  C31720106   1.185   3.585   8.460 -0.5003  0.3887 -0.5627
  176SAPI  H17X20107   1.186   3.696   8.451 -0.0508  0.3041 -1.6961
  176SAPI  H17Y20108   1.228   3.549   8.364  1.2058  3.3216 -0.9509
  176SAPI  C31820109   1.259   3.549   8.589  0.3120 -0.3035  0.2194
  176SAPI  H18X20110   1.193   3.574   8.675  0.7470 -3.0604  1.4103
  176SAPI  H18Y20111   1.353   3.602   8.613 -0.4311  1.1911 -0.0850
  176SAPI  H18Z20112   1.271   3.439   8.601  1.8778 -0.0464  1.0410
  177SLPC     N20113   1.099   6.607  11.187 -0.2952 -0.4249  0.4300
  177SLPC   C1320114   1.143   6.472  11.242 -0.2330 -0.2545  0.1746
  177SLPC  H13A20115   1.156   6.478  11.349 -3.2100 -1.9707  0.6998
  177SLPC  H13B20116   1.077   6.387  11.228  0.8018 -0.5326 -3.3174
  177SLPC  H13C20117   1.239   6.453  11.196 -0.3040  0.5669 -0.3182
  177SLPC   C1420118   1.169   6.719  11.252 -0.3282 -0.4668  0.7225
  177SLPC  H14A20119   1.273   6.713  11.225  0.1555 -0.4236  2.4970
  177SLPC  H14B20120   1.122   6.812  11.221  1.1700  0.2163  0.4410
  177SLPC  H14C20121   1.155   6.716  11.359  1.6075 -0.1868  0.9973
  177SLPC   C1520122   0.960   6.629  11.220  0.0561 -0.0609 -0.7405
  177SLPC  H15A20123   0.901   6.559  11.163 -1.8178  1.9530 -1.3555
  177SLPC  H15B20124   0.938   6.625  11.325 -0.4694 -1.7750 -0.9030
  177SLPC  H15C20125   0.931   6.730  11.192 -1.9076 -0.7890 -1.3799
  177SLPC   C1220126   1.129   6.609  11.034 -0.3613  0.3184 -0.7788
  177SLPC  H12A20127   1.236   6.605  11.020 -0.1349 -0.0708  0.9673
  177SLPC  H12B20128   1.099   6.703  10.990  0.0976  1.2508  0.8598
  177SLPC   C1120129   1.068   6.499  10.941  0.5130 -0.2777 -0.0076
  177SLPC  H11A20130   1.099   6.398  10.975 -2.1230 -0.8194  0.8768
  177SLPC  H11B20131   1.120   6.518  10.845  2.3373  1.3084  1.2490
  177SLPC     P20132   0.867   6.610  10.842  0.1021 -0.3106  0.0823
  177SLPC   O1320133   0.732   6.642  10.902  0.4617  0.1807  0.1521
  177SLPC   O1420134   0.950   6.732  10.836 -0.2343 -0.6152 -0.0589
  177SLPC   O1220135   0.929   6.509  10.934 -0.2686 -0.1467  0.4591
  177SLPC   O1120136   0.844   6.552  10.694  0.0978  0.3007  0.5134
  177SLPC    C120137   0.882   6.418  10.664  0.1636 -0.5003 -0.6497
  177SLPC    HA20138   0.989   6.393  10.679  0.1022  0.4586  1.6599
  177SLPC    HB20139   0.833   6.336  10.720  0.5959 -1.3469 -1.4965
  177SLPC    C220140   0.849   6.384  10.516  0.1632 -0.0601 -0.1864
  177SLPC    HS20141   0.894   6.283  10.505  1.9727  0.8986 -1.9097
  177SLPC   O2120142   0.892   6.486  10.421 -0.3757 -0.9687  0.0908
  177SLPC   C2120143   0.929   6.429  10.304  0.0189 -0.6751  0.3442
  177SLPC   O2220144   0.944   6.313  10.283 -0.5067 -0.1695 -0.5465
  177SLPC   C2220145   0.950   6.536  10.212 -1.0656  0.3046  0.5571
  177SLPC   H2R20146   0.884   6.622  10.233 -1.9207 -0.5013  1.2208
  177SLPC   H2S20147   1.045   6.587  10.242 -2.3912  2.1107  1.7817
  177SLPC    C320148   0.697   6.377  10.497  0.2112 -0.1173 -0.6851
  177SLPC    HX20149   0.659   6.480  10.510 -0.0474  0.0535 -2.5568
  177SLPC    HY20150   0.654   6.312  10.576  1.5339 -0.5562 -0.3141
  177SLPC   O3120151   0.663   6.333  10.365  0.3472 -0.5694 -0.0935
  177SLPC   C3120152   0.663   6.201  10.343  0.4499  0.0124  0.1915
  177SLPC   O3220153   0.701   6.113  10.419  0.5636  0.2407  0.2752
  177SLPC   C3220154   0.615   6.170  10.201 -0.2798 -0.3404 -0.3317
  177SLPC   H2X20155   0.580   6.260  10.146 -2.1891 -0.7217  0.2122
  177SLPC   H2Y20156   0.525   6.104  10.206  1.1129 -2.3161 -0.5690
  177SLPC   C2320157   0.957   6.510  10.062 -0.4873  0.2736  0.1075
  177SLPC   H3R20158   0.868   6.449  10.032  0.6019 -0.6977 -1.1768
  177SLPC   H3S20159   1.044   6.442  10.052  0.0300  0.5032  2.7536
  177SLPC   C2420160   0.958   6.643   9.981 -0.3263 -0.2262  0.1086
  177SLPC   H4R20161   1.040   6.704  10.026  0.3808 -1.4132  0.4462
  177SLPC   H4S20162   0.869   6.704  10.006 -0.7150 -0.8013  0.1198
  177SLPC   C2520163   0.970   6.614   9.832  1.1211 -0.0668  0.1882
  177SLPC   H5R20164   0.880   6.559   9.798  0.1821 -0.0307  2.5524
  177SLPC   H5S20165   1.051   6.542   9.807 -1.2725 -3.6198  2.3121
  177SLPC   C2620166   0.978   6.746   9.761  0.7100  0.3665  0.0851
  177SLPC   H6R20167   1.000   6.721   9.655 -0.1797 -2.2111  0.4894
  177SLPC   H6S20168   1.064   6.807   9.797 -0.9844  3.5016 -0.9809
  177SLPC   C2720169   0.864   6.845   9.775  0.0465 -0.3235 -0.5615
  177SLPC   H7R20170   0.898   6.917   9.853 -1.1088 -1.3899  0.9434
  177SLPC   H7S20171   0.769   6.806   9.819  0.0684 -3.3833 -3.0790
  177SLPC   C2820172   0.815   6.930   9.650  0.2107  0.3938  0.5714
  177SLPC   H8R20173   0.738   7.003   9.684 -0.6757 -0.4372  0.3985
  177SLPC   H8S20174   0.764   6.856   9.584  0.2075  2.1742 -1.4554
  177SLPC   C2920175   0.927   6.996   9.575  0.2770  0.0959  0.5884
  177SLPC   H9R20176   1.013   7.009   9.643  0.2585  0.7818  0.4894
  177SLPC  C21020177   0.944   7.036   9.447  0.5966  0.1332  0.4573
  177SLPC  H10R20178   1.036   7.095   9.434  1.1076 -0.7770 -0.0455
  177SLPC  C21120179   0.849   7.032   9.335 -0.4766 -0.2354  0.2425
  177SLPC  H11R20180   0.760   6.990   9.385  1.4313 -1.1767  3.0211
  177SLPC  H11S20181   0.821   7.131   9.293  0.9165 -0.0293 -0.2342
  177SLPC  C21220182   0.900   6.944   9.222 -0.2145  0.3389 -0.0194
  177SLPC  H12R20183   0.956   6.855   9.255 -0.3012  0.3988  0.2884
  177SLPC  C21320184   0.870   6.947   9.089 -0.0203 -0.0168  0.2225
  177SLPC  H13R20185   0.922   6.877   9.021 -1.2045 -0.5590 -0.1308
  177SLPC  C21420186   0.781   7.047   9.020  0.1831 -0.3994 -0.2887
  177SLPC  H14R20187   0.716   7.121   9.070  0.4795  0.4774 -1.1763
  177SLPC  H14S20188   0.708   6.999   8.951 -1.0334  0.8324  0.1213
  177SLPC  C21520189   0.863   7.124   8.917  0.7418 -0.2766 -0.3996
  177SLPC  H15R20190   0.918   7.204   8.970 -0.2487 -0.3381  0.7355
  177SLPC  H15S20191   0.797   7.176   8.844 -1.1424 -2.3101 -0.2142
  177SLPC  C21620192   0.941   7.036   8.827  0.2547  0.8454  0.8333
  177SLPC  H16R20193   1.026   6.991   8.884  2.7661  3.6611 -0.5725
  177SLPC  H16S20194   0.982   7.100   8.746  0.2783  1.2000  1.1220
  177SLPC  C21720195   0.860   6.935   8.745  0.2840  0.8423 -0.6168
  177SLPC  H17R20196   0.779   6.991   8.694 -1.5094  0.5044  1.7498
  177SLPC  H17S20197   0.812   6.864   8.816  0.5268  0.1133 -1.1812
  177SLPC  C21820198   0.942   6.860   8.643 -0.3793 -0.0826 -0.4341
  177SLPC  H18R20199   0.891   6.835   8.548 -0.9139  3.7729 -1.2284
  177SLPC  H18S20200   0.989   6.767   8.681  1.1839  1.0445  0.4130
  177SLPC  H18T20201   1.026   6.925   8.612 -0.5152  0.8293  1.0716
  177SLPC   C3320202   0.733   6.100  10.125 -0.4100  0.4597 -0.0984
  177SLPC   H3X20203   0.733   5.994  10.156  0.4028  0.5300  0.1555
  177SLPC   H3Y20204   0.831   6.132  10.165 -0.0403 -0.6551 -0.1106
  177SLPC   C3420205   0.724   6.114   9.976  0.4387 -0.2012  0.7441
  177SLPC   H4X20206   0.616   6.101   9.954  0.0912  0.6141  1.9645
  177SLPC   H4Y20207   0.778   6.029   9.929 -0.5960 -1.8585  2.4767
  177SLPC   C3520208   0.786   6.241   9.919 -0.6097 -0.4883  0.3730
  177SLPC   H5X20209   0.892   6.235   9.951 -0.6546 -1.0871  0.4046
  177SLPC   H5Y20210   0.734   6.329   9.963  0.4944  0.3630  0.0126
  177SLPC   C3620211   0.774   6.270   9.768 -0.5304 -0.1756  0.0718
  177SLPC   H6X20212   0.808   6.371   9.734  0.5655 -0.8211 -0.7916
  177SLPC   H6Y20213   0.668   6.267   9.734 -0.6888 -1.0423  0.6299
  177SLPC   C3720214   0.849   6.162   9.685 -0.2723 -0.3432  0.2358
  177SLPC   H7X20215   0.803   6.062   9.701 -2.7019  0.8687  1.1437
  177SLPC   H7Y20216   0.954   6.162   9.720 -0.3604  0.4333  0.4901
  177SLPC   C3820217   0.858   6.195   9.538  1.1952  0.4502  0.0749
  177SLPC   H8X20218   0.935   6.275   9.533  0.7136  0.7751 -3.2307
  177SLPC   H8Y20219   0.762   6.240   9.506  0.1166 -2.4313 -0.9115
  177SLPC   C3920220   0.904   6.080   9.446  0.2446 -0.8354 -0.3599
  177SLPC   H9X20221   0.850   5.992   9.487 -0.9172 -0.5176 -1.1653
  177SLPC   H9Y20222   1.013   6.064   9.461  0.1029 -1.8120 -0.3335
  177SLPC  C31020223   0.874   6.109   9.293 -0.0619  0.2296  0.2959
  177SLPC  H10X20224   0.925   6.034   9.229  0.5560  1.5256 -0.7654
  177SLPC  H10Y20225   0.926   6.205   9.273  0.5236  0.5836  3.2379
  177SLPC  C31120226   0.728   6.126   9.262  0.3016  0.3704 -0.3913
  177SLPC  H11X20227   0.699   6.229   9.290  1.8305  0.9099 -0.7523
  177SLPC  H11Y20228   0.667   6.058   9.326 -0.3021  0.6810 -0.6318
  177SLPC  C31220229   0.689   6.084   9.127  0.9621  0.7927 -0.1307
  177SLPC  H12X20230   0.580   6.105   9.127  0.2581 -2.5319 -0.9854
  177SLPC  H12Y20231   0.721   5.980   9.103 -1.9134  0.0317 -0.8544
  177SLPC  C31320232   0.739   6.179   9.017 -0.3964 -0.2851 -0.5197
  177SLPC  H13X20233   0.842   6.211   9.043 -1.3400  0.4052  2.5860
  177SLPC  H13Y20234   0.667   6.263   9.018  0.5100  0.5213 -1.7436
  177SLPC  C31420235   0.724   6.104   8.884 -0.2506 -0.3979 -0.4058
  177SLPC  H14X20236   0.622   6.063   8.876 -0.3638  0.1684 -2.0153
  177SLPC  H14Y20237   0.781   6.009   8.893 -0.5919 -0.5872 -0.2413
  177SLPC  C31520238   0.764   6.175   8.749  0.7246 -0.4307 -0.3434
  177SLPC  H15X20239   0.723   6.278   8.751 -1.0574 -1.1138 -0.6030
  177SLPC  H15Y20240   0.712   6.125   8.665 -2.5805  0.0255  1.3516
  177SLPC  C31620241   0.916   6.199   8.729 -0.1463  0.1712 -0.0002
  177SLPC  H16X20242   0.961   6.103   8.761 -2.3233 -0.4338  1.3958
  177SLPC  H16Y20243   0.958   6.283   8.788  1.5922 -0.0732 -0.8631
  177SLPC  C31720244   0.946   6.216   8.575 -0.1632 -0.0562  0.5490
  177SLPC  H17X20245   0.880   6.298   8.537 -0.0639  0.0699  0.6472
  177SLPC  H17Y20246   0.914   6.121   8.527 -0.8463  0.1239  0.6378
  177SLPC  C31820247   1.092   6.256   8.560  0.0898  0.4226  0.0016
  177SLPC  H18X20248   1.121   6.349   8.615  2.1814  0.3428 -0.9360
  177SLPC  H18Y20249   1.114   6.278   8.454  0.3863  2.2136  0.4134
  177SLPC  H18Z20250   1.159   6.174   8.593 -1.6574 -1.8112 -1.8460
  178SLPC     N20251   2.722   1.465  10.827  0.0755  0.2710  0.0815
  178SLPC   C1320252   2.576   1.499  10.812 -0.8870 -0.2988  0.4336
  178SLPC  H13A20253   2.549   1.510  10.708 -0.4899  1.4979  0.4979
  178SLPC  H13B20254   2.508   1.429  10.857 -2.3877  1.3333  0.7903
  178SLPC  H13C20255   2.551   1.597  10.850 -0.8035 -0.3234  0.5519
  178SLPC   C1420256   2.751   1.333  10.768  0.6707 -1.0497 -0.3567
  178SLPC  H14A20257   2.858   1.320  10.774  0.6746 -0.4824  0.9125
  178SLPC  H14B20258   2.698   1.254  10.820 -2.0805  1.3606  0.6338
  178SLPC  H14C20259   2.716   1.333  10.666  0.4891  1.6123 -0.3453
  178SLPC   C1520260   2.750   1.450  10.978  0.5867 -0.5702  0.5319
  178SLPC  H15A20261   2.841   1.395  11.000 -0.2539 -0.9415  3.2457
  178SLPC  H15B20262   2.767   1.548  11.021  2.9855 -0.7499  0.0800
  178SLPC  H15C20263   2.668   1.404  11.030 -0.8945  0.5923 -0.7452
  178SLPC   C1220264   2.809   1.572  10.760  0.7376  0.6169  0.0937
  178SLPC  H12A20265   2.798   1.562  10.653  0.2163  1.7033  0.0454
  178SLPC  H12B20266   2.907   1.534  10.786 -0.3519 -2.4852 -0.1263
  178SLPC   C1120267   2.797   1.713  10.813 -0.5894 -0.2639  0.0742
  178SLPC  H11A20268   2.884   1.756  10.758 -0.5426  1.6188  1.5746
  178SLPC  H11B20269   2.824   1.712  10.921  1.6498  2.4589 -0.3758
  178SLPC     P20270   2.600   1.860  10.879  0.0021  0.2832  0.4824
  178SLPC   O1320271   2.524   1.767  10.964 -0.6769  0.1358 -0.3193
  178SLPC   O1420272   2.690   1.949  10.952  0.2411  0.1405 -0.1287
  178SLPC   O1220273   2.673   1.772  10.769 -0.3155 -0.0918  0.1529
  178SLPC   O1120274   2.512   1.947  10.782 -0.4389 -0.0492  0.0366
  178SLPC    C120275   2.393   1.901  10.723  0.0892  0.3976 -0.6324
  178SLPC    HA20276   2.324   1.872  10.805  0.7165 -1.3363 -0.7094
  178SLPC    HB20277   2.345   1.994  10.686  1.0554  1.4369  0.6782
  178SLPC    C220278   2.395   1.791  10.618 -0.2048  1.0200  0.9020
  178SLPC    HS20279   2.467   1.714  10.652 -1.0657 -0.5084 -0.6906
  178SLPC   O2120280   2.435   1.845  10.488 -0.2293 -0.3514 -0.0679
  178SLPC   C2120281   2.515   1.775  10.407 -0.0513  0.1835 -1.1169
  178SLPC   O2220282   2.541   1.656  10.422 -0.3386 -0.3252  0.3368
  178SLPC   C2220283   2.562   1.866  10.300 -0.1681 -0.4356  0.0510
  178SLPC   H2R20284   2.485   1.903  10.229 -0.8311 -1.6698  0.1255
  178SLPC   H2S20285   2.606   1.949  10.360  0.2593 -1.2278  0.8379
  178SLPC    C320286   2.250   1.732  10.606 -0.2518  0.0242 -0.5175
  178SLPC    HX20287   2.192   1.820  10.570  0.9145 -0.4220 -3.7309
  178SLPC    HY20288   2.206   1.693  10.700  0.4350 -0.7329 -0.5066
  178SLPC   O3120289   2.227   1.639  10.500  0.8628  0.0743  0.0034
  178SLPC   C3120290   2.283   1.524  10.518  0.1194  0.0398  0.3302
  178SLPC   O3220291   2.350   1.496  10.619  0.7423 -0.0651  0.3002
  178SLPC   C3220292   2.277   1.435  10.397 -0.5099 -0.3082 -0.3363
  178SLPC   H2X20293   2.173   1.441  10.360 -1.1585 -0.7996  1.3368
  178SLPC   H2Y20294   2.297   1.330  10.427 -2.5159 -0.4705  0.4901
  178SLPC   C2320295   2.676   1.803  10.207 -0.3906 -0.1108 -0.1703
  178SLPC   H3R20296   2.749   1.770  10.284  0.3789  1.0913 -0.3559
  178SLPC   H3S20297   2.742   1.872  10.149 -0.7506  1.8605  1.6833
  178SLPC   C2420298   2.636   1.688  10.111  0.2685 -0.4204  0.9249
  178SLPC   H4R20299   2.623   1.597  10.173  2.7446 -2.2690 -1.1402
  178SLPC   H4S20300   2.724   1.670  10.045 -0.0302  0.1073  0.3823
  178SLPC   C2520301   2.505   1.702  10.037  0.1962  0.2744 -0.2638
  178SLPC   H5R20302   2.419   1.715  10.106  1.1113  1.8808  0.6062
  178SLPC   H5S20303   2.485   1.616   9.970 -0.2704  0.1100  0.0853
  178SLPC   C2620304   2.505   1.827   9.938  0.2464  0.1589 -0.3372
  178SLPC   H6R20305   2.605   1.847   9.896  0.0877  2.9849  0.5284
  178SLPC   H6S20306   2.488   1.917  10.002  1.9184 -0.3442  0.8543
  178SLPC   C2720307   2.393   1.812   9.831 -0.0248  0.0286 -0.1644
  178SLPC   H7R20308   2.371   1.914   9.792 -1.0272 -0.9037 -2.0333
  178SLPC   H7S20309   2.306   1.768   9.883 -1.6500 -0.3564 -3.1394
  178SLPC   C2820310   2.444   1.739   9.710  0.1612  0.7699  1.2592
  178SLPC   H8R20311   2.478   1.642   9.755 -1.5315 -0.2357  0.4060
  178SLPC   H8S20312   2.533   1.795   9.676  0.1082 -0.5125 -1.1194
  178SLPC   C2920313   2.356   1.697   9.598 -0.2745  0.2304  0.2704
  178SLPC   H9R20314   2.253   1.679   9.631 -0.1641  1.0690  1.0805
  178SLPC  C21020315   2.387   1.696   9.472 -0.0878 -0.1367  0.6578
  178SLPC  H10R20316   2.309   1.662   9.402  0.5954 -2.3702  0.9483
  178SLPC  C21120317   2.521   1.728   9.410 -0.2844  0.0443 -0.8499
  178SLPC  H11R20318   2.611   1.723   9.475 -1.2910  0.0748  0.5716
  178SLPC  H11S20319   2.519   1.832   9.372 -1.4378 -0.0847 -1.1644
  178SLPC  C21220320   2.541   1.634   9.295 -0.3156 -0.0763  0.3827
  178SLPC  H12R20321   2.532   1.527   9.317 -0.1669  0.0176  0.9309
  178SLPC  C21320322   2.554   1.673   9.164 -0.1337  0.3631 -0.5681
  178SLPC  H13R20323   2.579   1.600   9.086  0.5010 -1.1184  0.9793
  178SLPC  C21420324   2.562   1.815   9.112  0.4984 -0.5221  0.9061
  178SLPC  H14R20325   2.655   1.818   9.052 -1.6974 -2.3542 -2.7310
  178SLPC  H14S20326   2.559   1.890   9.195 -1.9130 -0.6968  1.0253
  178SLPC  C21520327   2.447   1.865   9.014  0.5297  0.2152 -0.1944
  178SLPC  H15R20328   2.471   1.970   8.986 -1.7433  0.5996 -0.7860
  178SLPC  H15S20329   2.350   1.869   9.067  2.4988  0.5960  3.5341
  178SLPC  C21620330   2.418   1.782   8.894 -0.1521  0.3128 -0.2187
  178SLPC  H16R20331   2.380   1.687   8.935  1.2829 -0.4232 -0.5629
  178SLPC  H16S20332   2.508   1.766   8.831 -0.2720 -0.8118 -0.1027
  178SLPC  C21720333   2.309   1.832   8.792 -0.5738 -0.0919 -0.3732
  178SLPC  H17R20334   2.344   1.932   8.758  0.7935 -0.2171  0.6466
  178SLPC  H17S20335   2.219   1.840   8.856 -0.1612  0.2352  0.1669
  178SLPC  C21820336   2.291   1.736   8.678  1.1487 -0.2455 -0.2211
  178SLPC  H18R20337   2.210   1.766   8.608  1.0619 -1.2280 -0.5607
  178SLPC  H18S20338   2.267   1.634   8.715 -0.6045 -0.8007 -2.7347
  178SLPC  H18T20339   2.384   1.728   8.618  0.2159  0.4829 -1.7943
  178SLPC   C3320340   2.374   1.462  10.278  0.6637  0.4499  1.2376
  178SLPC   H3X20341   2.479   1.445  10.309  0.3461  2.8797  3.9021
  178SLPC   H3Y20342   2.366   1.573  10.270 -3.4911  0.0436 -1.4963
  178SLPC   C3420343   2.344   1.381  10.149  0.6934  0.9136  1.2235
  178SLPC   H4X20344   2.335   1.274  10.175 -1.6352  1.1426  1.5379
  178SLPC   H4Y20345   2.431   1.377  10.080  1.0695  0.5451  1.7235
  178SLPC   C3520346   2.232   1.437  10.055 -0.1953 -0.6040 -0.4219
  178SLPC   H5X20347   2.256   1.542  10.029  0.6905 -0.4907  0.8381
  178SLPC   H5Y20348   2.136   1.445  10.111  0.5243 -1.3291  0.9331
  178SLPC   C3620349   2.210   1.366   9.921  0.1378  0.0811 -0.4977
  178SLPC   H6X20350   2.163   1.265   9.925  2.1321 -0.8832 -0.9120
  178SLPC   H6Y20351   2.310   1.360   9.873 -0.3798  1.6153 -1.8068
  178SLPC   C3720352   2.140   1.447   9.815 -0.0580 -0.1828  0.5197
  178SLPC   H7X20353   2.202   1.537   9.794 -0.4022  0.0839  0.6262
  178SLPC   H7Y20354   2.046   1.484   9.861  0.0360 -2.3501  2.5033
  178SLPC   C3820355   2.118   1.363   9.683 -0.6239 -0.3278 -0.9159
  178SLPC   H8X20356   2.056   1.422   9.612 -0.0466  2.4276  0.7991
  178SLPC   H8Y20357   2.067   1.265   9.697  0.6703 -0.7179  1.2936
  178SLPC   C3920358   2.259   1.337   9.609  0.1952 -0.3259 -0.2088
  178SLPC   H9X20359   2.309   1.251   9.658 -0.7014  0.6837  2.6063
  178SLPC   H9Y20360   2.326   1.424   9.623  1.0746 -1.0266 -0.0019
  178SLPC  C31020361   2.242   1.321   9.463  0.1716  0.0315  0.4222
  178SLPC  H10X20362   2.203   1.418   9.425  0.0544 -0.1056  0.1854
  178SLPC  H10Y20363   2.176   1.234   9.442 -1.0032  1.3040 -1.3289
  178SLPC  C31120364   2.372   1.280   9.387  0.0754  0.3836  0.2025
  178SLPC  H11X20365   2.404   1.181   9.426 -1.6915 -0.9045 -1.5737
  178SLPC  H11Y20366   2.452   1.357   9.399 -0.0142  0.5521 -0.2730
  178SLPC  C31220367   2.354   1.271   9.239 -0.7648 -0.0095  0.5940
  178SLPC  H12X20368   2.321   1.372   9.205  0.3637  0.4674  0.9096
  178SLPC  H12Y20369   2.274   1.199   9.211  0.0541 -1.7976  2.7194
  178SLPC  C31320370   2.475   1.220   9.157 -0.2284 -0.2464 -0.1933
  178SLPC  H13X20371   2.530   1.139   9.211  0.1897 -1.0772 -1.8140
  178SLPC  H13Y20372   2.545   1.306   9.152 -0.8297  0.1621 -1.6879
  178SLPC  C31420373   2.435   1.171   9.020 -0.0684  0.1206 -0.2848
  178SLPC  H14X20374   2.339   1.220   8.992 -1.0764 -1.1023  0.8897
  178SLPC  H14Y20375   2.406   1.064   9.037  2.5985 -0.4018  1.1785
  178SLPC  C31520376   2.541   1.191   8.916  0.2612 -0.2494  0.1591
  178SLPC  H15X20377   2.555   1.301   8.905  1.6595 -0.4502 -0.1429
  178SLPC  H15Y20378   2.639   1.143   8.939  0.5315  0.4452  0.4670
  178SLPC  C31620379   2.493   1.131   8.786  0.6587 -0.2356 -0.5262
  178SLPC  H16X20380   2.396   1.184   8.777  0.2467 -1.1346 -1.4646
  178SLPC  H16Y20381   2.457   1.027   8.804  0.6998 -0.5098 -1.9806
  178SLPC  C31720382   2.579   1.154   8.658 -0.0976  0.7344  0.5751
  178SLPC  H17X20383   2.678   1.109   8.682  0.3322  0.9889 -0.6470
  178SLPC  H17Y20384   2.603   1.259   8.633  2.5566  0.0507  0.0582
  178SLPC  C31820385   2.519   1.090   8.533  0.4958  0.2913 -0.2054
  178SLPC  H18X20386   2.444   1.011   8.552 -0.1950  0.7576 -0.9781
  178SLPC  H18Y20387   2.601   1.040   8.477  2.0710  1.5906  0.9152
  178SLPC  H18Z20388   2.477   1.174   8.474 -1.7737  0.9834  2.3209
  179SLPC     N20389   4.566   4.348  10.783  0.0040  0.2452 -0.1520
  179SLPC   C1320390   4.468   4.363  10.898  1.2746 -0.5097 -0.0460
  179SLPC  H13A20391   4.451   4.469  10.915  0.7317 -0.5738 -0.1765
  179SLPC  H13B20392   4.380   4.300  10.892 -0.0175  1.4416 -2.6252
  179SLPC  H13C20393   4.514   4.334  10.991 -2.4990  0.9009  2.4098
  179SLPC   C1420394   4.603   4.202  10.777  0.6354 -0.2108 -0.4677
  179SLPC  H14A20395   4.515   4.141  10.787  1.8178 -1.8620  0.0123
  179SLPC  H14B20396   4.640   4.167  10.681 -0.6409  2.5267 -2.0199
  179SLPC  H14C20397   4.673   4.174  10.854  0.9371 -0.2692 -0.7616
  179SLPC   C1520398   4.691   4.433  10.791 -0.3552 -0.6304 -0.0957
  179SLPC  H15A20399   4.754   4.405  10.709  2.7503 -3.3918  3.0437
  179SLPC  H15B20400   4.673   4.539  10.794 -3.1291 -1.0760  0.4445
  179SLPC  H15C20401   4.759   4.412  10.873  1.5489  2.1245 -0.9301
  179SLPC   C1220402   4.492   4.385  10.646 -0.2461  0.1341 -0.7560
  179SLPC  H12A20403   4.489   4.492  10.635 -0.7341  0.1696 -0.3093
  179SLPC  H12B20404   4.391   4.346  10.653 -0.5675  0.6333 -2.3839
  179SLPC   C1120405   4.547   4.328  10.514  0.1546 -0.2897  0.5525
  179SLPC  H11A20406   4.475   4.341  10.431 -1.5206  1.6652  2.2487
  179SLPC  H11B20407   4.568   4.219  10.517 -1.1216 -0.5450  0.5133
  179SLPC     P20408   4.647   4.561  10.431 -0.3438 -0.2162 -0.2242
  179SLPC   O1320409   4.531   4.630  10.486 -0.3625 -0.0988 -0.5047
  179SLPC   O1420410   4.778   4.631  10.430  0.6819 -0.0778 -0.0396
  179SLPC   O1220411   4.664   4.411  10.488  0.1770 -0.7361  0.6315
  179SLPC   O1120412   4.630   4.524  10.278  0.3414  0.0434 -0.0487
  179SLPC    C120413   4.503   4.525  10.211 -0.7794 -0.1007 -0.2017
  179SLPC    HA20414   4.455   4.426  10.225  2.5272 -1.6437  0.8552
  179SLPC    HB20415   4.443   4.612  10.245 -1.9696 -1.1054  0.3007
  179SLPC    C220416   4.505   4.545  10.054 -0.0314  0.1315  0.4656
  179SLPC    HS20417   4.397   4.555  10.028  0.3668  1.0793 -0.8847
  179SLPC   O2120418   4.578   4.438   9.983  0.1402  0.4120  0.5391
  179SLPC   C2120419   4.541   4.422   9.862 -0.3860 -0.8536  0.4231
  179SLPC   O2220420   4.445   4.470   9.801 -0.1703 -0.4166 -0.8531
  179SLPC   C2220421   4.638   4.324   9.796  0.2239 -0.1074 -0.1962
  179SLPC   H2R20422   4.733   4.381   9.783  0.3885 -0.1848  0.6289
  179SLPC   H2S20423   4.650   4.247   9.875  1.0211 -1.8125 -1.9577
  179SLPC    C320424   4.562   4.676  10.039 -0.0355 -0.4793 -0.2215
  179SLPC    HX20425   4.663   4.661  10.082 -0.0702  1.7607  0.7454
  179SLPC    HY20426   4.521   4.755  10.106 -0.1415  0.6381 -1.5738
  179SLPC   O3120427   4.574   4.716   9.900 -0.6423  0.0521 -0.0643
  179SLPC   C3120428   4.463   4.766   9.849 -0.1212 -0.4309 -0.8073
  179SLPC   O3220429   4.360   4.777   9.913 -0.4139 -0.2931  0.7800
  179SLPC   C3220430   4.478   4.805   9.697  0.0624 -0.6059 -0.9223
  179SLPC   H2X20431   4.581   4.784   9.660  0.0212 -1.7972 -0.3737
  179SLPC   H2Y20432   4.457   4.914   9.690 -4.0296 -1.3057 -0.4898
  179SLPC   C2320433   4.590   4.255   9.668  0.3942  0.2826  0.3698
  179SLPC   H3R20434   4.482   4.230   9.667  0.4832 -0.1017 -0.1875
  179SLPC   H3S20435   4.649   4.161   9.661  0.6132  0.5252 -1.3122
  179SLPC   C2420436   4.617   4.332   9.539 -0.0615  0.3182 -0.0686
  179SLPC   H4R20437   4.723   4.359   9.518  0.4377 -2.5735 -1.6079
  179SLPC   H4S20438   4.542   4.414   9.542 -0.5362 -0.1526  0.9341
  179SLPC   C2520439   4.573   4.250   9.422 -0.7477  0.6314  0.1710
  179SLPC   H5R20440   4.467   4.217   9.420 -0.2386 -1.2978  2.4307
  179SLPC   H5S20441   4.633   4.157   9.434 -1.4586  0.5781  3.7965
  179SLPC   C2620442   4.624   4.306   9.282  0.2184  0.8391 -0.1194
  179SLPC   H6R20443   4.612   4.217   9.217  0.6102 -0.2538  1.3064
  179SLPC   H6S20444   4.733   4.327   9.289  0.2239  0.6605  0.3574
  179SLPC   C2720445   4.537   4.420   9.219 -0.2719  0.0793  0.2138
  179SLPC   H7R20446   4.564   4.508   9.282  2.2120 -0.8679  0.5063
  179SLPC   H7S20447   4.429   4.398   9.232  0.0573 -1.7458 -0.0156
  179SLPC   C2820448   4.562   4.424   9.065 -0.4615  0.4049 -0.1279
  179SLPC   H8R20449   4.479   4.476   9.012  0.1377  1.3533 -0.1542
  179SLPC   H8S20450   4.550   4.323   9.020 -1.0534  1.0894 -1.5475
  179SLPC   C2920451   4.694   4.492   9.028  0.5669  0.5517 -0.4285
  179SLPC   H9R20452   4.728   4.574   9.093  1.8261 -2.3368  2.7008
  179SLPC  C21020453   4.770   4.462   8.924  0.1630 -0.7270 -0.1768
  179SLPC  H10R20454   4.861   4.524   8.914 -0.3554  0.1468  0.5325
  179SLPC  C21120455   4.745   4.355   8.817 -0.3404  0.0570  0.5004
  179SLPC  H11R20456   4.639   4.326   8.802 -0.7053  0.8182  1.5384
  179SLPC  H11S20457   4.791   4.261   8.854 -1.0529 -0.6943 -0.4907
  179SLPC  C21220458   4.817   4.403   8.692 -0.2279 -0.1375  0.0124
  179SLPC  H12R20459   4.921   4.368   8.688 -0.1300  0.2652 -1.1497
  179SLPC  C21320460   4.765   4.445   8.579  0.2077  0.4653 -1.0222
  179SLPC  H13R20461   4.834   4.490   8.506  0.2423 -0.9084 -1.8435
  179SLPC  C21420462   4.618   4.466   8.548 -0.2828  0.1439  0.7468
  179SLPC  H14R20463   4.540   4.394   8.582  0.1039  0.2940  1.9900
  179SLPC  H14S20464   4.612   4.466   8.437 -3.2911  0.3239  0.8697
  179SLPC  C21520465   4.570   4.609   8.595 -0.0101 -0.4655 -0.3498
  179SLPC  H15R20466   4.536   4.612   8.701  2.9446  1.7172  0.6157
  179SLPC  H15S20467   4.471   4.622   8.547 -0.4268  1.3705  0.9685
  179SLPC  C21620468   4.667   4.729   8.567 -0.2808  0.2031  0.6606
  179SLPC  H16R20469   4.697   4.709   8.461 -3.0343 -0.3260 -0.0676
  179SLPC  H16S20470   4.760   4.709   8.624 -0.3969 -2.6669 -0.0698
  179SLPC  C21720471   4.609   4.864   8.580 -0.2851 -0.7134  0.3471
  179SLPC  H17R20472   4.577   4.889   8.684  1.4160  0.0418  0.7058
  179SLPC  H17S20473   4.526   4.873   8.507  0.8987  1.5097 -0.7874
  179SLPC  C21820474   4.707   4.978   8.544  0.2148 -0.8609  0.0054
  179SLPC  H18R20475   4.729   4.980   8.436  0.5453  1.0261  0.1017
  179SLPC  H18S20476   4.802   4.954   8.597 -1.4698 -2.6475  2.3847
  179SLPC  H18T20477   4.672   5.078   8.577  0.6199 -0.8548  0.4204
  179SLPC   C3320478   4.379   4.740   9.590  0.6716  0.8658  0.1015
  179SLPC   H3X20479   4.277   4.775   9.617 -0.2897 -0.1484 -2.0663
  179SLPC   H3Y20480   4.381   4.630   9.607 -2.1824  0.8843  0.7954
  179SLPC   C3420481   4.407   4.778   9.446 -0.8484 -0.3616 -0.3141
  179SLPC   H4X20482   4.508   4.732   9.432  0.3355  2.0334  0.1930
  179SLPC   H4Y20483   4.402   4.887   9.427 -2.9635 -0.4491 -0.3794
  179SLPC   C3520484   4.304   4.705   9.357 -0.7816  0.3728 -0.4703
  179SLPC   H5X20485   4.198   4.719   9.384 -1.0753  1.0006 -1.9088
  179SLPC   H5Y20486   4.315   4.594   9.354 -1.9637  0.2355  0.0596
  179SLPC   C3620487   4.311   4.743   9.212 -0.3463  0.5507 -0.4155
  179SLPC   H6X20488   4.408   4.704   9.175  1.1967  3.4572  0.3949
  179SLPC   H6Y20489   4.312   4.852   9.191  2.4919  0.9173  1.3838
  179SLPC   C3720490   4.197   4.672   9.136 -0.8164  0.0833 -0.3904
  179SLPC   H7X20491   4.095   4.685   9.178 -0.1693  1.5267  0.7688
  179SLPC   H7Y20492   4.217   4.566   9.161 -2.2104  0.2583  1.5390
  179SLPC   C3820493   4.196   4.710   8.989 -0.1892 -1.2304 -0.0956
  179SLPC   H8X20494   4.119   4.641   8.950 -2.0346  1.8767 -2.1446
  179SLPC   H8Y20495   4.294   4.694   8.940  1.1123  0.0648  1.9981
  179SLPC   C3920496   4.150   4.858   8.965 -0.0652  0.5884  0.7951
  179SLPC   H9X20497   4.232   4.924   8.999  0.3889  0.1317  0.5853
  179SLPC   H9Y20498   4.057   4.873   9.024 -0.5382  0.4497  0.0881
  179SLPC  C31020499   4.112   4.891   8.817  0.6776 -0.5510 -0.2696
  179SLPC  H10X20500   4.059   4.805   8.772 -0.0531 -1.1001  1.6332
  179SLPC  H10Y20501   4.207   4.913   8.762  0.1933  2.6995  0.0496
  179SLPC  C31120502   4.030   5.020   8.804  0.6109  0.7600  0.0025
  179SLPC  H11X20503   4.082   5.101   8.860 -0.1664  1.2111  0.0903
  179SLPC  H11Y20504   3.928   5.004   8.846  1.8252 -0.5078  2.5482
  179SLPC  C31220505   4.019   5.089   8.670 -0.1166  0.4577 -0.1215
  179SLPC  H12X20506   3.965   5.029   8.593  1.5991 -1.5506  0.1878
  179SLPC  H12Y20507   4.115   5.112   8.618 -1.2508 -0.5830 -2.7681
  179SLPC  C31320508   3.948   5.227   8.692 -0.7724  0.6137 -0.1492
  179SLPC  H13X20509   4.005   5.287   8.766 -0.4729 -0.0014  0.1245
  179SLPC  H13Y20510   3.849   5.203   8.737 -0.3433  0.3698  0.6745
  179SLPC  C31420511   3.931   5.292   8.559 -0.6979  0.3675 -0.5628
  179SLPC  H14X20512   3.843   5.243   8.513 -0.7675  0.1363 -0.1910
  179SLPC  H14Y20513   4.025   5.282   8.501 -0.5820 -1.7684 -0.0352
  179SLPC  C31520514   3.891   5.436   8.589  0.4428  0.2050  1.2576
  179SLPC  H15X20515   3.988   5.485   8.613  0.0117  1.3732  0.6118
  179SLPC  H15Y20516   3.831   5.441   8.682 -0.2448  2.9219  0.6999
  179SLPC  C31620517   3.812   5.507   8.481 -0.8077 -0.3997 -0.3002
  179SLPC  H16X20518   3.836   5.465   8.381 -0.5104  0.5009 -0.6164
  179SLPC  H16Y20519   3.843   5.614   8.479 -0.4826 -0.4573  0.9463
  179SLPC  C31720520   3.665   5.500   8.505  0.3519 -0.3269  0.8692
  179SLPC  H17X20521   3.627   5.591   8.454  0.5471 -0.5205  0.3671
  179SLPC  H17Y20522   3.636   5.490   8.611 -0.0124  1.8341  0.9774
  179SLPC  C31820523   3.609   5.380   8.427  0.3122  0.1874 -0.0437
  179SLPC  H18X20524   3.646   5.364   8.323 -2.3468  1.0432 -1.1645
  179SLPC  H18Y20525   3.498   5.387   8.430  0.2477 -0.5607 -0.4815
  179SLPC  H18Z20526   3.630   5.285   8.480  0.1155 -1.7429 -3.2634
  180SLPC     N20527   4.620   2.441  11.145 -0.7751 -0.3414  0.2702
  180SLPC   C1320528   4.593   2.580  11.204 -0.1977 -0.0697  0.2947
  180SLPC  H13A20529   4.533   2.576  11.294 -0.0814 -0.5404  0.3491
  180SLPC  H13B20530   4.684   2.629  11.236 -0.6090  0.9280 -0.0223
  180SLPC  H13C20531   4.543   2.640  11.129 -2.1564 -0.0412  1.5523
  180SLPC   C1420532   4.496   2.352  11.127 -0.5908  0.2516 -0.1833
  180SLPC  H14A20533   4.444   2.396  11.043  1.4153  1.1764 -0.9633
  180SLPC  H14B20534   4.520   2.249  11.104 -1.5731 -0.4000  1.5646
  180SLPC  H14C20535   4.427   2.348  11.211  0.2028  0.4120  0.4851
  180SLPC   C1520536   4.703   2.382  11.253 -0.2226  0.8155  0.0568
  180SLPC  H15A20537   4.735   2.280  11.235  0.2927  0.4290  2.8832
  180SLPC  H15B20538   4.788   2.446  11.267  1.6326 -0.9925 -2.5158
  180SLPC  H15C20539   4.652   2.378  11.348  1.3204 -0.1368  0.8538
  180SLPC   C1220540   4.686   2.449  11.015  0.1972  0.1108 -0.2097
  180SLPC  H12A20541   4.723   2.349  10.995  0.2688  0.5784 -2.5696
  180SLPC  H12B20542   4.775   2.507  11.036  0.6378 -0.9742  0.9922
  180SLPC   C1120543   4.602   2.505  10.893 -0.1460 -0.2390 -0.3468
  180SLPC  H11A20544   4.673   2.564  10.833  1.4479 -1.8831 -0.1186
  180SLPC  H11B20545   4.522   2.573  10.931  0.3679  0.9543 -1.3709
  180SLPC     P20546   4.591   2.274  10.773  0.2784 -0.0414  0.1942
  180SLPC   O1320547   4.576   2.179  10.890 -0.0742 -0.7938 -0.4785
  180SLPC   O1420548   4.525   2.231  10.647 -0.4699  0.1486  0.3891
  180SLPC   O1220549   4.524   2.410  10.823  0.5004  0.2796  0.0422
  180SLPC   O1120550   4.746   2.321  10.762 -0.3783  0.5916  0.0280
  180SLPC    C120551   4.855   2.228  10.769 -0.2776 -0.3217  0.3158
  180SLPC    HA20552   4.921   2.250  10.856 -1.9535 -1.6746  1.9809
  180SLPC    HB20553   4.826   2.122  10.784  0.0504 -0.4110  0.3207
  180SLPC    C220554   4.933   2.233  10.634  0.3725 -0.0419  0.4899
  180SLPC    HS20555   4.971   2.337  10.645 -0.7748  0.4100  0.2303
  180SLPC   O2120556   4.838   2.194  10.533  0.2587 -0.0235  0.9614
  180SLPC   C2120557   4.850   2.269  10.426  0.1039 -0.5788  0.1539
  180SLPC   O2220558   4.924   2.367  10.413 -0.7821  0.2673 -0.3740
  180SLPC   C2220559   4.747   2.217  10.323  0.5047  0.1559  0.4511
  180SLPC   H2R20560   4.740   2.106  10.320 -0.1452  0.2426 -3.0719
  180SLPC   H2S20561   4.643   2.250  10.347  0.0941 -1.1433  0.4807
  180SLPC    C320562   5.059   2.141  10.625 -0.9255  0.9761  1.0796
  180SLPC    HX20563   5.027   2.036  10.645  1.8553 -0.7298 -2.7502
  180SLPC    HY20564   5.117   2.161  10.717  0.6962  0.7587  0.1175
  180SLPC   O3120565   5.122   2.147  10.496 -0.1555 -0.0141  0.3388
  180SLPC   C3120566   5.216   2.237  10.490 -0.6375 -0.1540  0.3320
  180SLPC   O3220567   5.253   2.308  10.583 -0.0279  0.0900  0.2300
  180SLPC   C3220568   5.268   2.234  10.344  0.7225  0.4117  0.4191
  180SLPC   H2X20569   5.285   2.126  10.325 -2.4392  0.0741 -0.7864
  180SLPC   H2Y20570   5.363   2.289  10.356  2.3774 -2.5935  1.5353
  180SLPC   C2320571   4.780   2.252  10.177  0.4709 -0.1845  0.2234
  180SLPC   H3R20572   4.716   2.184  10.116  0.3502  0.6007 -0.5295
  180SLPC   H3S20573   4.886   2.241  10.145  0.2865 -2.5342  0.3712
  180SLPC   C2420574   4.756   2.401  10.151  0.0632  0.5705 -0.2457
  180SLPC   H4R20575   4.806   2.467  10.225  0.5127  0.6765 -0.6390
  180SLPC   H4S20576   4.646   2.416  10.157 -0.1118 -0.2943 -1.2543
  180SLPC   C2520577   4.806   2.456  10.014  0.1813 -0.0318  0.0928
  180SLPC   H5R20578   4.755   2.397   9.934  0.6847 -1.5554  0.8817
  180SLPC   H5S20579   4.916   2.442  10.014  0.3292  0.9774  2.7342
  180SLPC   C2620580   4.771   2.607  10.001  0.0219  1.3690 -0.3730
  180SLPC   H6R20581   4.797   2.650  10.100  0.7037 -0.0967  0.0984
  180SLPC   H6S20582   4.660   2.600   9.998  0.1298 -0.0347 -1.3336
  180SLPC   C2720583   4.830   2.688   9.885  0.2031  0.0068 -0.1982
  180SLPC   H7R20584   4.939   2.682   9.905 -0.0376 -0.0730  1.0915
  180SLPC   H7S20585   4.797   2.793   9.903  1.0762 -0.0055  1.5403
  180SLPC   C2820586   4.806   2.618   9.750  1.0997  0.3635  0.4136
  180SLPC   H8R20587   4.699   2.588   9.751  1.1232  0.2158 -1.1279
  180SLPC   H8S20588   4.860   2.521   9.751  0.2110 -0.1452  0.0462
  180SLPC   C2920589   4.870   2.686   9.632  0.3859 -0.2327  1.1595
  180SLPC   H9R20590   4.974   2.717   9.646  0.7053 -0.6125 -0.3596
  180SLPC  C21020591   4.803   2.710   9.515 -0.0222 -0.2766  0.2505
  180SLPC  H10R20592   4.857   2.759   9.433  0.9745 -0.7199  0.6348
  180SLPC  C21120593   4.663   2.671   9.482  0.2473  0.6900 -0.3070
  180SLPC  H11R20594   4.620   2.635   9.578  2.5490  0.5073  0.6814
  180SLPC  H11S20595   4.660   2.587   9.409  3.2415  0.6345 -0.4033
  180SLPC  C21220596   4.583   2.793   9.444  0.4320 -0.0342  0.2283
  180SLPC  H12R20597   4.566   2.872   9.519  1.4906  0.4085  0.0247
  180SLPC  C21320598   4.510   2.817   9.334 -0.1353 -0.1999 -0.5604
  180SLPC  H13R20599   4.463   2.916   9.335 -0.3898 -0.3261  1.4301
  180SLPC  C21420600   4.489   2.738   9.208 -0.4318 -0.5078 -0.3318
  180SLPC  H14R20601   4.532   2.637   9.224 -0.4748 -0.3486  0.8549
  180SLPC  H14S20602   4.532   2.788   9.119 -0.3102  0.8799  0.4861
  180SLPC  C21520603   4.342   2.719   9.150  0.3088  0.4563  0.3441
  180SLPC  H15R20604   4.299   2.808   9.099 -2.1834 -0.8822  0.0357
  180SLPC  H15S20605   4.272   2.694   9.232  1.2119  0.1174  1.0176
  180SLPC  C21620606   4.338   2.610   9.043 -0.0034 -0.1130 -0.5011
  180SLPC  H16R20607   4.388   2.516   9.074  0.9453  0.1126 -1.3316
  180SLPC  H16S20608   4.390   2.650   8.953 -0.6650 -0.2030 -0.9349
  180SLPC  C21720609   4.194   2.586   8.981 -0.2366  1.0123  0.0885
  180SLPC  H17R20610   4.141   2.675   8.941 -0.5282  1.2469  0.9862
  180SLPC  H17S20611   4.134   2.537   9.060  0.5962 -1.3623 -0.7012
  180SLPC  C21820612   4.203   2.490   8.857  0.4388 -0.4659 -0.2669
  180SLPC  H18R20613   4.102   2.476   8.813  0.4294 -4.5993  0.8669
  180SLPC  H18S20614   4.231   2.393   8.903  1.6053  0.5152  1.1605
  180SLPC  H18T20615   4.275   2.534   8.785  0.1685 -1.0377 -0.8863
  180SLPC   C3320616   5.178   2.290  10.236 -0.0410 -0.4546  0.1935
  180SLPC   H3X20617   5.143   2.389  10.269 -0.9362 -0.7479  0.1276
  180SLPC   H3Y20618   5.088   2.231  10.211  1.1523 -1.9131 -0.8163
  180SLPC   C3420619   5.262   2.316  10.112 -0.3098 -0.1632 -0.3904
  180SLPC   H4X20620   5.331   2.233  10.089  0.6527  1.0629 -2.0434
  180SLPC   H4Y20621   5.320   2.410  10.125  0.2982 -0.4575 -0.9363
  180SLPC   C3520622   5.178   2.335   9.990  0.2350  0.7491  0.3346
  180SLPC   H5X20623   5.118   2.427  10.009 -0.1206  0.6330 -0.2131
  180SLPC   H5Y20624   5.111   2.247   9.987  1.8806 -0.4560 -1.1683
  180SLPC   C3620625   5.265   2.344   9.865  0.5027 -0.2566  0.0999
  180SLPC   H6X20626   5.330   2.254   9.859  0.9690  0.1853 -2.0671
  180SLPC   H6Y20627   5.329   2.432   9.884 -0.4374  0.7070 -1.1428
  180SLPC   C3720628   5.191   2.367   9.735 -0.1246 -0.0429  0.0914
  180SLPC   H7X20629   5.132   2.459   9.756 -0.0341 -0.0618  0.4291
  180SLPC   H7Y20630   5.121   2.284   9.709  1.5577 -1.8605  1.2303
  180SLPC   C3820631   5.289   2.388   9.615 -0.1804  0.8038 -0.1369
  180SLPC   H8X20632   5.351   2.296   9.602  0.8305  1.6680 -1.6223
  180SLPC   H8Y20633   5.360   2.468   9.646  0.8822  0.0939 -0.7078
  180SLPC   C3920634   5.231   2.433   9.480  0.5168  0.4026 -0.7368
  180SLPC   H9X20635   5.202   2.540   9.479 -1.8306 -0.2274 -2.1504
  180SLPC   H9Y20636   5.159   2.361   9.437  3.3481 -1.9100 -1.8109
  180SLPC  C31020637   5.333   2.417   9.367 -0.2183 -0.4756 -0.3705
  180SLPC  H10X20638   5.379   2.317   9.379  0.6723 -0.0993 -0.6157
  180SLPC  H10Y20639   5.407   2.498   9.384  0.9588 -2.0433  2.2034
  180SLPC  C31120640   5.274   2.433   9.226 -0.4154  0.2546 -0.3634
  180SLPC  H11X20641   5.225   2.533   9.230  1.3208  1.1063  0.1421
  180SLPC  H11Y20642   5.186   2.369   9.203 -1.8703  2.0546  0.1052
  180SLPC  C31220643   5.385   2.400   9.132  0.4647 -0.2100  0.1006
  180SLPC  H12X20644   5.434   2.302   9.148  0.1103 -0.0198  2.5698
  180SLPC  H12Y20645   5.468   2.473   9.142  0.5591 -0.0571 -1.5482
  180SLPC  C31320646   5.332   2.405   8.985 -0.2462 -0.2268 -0.1123
  180SLPC  H13X20647   5.238   2.346   8.993  0.0909 -0.4853  2.4254
  180SLPC  H13Y20648   5.417   2.356   8.933 -0.3777 -0.8609  0.2605
  180SLPC  C31420649   5.281   2.540   8.925  0.0848 -0.1659  0.1849
  180SLPC  H14X20650   5.366   2.607   8.900 -0.1604 -0.4945 -1.6435
  180SLPC  H14Y20651   5.232   2.596   9.007  3.1954  0.2978  1.8008
  180SLPC  C31520652   5.199   2.522   8.798 -0.4243 -0.1845 -0.0488
  180SLPC  H15X20653   5.113   2.455   8.819 -0.1235 -0.0958  1.5038
  180SLPC  H15Y20654   5.260   2.476   8.717  0.2097 -0.3324  0.5060
  180SLPC  C31620655   5.147   2.651   8.731  0.4059 -0.4517  0.5561
  180SLPC  H16X20656   5.236   2.710   8.699 -0.0757 -0.6474 -1.1931
  180SLPC  H16Y20657   5.080   2.696   8.807 -1.2469 -1.9395  0.0028
  180SLPC  C31720658   5.065   2.614   8.611 -0.2349  0.4246  0.6948
  180SLPC  H17X20659   5.016   2.516   8.630 -0.4583  0.5172  0.6000
  180SLPC  H17Y20660   5.125   2.582   8.523  1.4062 -0.9619  2.2816
  180SLPC  C31820661   4.964   2.726   8.572 -0.2945  0.3308 -0.1745
  180SLPC  H18X20662   5.022   2.817   8.543  0.6619 -0.3529 -0.4115
  180SLPC  H18Y20663   4.910   2.752   8.665 -3.5558 -1.0774 -1.6096
  180SLPC  H18Z20664   4.901   2.692   8.487 -0.6343 -1.2045  0.6836
  181SLPC     N20665   1.753   6.217  11.108  0.2266  0.0698  0.4478
  181SLPC   C1320666   1.888   6.257  11.075 -0.4415 -0.2617 -0.1695
  181SLPC  H13A20667   1.928   6.184  11.005 -3.0052 -0.2150 -1.7672
  181SLPC  H13B20668   1.899   6.355  11.031 -0.7768 -0.2825 -0.2989
  181SLPC  H13C20669   1.956   6.260  11.158 -2.7658  0.8998  1.7460
  181SLPC   C1420670   1.690   6.321  11.199  0.3230  0.2217  0.2343
  181SLPC  H14A20671   1.595   6.279  11.229  0.9584 -0.0848  1.8379
  181SLPC  H14B20672   1.749   6.341  11.287  0.0791 -0.5455  0.5705
  181SLPC  H14C20673   1.678   6.414  11.144 -0.1042  0.3812  0.5940
  181SLPC   C1520674   1.751   6.086  11.179  0.1897 -0.3877 -0.6448
  181SLPC  H15A20675   1.805   6.101  11.271  0.3523 -0.8407 -0.6634
  181SLPC  H15B20676   1.651   6.052  11.204  0.8859 -1.5632  0.6263
  181SLPC  H15C20677   1.804   6.005  11.132  0.2265 -0.9675  0.3734
  181SLPC   C1220678   1.663   6.196  10.986 -0.1200 -0.0232 -0.1521
  181SLPC  H12A20679   1.561   6.175  11.015 -0.2358  1.5477  0.6604
  181SLPC  H12B20680   1.696   6.106  10.936  1.2428 -0.2808  1.1536
  181SLPC   C1120681   1.644   6.317  10.892 -0.4230  0.1086 -0.0725
  181SLPC  H11A20682   1.568   6.294  10.814 -0.0339 -1.4003 -0.0314
  181SLPC  H11B20683   1.736   6.318  10.828 -0.1686 -0.5421  0.2685
  181SLPC     P20684   1.701   6.576  10.919  0.0535  0.6541  0.0105
  181SLPC   O1320685   1.604   6.687  10.900  0.6926  0.3131 -0.3734
  181SLPC   O1420686   1.810   6.593  11.019 -0.1492  0.5148  0.3403
  181SLPC   O1220687   1.617   6.446  10.952 -0.1434  0.4839 -0.3028
  181SLPC   O1120688   1.776   6.556  10.784  0.0984 -0.1123 -0.5883
  181SLPC    C120689   1.695   6.566  10.665  0.2660  0.5823 -0.3381
  181SLPC    HA20690   1.731   6.490  10.592  0.5724  0.8060 -0.4191
  181SLPC    HB20691   1.590   6.533  10.683  1.4128 -2.2784  1.3168
  181SLPC    C220692   1.708   6.709  10.596  0.5469  0.5155 -0.6921
  181SLPC    HS20693   1.637   6.781  10.642  0.4049 -0.3457  0.4628
  181SLPC   O2120694   1.685   6.692  10.462  0.4460  0.0490  0.2852
  181SLPC   C2120695   1.556   6.698  10.415  0.3757  0.9742 -0.2489
  181SLPC   O2220696   1.461   6.715  10.488  0.5022  0.5630 -0.0278
  181SLPC   C2220697   1.555   6.661  10.264  0.5688  0.2501 -0.2745
  181SLPC   H2R20698   1.622   6.724  10.203 -0.0250  0.6060 -0.5575
  181SLPC   H2S20699   1.571   6.551  10.262  1.0955  0.2393  2.3221
  181SLPC    C320700   1.853   6.765  10.619 -0.2534 -1.2159  0.6689
  181SLPC    HX20701   1.927   6.691  10.581  1.3603  0.0967  1.1706
  181SLPC    HY20702   1.870   6.778  10.728 -0.7681  0.3662  0.5810
  181SLPC   O3120703   1.874   6.889  10.548 -0.2512 -0.0687 -0.2657
  181SLPC   C3120704   1.817   6.994  10.599  0.3832  0.0162  0.7140
  181SLPC   O3220705   1.750   6.999  10.702  0.2927  0.1580 -0.2824
  181SLPC   C3220706   1.859   7.116  10.517 -0.0815  0.1086 -0.1947
  181SLPC   H2X20707   1.934   7.178  10.570 -0.0080  0.0086 -0.1823
  181SLPC   H2Y20708   1.773   7.183  10.493 -0.7750  0.1908  2.3806
  181SLPC   C2320709   1.410   6.685  10.212 -0.1763  0.0801 -0.1656
  181SLPC   H3R20710   1.402   6.794  10.197 -0.4186 -0.1757 -1.9575
  181SLPC   H3S20711   1.336   6.658  10.290 -0.2954 -1.0445 -0.6528
  181SLPC   C2420712   1.384   6.594  10.091  0.2600 -0.1973 -0.6330
  181SLPC   H4R20713   1.274   6.580  10.085 -0.1549  0.9194  2.9751
  181SLPC   H4S20714   1.427   6.494  10.111  1.2006 -0.1406 -2.3251
  181SLPC   C2520715   1.441   6.629   9.950  1.1844 -0.5617  0.3493
  181SLPC   H5R20716   1.551   6.638   9.941  1.0211  1.1738 -0.1881
  181SLPC   H5S20717   1.417   6.736   9.934  0.8182 -0.6445  0.3399
  181SLPC   C2620718   1.373   6.548   9.839 -0.2793 -0.5272 -0.0188
  181SLPC   H6R20719   1.262   6.547   9.855 -0.5201  1.0406 -1.4985
  181SLPC   H6S20720   1.406   6.443   9.853  0.1588 -0.6793 -2.0600
  181SLPC   C2720721   1.415   6.590   9.694  0.3297  0.4958 -0.7412
  181SLPC   H7R20722   1.520   6.556   9.682  0.1008 -0.9666  1.0442
  181SLPC   H7S20723   1.407   6.700   9.679 -3.6544  0.2717 -0.8331
  181SLPC   C2820724   1.336   6.509   9.584 -0.3931 -0.2460  0.2605
  181SLPC   H8R20725   1.229   6.524   9.610 -0.4054 -2.8084  1.8733
  181SLPC   H8S20726   1.364   6.405   9.612  0.3134  0.2150  1.2778
  181SLPC   C2920727   1.376   6.537   9.438 -0.4816  0.5098 -0.0884
  181SLPC   H9R20728   1.476   6.508   9.401 -0.7894 -0.3670 -0.2489
  181SLPC  C21020729   1.304   6.594   9.339  0.0264 -0.3311 -0.0101
  181SLPC  H10R20730   1.342   6.594   9.236  0.2162  2.9938  0.0156
  181SLPC  C21120731   1.166   6.640   9.351  0.0188 -0.0770 -0.0374
  181SLPC  H11R20732   1.134   6.677   9.252 -0.0016 -1.4736 -0.5567
  181SLPC  H11S20733   1.152   6.724   9.423 -0.6900 -0.4551  0.2691
  181SLPC  C21220734   1.053   6.553   9.386  0.2074  0.0115 -0.1138
  181SLPC  H12R20735   1.044   6.536   9.495 -0.2789 -3.5040 -0.6408
  181SLPC  C21320736   0.958   6.491   9.310 -0.4907 -0.0939  0.8968
  181SLPC  H13R20737   0.883   6.427   9.359 -0.3406 -2.6980 -2.0886
  181SLPC  C21420738   0.947   6.497   9.159  0.0317  0.6500 -0.2079
  181SLPC  H14R20739   0.970   6.398   9.114  1.3785  0.4590  0.8873
  181SLPC  H14S20740   1.020   6.564   9.110  0.1996 -0.1807 -1.1248
  181SLPC  C21520741   0.812   6.554   9.111  0.6686 -0.2632 -0.3115
  181SLPC  H15R20742   0.805   6.665   9.114  1.1206 -0.1704 -2.2274
  181SLPC  H15S20743   0.732   6.510   9.175 -0.8647  0.1844 -1.9005
  181SLPC  C21620744   0.778   6.532   8.957  0.1472 -1.0550  0.2133
  181SLPC  H16R20745   0.772   6.424   8.932 -1.2125 -0.8151 -0.5318
  181SLPC  H16S20746   0.872   6.570   8.911  0.5113 -1.8165  0.3232
  181SLPC  C21720747   0.661   6.612   8.909 -0.2320 -0.1116 -0.3356
  181SLPC  H17R20748   0.638   6.605   8.801 -2.0304 -1.4908  0.1190
  181SLPC  H17S20749   0.685   6.718   8.935 -0.2672 -0.4419  1.0639
  181SLPC  C21820750   0.530   6.564   8.965 -0.1218 -0.2256  0.7993
  181SLPC  H18R20751   0.449   6.626   8.922  0.2087 -0.0039  0.4955
  181SLPC  H18S20752   0.513   6.561   9.075  0.1236  1.4874  0.8984
  181SLPC  H18T20753   0.505   6.459   8.941 -0.0957  0.4565 -2.3732
  181SLPC   C3320754   1.920   7.079  10.378 -0.2075 -0.1727  0.1668
  181SLPC   H3X20755   2.003   7.006  10.392  0.4418  0.3730 -0.8086
  181SLPC   H3Y20756   1.963   7.173  10.338  2.0294 -1.1772  0.1668
  181SLPC   C3420757   1.822   7.015  10.277  0.3793 -0.5965 -0.1192
  181SLPC   H4X20758   1.734   7.075  10.247  1.3138  0.3702 -0.9937
  181SLPC   H4Y20759   1.771   6.925  10.316 -0.9444  1.8054  4.0634
  181SLPC   C3520760   1.881   6.989  10.140  0.0171  0.1419  0.4593
  181SLPC   H5X20761   1.962   6.913  10.145  1.7000  2.0177  3.0711
  181SLPC   H5Y20762   1.920   7.089  10.111  0.5834 -1.2894 -3.9905
  181SLPC   C3620763   1.782   6.946  10.035 -0.3425 -0.4999  0.3692
  181SLPC   H6X20764   1.697   7.017  10.037  0.9627  1.0636  1.2726
  181SLPC   H6Y20765   1.751   6.841  10.057 -0.3573 -0.5916 -0.0837
  181SLPC   C3720766   1.854   6.948   9.897  0.8594  0.2290 -0.0289
  181SLPC   H7X20767   1.952   6.896   9.900 -0.2963 -1.9406  1.2952
  181SLPC   H7Y20768   1.880   7.051   9.865 -0.3024  0.3006 -0.7630
  181SLPC   C3820769   1.769   6.885   9.783  0.2253  0.4320  0.0614
  181SLPC   H8X20770   1.673   6.939   9.764 -0.6349 -1.0695  0.0405
  181SLPC   H8Y20771   1.737   6.782   9.809  0.7095  0.0535 -0.8313
  181SLPC   C3920772   1.852   6.884   9.651  0.2715 -0.5835 -0.0734
  181SLPC   H9X20773   1.944   6.827   9.675 -0.2521 -1.3422  0.1235
  181SLPC   H9Y20774   1.883   6.986   9.617 -4.9980  1.1518 -0.0189
  181SLPC  C31020775   1.772   6.813   9.539 -0.1336  0.7083  0.3222
  181SLPC  H10X20776   1.671   6.858   9.532 -0.3835 -0.0904 -1.7835
  181SLPC  H10Y20777   1.756   6.713   9.586 -1.8709 -0.8452 -3.3273
  181SLPC  C31120778   1.832   6.801   9.399 -0.0504 -0.0701  0.1285
  181SLPC  H11X20779   1.750   6.770   9.331  2.0577  0.4640 -2.7985
  181SLPC  H11Y20780   1.921   6.735   9.387 -1.6021 -1.7102 -2.8340
  181SLPC  C31220781   1.871   6.939   9.349 -0.3877  0.2753 -0.1810
  181SLPC  H12X20782   1.960   6.975   9.404 -0.4607  0.5541 -0.2441
  181SLPC  H12Y20783   1.792   7.015   9.365 -1.7979 -0.3757 -3.5055
  181SLPC  C31320784   1.919   6.951   9.199 -0.1041 -0.0804  0.7190
  181SLPC  H13X20785   1.973   6.858   9.170 -0.5233 -0.3505  0.7968
  181SLPC  H13Y20786   2.002   7.025   9.194  0.9463 -1.1981  1.0404
  181SLPC  C31420787   1.814   6.986   9.100 -0.5254 -0.6174  0.0800
  181SLPC  H14X20788   1.768   7.083   9.129  1.9323  0.4360  0.5765
  181SLPC  H14Y20789   1.726   6.918   9.105 -1.4944  0.5366 -1.2825
  181SLPC  C31520790   1.861   6.989   8.958 -0.4228  0.0416 -0.9309
  181SLPC  H15X20791   1.943   7.063   8.954 -0.4051  0.2471  2.1618
  181SLPC  H15Y20792   1.776   7.024   8.896 -1.2126 -1.8309 -0.9509
  181SLPC  C31620793   1.913   6.859   8.901  0.1063  0.2133  0.0654
  181SLPC  H16X20794   1.831   6.785   8.915 -2.0098  2.5093  0.1593
  181SLPC  H16Y20795   2.003   6.845   8.963 -1.0048 -1.0354  1.4456
  181SLPC  C31720796   1.966   6.866   8.753  0.1122 -0.0038 -0.4010
  181SLPC  H17X20797   2.032   6.777   8.744  2.4956  1.3242  2.8644
  181SLPC  H17Y20798   2.037   6.949   8.730  1.1760 -0.7649  0.0848
  181SLPC  C31820799   1.843   6.874   8.664  0.7698  0.2131 -0.3004
  181SLPC  H18X20800   1.795   6.975   8.666  1.3725  0.4875  0.5394
  181SLPC  H18Y20801   1.766   6.803   8.701 -0.2623  1.8526  0.7798
  181SLPC  H18Z20802   1.871   6.845   8.561 -2.2161  1.5611 -1.5514
  182SLPC     N20803   0.135   0.770  11.062 -0.1427  0.0935  0.4127
  182SLPC   C1320804   0.247   0.839  10.990  0.0170  0.6021  0.4049
  182SLPC  H13A20805   0.314   0.875  11.066  0.6437  0.0464  0.1248
  182SLPC  H13B20806   0.297   0.781  10.914  1.8222  0.2445  1.8422
  182SLPC  H13C20807   0.208   0.918  10.927  2.6457  0.8463 -1.0029
  182SLPC   C1420808   0.073   0.870  11.161 -0.0203  0.1751 -0.8038
  182SLPC  H14A20809   0.008   0.944  11.118 -1.7009  0.4563  2.0912
  182SLPC  H14B20810   0.017   0.823  11.241  0.6954  1.0920  0.2503
  182SLPC  H14C20811   0.142   0.933  11.215  0.3148  0.1628 -1.2138
  182SLPC   C1520812   0.197   0.658  11.137 -0.4071  0.2539  0.5326
  182SLPC  H15A20813   0.233   0.576  11.076  3.3461 -0.1983  3.1942
  182SLPC  H15B20814   0.282   0.698  11.189 -0.3434 -1.6430  1.9481
  182SLPC  H15C20815   0.134   0.617  11.215 -1.3619 -0.3348 -0.5232
  182SLPC   C1220816   0.035   0.721  10.954  0.4359 -0.9508 -0.3204
  182SLPC  H12A20817  -0.045   0.676  11.012 -1.0660  0.5090 -1.2280
  182SLPC  H12B20818   0.081   0.640  10.900 -2.4662 -1.7673 -1.6693
  182SLPC   C1120819  -0.034   0.825  10.860 -0.2818  0.2970  0.2857
  182SLPC  H11A20820  -0.102   0.765  10.795  0.1010 -0.3062  0.4366
  182SLPC  H11B20821   0.048   0.858  10.793 -0.5781  1.9247  0.7127
  182SLPC     P20822  -0.246   0.942  10.963 -0.0178 -0.1616 -0.0568
  182SLPC   O1320823  -0.316   0.829  10.915 -0.3898 -0.0840 -0.1412
  182SLPC   O1420824  -0.257   0.958  11.110 -0.5557  0.7583  0.4229
  182SLPC   O1220825  -0.092   0.944  10.916 -0.0642 -0.3456 -0.0589
  182SLPC   O1120826  -0.310   1.075  10.892 -0.0175 -0.3895  0.4431
  182SLPC    C120827  -0.298   1.096  10.757 -0.4366  0.2541 -0.4779
  182SLPC    HA20828  -0.304   1.205  10.736 -2.7208  0.7293  2.4584
  182SLPC    HB20829  -0.202   1.057  10.716  0.2085  1.1880  0.1411
  182SLPC    C220830  -0.423   1.037  10.677 -0.4360 -0.5302 -1.4437
  182SLPC    HS20831  -0.506   1.027  10.749  1.1747 -0.7169  0.4372
  182SLPC   O2120832  -0.381   0.910  10.621  0.4072 -0.6235 -0.0823
  182SLPC   C2120833  -0.470   0.814  10.618  0.3370  0.0985 -0.7471
  182SLPC   O2220834  -0.588   0.822  10.650  0.5014 -0.3988  0.2735
  182SLPC   C2220835  -0.408   0.687  10.563 -0.6910 -0.3890  0.6847
  182SLPC   H2R20836  -0.310   0.690  10.614  0.2852 -0.2306 -1.1687
  182SLPC   H2S20837  -0.461   0.600  10.607  0.7038 -1.1853  0.8085
  182SLPC    C320838  -0.463   1.129  10.558 -0.7500  0.4614  0.6278
  182SLPC    HX20839  -0.508   1.221  10.601 -1.1675  0.5243  0.0678
  182SLPC    HY20840  -0.543   1.073  10.504  1.8477 -1.1324 -1.7376
  182SLPC   O3120841  -0.349   1.154  10.472  0.1592 -0.2310  0.4673
  182SLPC   C3120842  -0.353   1.090  10.356  0.1121  0.3447 -1.0587
  182SLPC   O3220843  -0.447   1.021  10.317  0.3390  0.1707 -0.1599
  182SLPC   C3220844  -0.217   1.098  10.290  0.5331  0.1267 -0.0300
  182SLPC   H2X20845  -0.155   1.049  10.368  3.1386  2.3048 -0.6636
  182SLPC   H2Y20846  -0.177   1.202  10.285 -2.6825  1.3573 -1.3915
  182SLPC   C2320847  -0.402   0.676  10.410 -0.1645 -0.1736 -0.1363
  182SLPC   H3R20848  -0.360   0.576  10.384  0.9331 -0.2059  1.7193
  182SLPC   H3S20849  -0.319   0.740  10.374 -1.9581  0.4883 -3.2938
  182SLPC   C2420850  -0.540   0.695  10.342  0.2357  0.5452  0.1619
  182SLPC   H4R20851  -0.568   0.802  10.356  0.4294  0.7532 -0.9701
  182SLPC   H4S20852  -0.617   0.646  10.406 -2.0473  2.9981 -0.5895
  182SLPC   C2520853  -0.550   0.649  10.199  0.9957 -0.7747 -0.0862
  182SLPC   H5R20854  -0.652   0.670  10.160  1.2793  0.1168 -0.3566
  182SLPC   H5S20855  -0.531   0.539  10.194 -1.0197 -1.1421  0.0085
  182SLPC   C2620856  -0.449   0.726  10.117  0.0936 -0.5096 -0.7147
  182SLPC   H6R20857  -0.347   0.686  10.140  0.8186  1.6010 -0.1917
  182SLPC   H6S20858  -0.452   0.832  10.149 -2.0471 -1.2250  1.6797
  182SLPC   C2720859  -0.454   0.710   9.962  0.3097  0.1238 -0.5347
  182SLPC   H7R20860  -0.513   0.618   9.938 -1.6147  1.4176 -0.8899
  182SLPC   H7S20861  -0.348   0.707   9.928  0.9609 -0.3415  1.4941
  182SLPC   C2820862  -0.529   0.824   9.891 -1.1602 -0.4209  0.3223
  182SLPC   H8R20863  -0.491   0.918   9.936  1.8165 -0.5835 -1.7063
  182SLPC   H8S20864  -0.635   0.824   9.925 -0.9710 -0.8380  0.9154
  182SLPC   C2920865  -0.500   0.837   9.745 -0.0934 -0.3454 -0.1806
  182SLPC   H9R20866  -0.482   0.939   9.709  1.6561 -0.1596  1.1531
  182SLPC  C21020867  -0.503   0.742   9.656 -0.1278  0.0380  0.4092
  182SLPC  H10R20868  -0.476   0.768   9.552  1.4394 -1.5751  0.4050
  182SLPC  C21120869  -0.536   0.600   9.661 -0.0911 -0.4715  0.5473
  182SLPC  H11R20870  -0.624   0.582   9.596 -0.2145 -0.5127  0.7248
  182SLPC  H11S20871  -0.567   0.570   9.763 -1.5194 -0.6606  0.0605
  182SLPC  C21220872  -0.435   0.506   9.603 -0.0903 -0.3546  0.2728
  182SLPC  H12R20873  -0.370   0.457   9.677  0.0141  0.3611  0.6621
  182SLPC  C21320874  -0.421   0.465   9.480  0.4686 -0.4617  0.1710
  182SLPC  H13R20875  -0.361   0.376   9.455 -1.7312 -1.9808  0.2084
  182SLPC  C21420876  -0.514   0.511   9.366 -0.5004 -0.5081 -0.0670
  182SLPC  H14R20877  -0.459   0.589   9.310 -0.4046 -0.2669  0.3590
  182SLPC  H14S20878  -0.613   0.549   9.397 -0.8061 -0.3545 -1.2125
  182SLPC  C21520879  -0.545   0.398   9.260 -0.7021  0.7860 -0.2600
  182SLPC  H15R20880  -0.608   0.324   9.314 -0.0162  1.2974  1.2677
  182SLPC  H15S20881  -0.446   0.353   9.235 -0.1534  2.4979 -1.2747
  182SLPC  C21620882  -0.596   0.454   9.130 -0.0077 -0.1332 -0.2274
  182SLPC  H16R20883  -0.521   0.526   9.092 -3.4728  3.3815 -0.7290
  182SLPC  H16S20884  -0.690   0.513   9.143 -1.0185 -1.4231 -1.4363
  182SLPC  C21720885  -0.614   0.347   9.022 -0.0683  0.3039 -1.1711
  182SLPC  H17R20886  -0.698   0.279   9.045  0.7714  0.2654  2.0616
  182SLPC  H17S20887  -0.533   0.271   9.016 -1.4223 -1.2413 -0.1595
  182SLPC  C21820888  -0.626   0.391   8.871  0.3477 -0.1502 -0.4976
  182SLPC  H18R20889  -0.696   0.474   8.849 -0.5881 -0.7064  0.3467
  182SLPC  H18S20890  -0.665   0.310   8.805 -3.5691  0.9569  0.3711
  182SLPC  H18T20891  -0.530   0.429   8.828 -0.1129 -0.3177 -1.7066
  182SLPC   C3320892  -0.204   1.015  10.158  0.5654 -0.2811  0.4827
  182SLPC   H3X20893  -0.269   1.061  10.080 -0.3395 -1.6867  0.4065
  182SLPC   H3Y20894  -0.236   0.911  10.179 -0.7135 -0.2111 -1.0200
  182SLPC   C3420895  -0.058   1.012  10.110 -0.8317  0.3645  0.7026
  182SLPC   H4X20896  -0.004   0.974  10.200 -2.4513 -0.9940  1.1306
  182SLPC   H4Y20897  -0.022   1.114  10.083  0.5457 -1.2294 -4.0769
  182SLPC   C3520898  -0.050   0.913   9.993 -0.3549  0.5417  0.2981
  182SLPC   H5X20899  -0.105   0.820  10.021 -1.0210  0.7625 -0.2905
  182SLPC   H5Y20900   0.059   0.895   9.985 -0.3754  0.4062  0.3183
  182SLPC   C3620901  -0.106   0.965   9.861 -0.6817 -0.0582  1.1900
  182SLPC   H6X20902  -0.055   1.062   9.840 -0.8438 -0.1905  0.1751
  182SLPC   H6Y20903  -0.209   1.004   9.876 -1.1437 -0.4561 -0.8532
  182SLPC   C3720904  -0.084   0.867   9.750  0.4111  0.5803  0.9566
  182SLPC   H7X20905  -0.132   0.772   9.782 -0.2254  0.8911  0.9122
  182SLPC   H7Y20906   0.020   0.843   9.719 -0.2258  0.4211 -1.1433
  182SLPC   C3820907  -0.144   0.909   9.614 -0.4713  0.5668 -0.2829
  182SLPC   H8X20908  -0.094   1.002   9.580  0.4860  0.5321  0.9728
  182SLPC   H8Y20909  -0.253   0.925   9.628 -0.6354 -0.7544  0.0091
  182SLPC   C3920910  -0.109   0.808   9.507  0.3403  0.2894 -0.2954
  182SLPC   H9X20911  -0.145   0.703   9.514 -2.5841  1.2252 -0.7433
  182SLPC   H9Y20912  -0.001   0.783   9.508  0.4456  0.7404 -0.2411
  182SLPC  C31020913  -0.156   0.845   9.364 -0.0941 -0.5156  0.1309
  182SLPC  H10X20914  -0.097   0.932   9.327  0.3756 -0.9877 -0.2521
  182SLPC  H10Y20915  -0.262   0.871   9.382 -0.1882 -1.5589  1.1263
  182SLPC  C31120916  -0.135   0.738   9.260 -0.0738  0.5848  0.3415
  182SLPC  H11X20917  -0.187   0.646   9.294  2.1145 -0.9681 -0.4421
  182SLPC  H11Y20918  -0.026   0.728   9.241  0.1992  3.4606  0.2256
  182SLPC  C31220919  -0.188   0.783   9.120 -0.5562 -0.1087  0.1246
  182SLPC  H12X20920  -0.147   0.885   9.100 -1.1597  0.3802  1.3480
  182SLPC  H12Y20921  -0.297   0.798   9.104 -0.3666 -0.2406 -1.4201
  182SLPC  C31320922  -0.129   0.695   9.005  0.1408 -0.0855  0.0199
  182SLPC  H13X20923  -0.172   0.592   9.006 -0.6485  0.2291  1.8607
  182SLPC  H13Y20924  -0.022   0.675   9.023  0.3720  0.2728 -0.9505
  182SLPC  C31420925  -0.163   0.761   8.867 -0.7502  0.4901 -0.2085
  182SLPC  H14X20926  -0.091   0.843   8.847 -1.2307  0.8320 -0.5502
  182SLPC  H14Y20927  -0.265   0.806   8.871 -0.9571 -0.0325  0.5659
  182SLPC  C31520928  -0.152   0.646   8.764  0.3962 -0.2194 -0.4882
  182SLPC  H15X20929  -0.227   0.564   8.776  0.2083  0.1789  1.1665
  182SLPC  H15Y20930  -0.046   0.614   8.767  1.3034  2.8341  1.0563
  182SLPC  C31620931  -0.178   0.710   8.622  0.2060  0.1110 -0.2336
  182SLPC  H16X20932  -0.154   0.636   8.542  0.2810  0.7831 -0.8436
  182SLPC  H16Y20933  -0.106   0.793   8.603  0.4548  0.0548  0.4736
  182SLPC  C31720934  -0.328   0.754   8.595 -0.6793  0.4715 -0.1016
  182SLPC  H17X20935  -0.315   0.846   8.533  2.6263  0.7062  0.7928
  182SLPC  H17Y20936  -0.365   0.792   8.692 -2.4205  2.6499 -1.5682
  182SLPC  C31820937  -0.415   0.656   8.531  0.1916 -0.3289  0.5681
  182SLPC  H18X20938  -0.515   0.703   8.518  0.5189  0.4242  0.7462
  182SLPC  H18Y20939  -0.430   0.563   8.590 -1.5661 -1.8063 -2.1167
  182SLPC  H18Z20940  -0.377   0.622   8.432 -1.7135 -2.5428  0.5625
  183SLPC     N20941   1.206   2.004  11.108  0.1310 -0.2648 -0.4957
  183SLPC   C1320942   1.268   2.135  11.152  0.4704  0.4612  0.1769
  183SLPC  H13A20943   1.369   2.135  11.113  0.3585 -2.2352 -0.2576
  183SLPC  H13B20944   1.216   2.220  11.112  0.6493  0.7744  0.6010
  183SLPC  H13C20945   1.257   2.153  11.258  0.2087  0.3089  0.1750
  183SLPC   C1420946   1.060   2.022  11.140 -0.2889 -1.0233 -0.1808
  183SLPC  H14A20947   1.047   2.023  11.247 -1.2041  0.4416 -0.2920
  183SLPC  H14B20948   1.021   2.118  11.113 -3.1550 -1.5614  1.8013
  183SLPC  H14C20949   1.004   1.946  11.087 -0.5360 -0.2715 -0.9913
  183SLPC   C1520950   1.265   1.881  11.180  0.2865 -0.4313 -0.5842
  183SLPC  H15A20951   1.368   1.879  11.147  0.1510 -0.4010 -1.0111
  183SLPC  H15B20952   1.284   1.903  11.284  0.7357  0.3958 -0.8354
  183SLPC  H15C20953   1.212   1.789  11.164 -0.9222 -0.3541  2.5837
  183SLPC   C1220954   1.226   1.978  10.958  0.3282 -0.1929  0.4565
  183SLPC  H12A20955   1.158   1.901  10.926  0.1720 -0.3652  1.1963
  183SLPC  H12B20956   1.332   1.958  10.947 -0.0697 -3.4615  1.9500
  183SLPC   C1120957   1.185   2.099  10.856 -0.0089 -0.5394  0.4264
  183SLPC  H11A20958   1.206   2.054  10.756  1.7837  1.2487 -0.0422
  183SLPC  H11B20959   1.261   2.178  10.871 -0.5647 -0.0751  0.7943
  183SLPC     P20960   0.934   2.065  10.812  0.0456  0.1930 -0.0649
  183SLPC   O1320961   0.942   1.928  10.864  0.2433  0.2280 -0.0778
  183SLPC   O1420962   0.810   2.144  10.840  0.0708  0.0457 -0.0502
  183SLPC   O1220963   1.056   2.149  10.868  0.7402  0.0555 -0.0302
  183SLPC   O1120964   0.970   2.077  10.664  0.0279 -0.0691 -0.3700
  183SLPC    C120965   0.904   2.165  10.570  0.0180  0.6085 -0.0329
  183SLPC    HA20966   0.804   2.130  10.535  0.7856 -1.8457  0.1219
  183SLPC    HB20967   0.879   2.259  10.623 -0.3604 -0.6678  2.0956
  183SLPC    C220968   1.005   2.203  10.448 -0.9270  0.6591 -0.4460
  183SLPC    HS20969   0.941   2.254  10.372 -0.0229 -0.7920 -2.2234
  183SLPC   O2120970   1.065   2.087  10.372 -0.4582 -0.1830 -0.3355
  183SLPC   C2120971   0.973   1.997  10.324 -0.6075 -0.5911 -0.0342
  183SLPC   O2220972   0.855   2.003  10.344  0.6349  0.2893 -0.3198
  183SLPC   C2220973   1.050   1.893  10.237 -0.5626 -0.2151 -0.0682
  183SLPC   H2R20974   1.160   1.892  10.248 -0.3684 -1.3938 -2.0603
  183SLPC   H2S20975   1.015   1.799  10.286  0.3784  0.2330  1.5097
  183SLPC    C320976   1.111   2.302  10.493  0.1663 -0.3496 -0.4441
  183SLPC    HX20977   1.162   2.235  10.566 -1.1196 -2.2984 -1.2846
  183SLPC    HY20978   1.078   2.391  10.550  0.1315  0.9346 -2.4039
  183SLPC   O3120979   1.208   2.333  10.387  0.7294 -0.2694 -0.1882
  183SLPC   C3120980   1.167   2.423  10.305  0.0155 -0.0261  0.3474
  183SLPC   O3220981   1.061   2.489  10.305  0.3725  0.1404  0.8969
  183SLPC   C3220982   1.264   2.420  10.183  0.3186 -0.3822  0.0738
  183SLPC   H2X20983   1.251   2.327  10.124 -0.9130 -0.4159  0.3980
  183SLPC   H2Y20984   1.364   2.430  10.231 -0.2344 -0.3101  1.2274
  183SLPC   C2320985   1.015   1.910  10.091  0.9072 -0.3089  0.4096
  183SLPC   H3R20986   1.072   1.993  10.043  2.0375 -1.1929  0.2135
  183SLPC   H3S20987   0.907   1.922  10.069  0.7879 -0.6074  0.8277
  183SLPC   C2420988   1.039   1.774  10.005  0.1003  0.0268  0.3018
  183SLPC   H4R20989   0.981   1.702  10.065  0.0853 -1.0109 -0.9362
  183SLPC   H4S20990   1.147   1.750   9.995 -0.0842 -0.5059 -0.4135
  183SLPC   C2520991   0.985   1.790   9.865  0.2105 -0.7422  0.3756
  183SLPC   H5R20992   1.019   1.888   9.825 -0.1659 -0.2463  1.2629
  183SLPC   H5S20993   0.875   1.804   9.877  0.0232 -1.7979 -0.1025
  183SLPC   C2620994   1.010   1.668   9.783 -0.1781  0.0681 -0.2529
  183SLPC   H6R20995   0.957   1.587   9.837 -0.8572 -0.7802 -2.1427
  183SLPC   H6S20996   1.114   1.630   9.777 -0.4857 -0.9067  0.5267
  183SLPC   C2720997   0.941   1.677   9.644  0.1850  0.1100  0.3338
  183SLPC   H7R20998   1.012   1.737   9.584 -1.7617  1.7500 -0.3936
  183SLPC   H7S20999   0.853   1.744   9.649  0.5883  0.6397  0.2733
  183SLPC   C2821000   0.909   1.539   9.582 -0.2166 -0.7486 -0.2434
  183SLPC   H8R21001   1.008   1.499   9.550 -0.2650 -1.9874  1.0872
  183SLPC   H8S21002   0.853   1.559   9.489  0.6701  1.6747 -0.2741
  183SLPC   C2921003   0.825   1.448   9.662  0.6401  0.2586  0.2108
  183SLPC   H9R21004   0.872   1.403   9.750  3.1326  0.7784 -0.8236
  183SLPC  C21021005   0.690   1.427   9.652  0.9291 -0.1718 -0.0600
  183SLPC  H10R21006   0.639   1.364   9.726  0.4347  1.7601  1.2772
  183SLPC  C21121007   0.595   1.494   9.551 -0.3333 -0.2754 -0.3345
  183SLPC  H11R21008   0.630   1.489   9.446  0.3645 -0.5920 -0.0836
  183SLPC  H11S21009   0.598   1.604   9.567  2.1515 -0.2171 -1.0699
  183SLPC  C21221010   0.449   1.447   9.569 -0.4642 -0.0431  0.4036
  183SLPC  H12R21011   0.422   1.384   9.484  1.3297 -1.4994  0.8836
  183SLPC  C21321012   0.357   1.469   9.668 -0.3593 -0.6378 -0.0043
  183SLPC  H13R21013   0.254   1.431   9.657 -0.0844 -1.4400  0.1321
  183SLPC  C21421014   0.379   1.560   9.782  0.3130  0.4621  0.3212
  183SLPC  H14R21015   0.287   1.621   9.796  0.1798  0.5493 -0.9286
  183SLPC  H14S21016   0.463   1.632   9.768  1.9180 -0.7015  3.5225
  183SLPC  C21521017   0.402   1.482   9.913  0.0750 -0.2272 -0.3729
  183SLPC  H15R21018   0.417   1.553   9.998  0.0280 -1.6542  0.8464
  183SLPC  H15S21019   0.486   1.412   9.897  2.2934  1.7895  1.9413
  183SLPC  C21621020   0.282   1.391   9.950 -0.5873 -0.4006  0.2681
  183SLPC  H16R21021   0.255   1.338   9.856 -0.4816 -0.1182  0.0736
  183SLPC  H16S21022   0.196   1.458   9.969  0.3599  1.4137 -1.6025
  183SLPC  C21721023   0.305   1.297  10.071 -0.2708  0.4653  0.0796
  183SLPC  H17R21024   0.397   1.242  10.042 -0.6838 -0.3990  0.4103
  183SLPC  H17S21025   0.221   1.227  10.092  0.2809 -0.1959  0.1006
  183SLPC  C21821026   0.337   1.379  10.199  0.7266  0.9288  0.4648
  183SLPC  H18R21027   0.427   1.444  10.191  1.0609  0.7004  2.2214
  183SLPC  H18S21028   0.340   1.314  10.289 -1.8879  3.5498  2.5225
  183SLPC  H18T21029   0.248   1.444  10.215 -0.9450 -0.3500 -3.0382
  183SLPC   C3321030   1.235   2.542  10.093  0.2622 -0.3840  0.5971
  183SLPC   H3X21031   1.279   2.623  10.155  1.2355 -0.0158 -0.5614
  183SLPC   H3Y21032   1.128   2.572  10.096 -0.6964 -3.6006  0.7921
  183SLPC   C3421033   1.309   2.546   9.960  0.1236 -0.2190  0.1340
  183SLPC   H4X21034   1.415   2.514   9.968 -0.3003 -2.2290 -1.7927
  183SLPC   H4Y21035   1.301   2.655   9.936  0.6658  0.2718  2.0674
  183SLPC   C3521036   1.238   2.458   9.855 -0.2910 -0.3158  1.3014
  183SLPC   H5X21037   1.129   2.444   9.870 -0.3703  0.1452  1.1448
  183SLPC   H5Y21038   1.289   2.361   9.875 -0.0846 -0.0285  2.1751
  183SLPC   C3621039   1.271   2.498   9.713  0.4294  0.2269  0.1724
  183SLPC   H6X21040   1.382   2.488   9.706  0.4711  0.8220 -0.0857
  183SLPC   H6Y21041   1.231   2.597   9.684 -3.4349 -1.1955  0.3397
  183SLPC   C3721042   1.205   2.389   9.620 -0.0888 -0.8695  0.3775
  183SLPC   H7X21043   1.095   2.383   9.639  0.0853 -1.0522  1.3443
  183SLPC   H7Y21044   1.260   2.299   9.653  2.9411  0.9009  0.2865
  183SLPC   C3821045   1.241   2.419   9.472  0.1262  0.2078 -0.1925
  183SLPC   H8X21046   1.351   2.406   9.466  0.1852  0.9134 -0.6801
  183SLPC   H8Y21047   1.210   2.520   9.437 -0.2670 -0.0228 -0.5082
  183SLPC   C3921048   1.186   2.315   9.375 -0.0978  0.6084  0.2412
  183SLPC   H9X21049   1.077   2.302   9.395 -0.3740  0.7629 -1.1638
  183SLPC   H9Y21050   1.233   2.218   9.403 -3.9492 -2.4028 -3.0474
  183SLPC  C31021051   1.205   2.341   9.227  0.4049  0.2533 -0.1666
  183SLPC  H10X21052   1.315   2.339   9.211  0.8573  0.2449  2.6668
  183SLPC  H10Y21053   1.175   2.444   9.198 -0.1698  0.2286  0.3327
  183SLPC  C31121054   1.132   2.241   9.142  1.1843 -0.3272  0.1225
  183SLPC  H11X21055   1.023   2.259   9.157  0.8725 -1.2572 -0.9431
  183SLPC  H11Y21056   1.151   2.142   9.188 -1.1882 -0.9859 -0.2366
  183SLPC  C31221057   1.175   2.212   9.000  0.0641 -0.1927  0.7148
  183SLPC  H12X21058   1.284   2.194   8.995  0.1855  1.0358 -1.5829
  183SLPC  H12Y21059   1.172   2.308   8.944  2.4070 -0.6660 -0.2734
  183SLPC  C31321060   1.102   2.096   8.942 -0.0076 -0.2277  0.6448
  183SLPC  H13X21061   0.992   2.106   8.930  0.2637  1.4781 -0.6357
  183SLPC  H13Y21062   1.103   2.015   9.018  1.2782  0.6557  1.6024
  183SLPC  C31421063   1.164   2.048   8.812 -0.3001  0.2913 -0.3819
  183SLPC  H14X21064   1.262   2.003   8.839  0.4012  2.5771  1.0406
  183SLPC  H14Y21065   1.185   2.130   8.739 -1.8448  0.7468 -0.3225
  183SLPC  C31521066   1.075   1.945   8.740 -0.2778 -0.5943  0.0331
  183SLPC  H15X21067   1.037   1.873   8.815  2.1159 -1.3329  0.5889
  183SLPC  H15Y21068   1.145   1.890   8.674  1.2102  3.3291 -1.8368
  183SLPC  C31621069   0.958   1.994   8.651  0.2217 -0.1344  0.0981
  183SLPC  H16X21070   0.878   2.035   8.717  1.0650 -2.1717  2.4234
  183SLPC  H16Y21071   0.913   1.910   8.593 -1.7411 -0.8865  2.5966
  183SLPC  C31721072   0.996   2.087   8.541 -1.2501  0.3787  0.5610
  183SLPC  H17X21073   1.041   2.174   8.593  0.2538  0.4050 -0.7690
  183SLPC  H17Y21074   0.899   2.102   8.489 -1.0693 -0.1434  0.0668
  183SLPC  C31821075   1.093   2.030   8.439  0.1070  1.0622  0.4714
  183SLPC  H18X21076   1.195   2.010   8.479  0.5824  0.3379 -1.0656
  183SLPC  H18Y21077   1.113   2.101   8.356 -1.2870  0.1993 -0.6371
  183SLPC  H18Z21078   1.045   1.940   8.396 -1.1385  2.0676 -0.2776
  184SLPC     N21079   3.243   5.829  10.510  0.6796 -0.0871  0.2698
  184SLPC   C1321080   3.193   5.962  10.539  0.6557 -0.2123  0.8702
  184SLPC  H13A21081   3.086   5.959  10.545  0.3945 -3.6001 -2.9478
  184SLPC  H13B21082   3.231   6.004  10.631  0.3473  1.9880  0.0232
  184SLPC  H13C21083   3.227   6.033  10.464  0.2050 -1.8219 -0.9200
  184SLPC   C1421084   3.194   5.771  10.380  0.0674  0.1692 -0.2447
  184SLPC  H14A21085   3.087   5.762  10.382 -0.1811  2.6762 -1.4388
  184SLPC  H14B21086   3.226   5.834  10.299 -2.8096  0.0335 -1.5350
  184SLPC  H14C21087   3.240   5.675  10.362  0.0582 -0.0590  0.8951
  184SLPC   C1521088   3.195   5.732  10.620  0.4792 -0.3129 -0.3960
  184SLPC  H15A21089   3.090   5.747  10.642  0.3649 -1.5152 -0.0931
  184SLPC  H15B21090   3.220   5.628  10.605 -2.1107 -0.9324 -0.7507
  184SLPC  H15C21091   3.239   5.767  10.712  0.8512 -1.5219 -0.1121
  184SLPC   C1221092   3.393   5.835  10.499 -1.0195 -0.3110  0.0827
  184SLPC  H12A21093   3.417   5.913  10.428  1.6740 -1.7402 -0.6257
  184SLPC  H12B21094   3.445   5.751  10.456 -0.1209  0.2357  0.0810
  184SLPC   C1121095   3.474   5.873  10.632 -0.2407 -0.6270 -0.3767
  184SLPC  H11A21096   3.582   5.848  10.622 -0.0236  0.0721  0.2254
  184SLPC  H11B21097   3.430   5.813  10.714 -0.3679 -0.8278 -0.5932
  184SLPC     P21098   3.529   6.127  10.584  0.0070  0.0960 -0.1040
  184SLPC   O1321099   3.436   6.238  10.561 -0.0807 -0.4187  0.3802
  184SLPC   O1421100   3.661   6.162  10.644 -0.2403  0.0683  0.2989
  184SLPC   O1221101   3.450   6.014  10.664  0.3796  0.0750  0.3739
  184SLPC   O1121102   3.555   6.050  10.449 -0.4103  0.3112 -0.1893
  184SLPC    C121103   3.650   6.091  10.357  0.0566  0.1725  0.6547
  184SLPC    HA21104   3.655   6.201  10.344  2.3951  0.1711  1.2414
  184SLPC    HB21105   3.752   6.058  10.387  0.1687 -0.3285 -0.2645
  184SLPC    C221106   3.619   6.037  10.218 -0.3588 -0.0646 -1.1413
  184SLPC    HS21107   3.577   5.935  10.224 -2.1668  0.7986  2.3558
  184SLPC   O2121108   3.734   6.042  10.136  0.0029  0.0361  0.0220
  184SLPC   C2121109   3.832   5.949  10.150  0.2295 -0.0713  0.4578
  184SLPC   O2221110   3.845   5.873  10.240 -0.4246  0.4177 -0.1861
  184SLPC   C2221111   3.939   5.958  10.037  0.2484  0.5281  0.5705
  184SLPC   H2R21112   3.929   6.045   9.970 -1.9290 -0.2112 -0.0945
  184SLPC   H2S21113   4.031   5.971  10.098  2.2234  1.7858 -2.5806
  184SLPC    C321114   3.502   6.119  10.156  0.3019 -0.9498 -0.9878
  184SLPC    HX21115   3.537   6.224  10.149  0.2104 -0.7895  0.6745
  184SLPC    HY21116   3.429   6.120  10.240  1.5674  0.0854  0.1410
  184SLPC   O3121117   3.472   6.060  10.026  0.0060 -0.4443  1.0688
  184SLPC   C3121118   3.394   5.949  10.029 -0.2614  0.1617 -0.1958
  184SLPC   O3221119   3.344   5.906  10.132 -0.1471 -0.2685 -0.4632
  184SLPC   C3221120   3.377   5.893   9.889  0.1721 -0.5516  0.6182
  184SLPC   H2X21121   3.268   5.875   9.878  0.1912  0.2634 -1.0129
  184SLPC   H2Y21122   3.432   5.797   9.885  0.0901 -0.5396 -1.2561
  184SLPC   C2321123   3.946   5.823   9.962 -0.2890  0.1558 -0.2163
  184SLPC   H3R21124   3.848   5.790   9.922 -0.7845  0.5938  0.6000
  184SLPC   H3S21125   3.986   5.752  10.038  0.3471  1.8113  1.0292
  184SLPC   C2421126   4.042   5.820   9.840 -0.3995 -0.1463 -0.0976
  184SLPC   H4R21127   4.066   5.713   9.827 -1.2813 -0.3082 -0.4649
  184SLPC   H4S21128   4.140   5.869   9.853 -0.7718  0.6338 -0.1787
  184SLPC   C2521129   3.969   5.867   9.713 -0.5261 -0.5274  0.0751
  184SLPC   H5R21130   3.918   5.962   9.739  0.6703  0.1898 -0.1206
  184SLPC   H5S21131   3.906   5.785   9.674 -1.8713  2.1122 -3.5929
  184SLPC   C2621132   4.074   5.884   9.603  1.2658 -0.3103  0.8073
  184SLPC   H6R21133   4.117   5.783   9.587 -0.7051 -1.1307  0.5828
  184SLPC   H6S21134   4.158   5.951   9.632  0.3293  1.3194 -0.1933
  184SLPC   C2721135   3.995   5.925   9.470 -0.4714 -0.5409 -0.2408
  184SLPC   H7R21136   3.925   6.011   9.482  0.5115  0.2664 -0.1922
  184SLPC   H7S21137   3.924   5.840   9.456 -0.7633 -1.3145  4.8051
  184SLPC   C2821138   4.084   5.936   9.348 -0.0881 -0.5728 -1.2212
  184SLPC   H8R21139   4.132   5.836   9.341 -1.5977 -1.7282  3.2548
  184SLPC   H8S21140   4.160   6.014   9.372  1.4391 -2.2815 -0.3848
  184SLPC   C2921141   4.010   5.977   9.222  0.0676 -0.1281 -0.0119
  184SLPC   H9R21142   3.948   6.064   9.249 -0.1653  0.4718 -2.3817
  184SLPC  C21021143   4.011   5.927   9.100 -0.4851  0.5481  0.2598
  184SLPC  H10R21144   3.946   5.977   9.026  0.8458  0.5704 -0.9251
  184SLPC  C21121145   4.090   5.807   9.050  0.2271  0.0089  0.1442
  184SLPC  H11R21146   4.119   5.734   9.129  0.1794 -0.2925 -0.1149
  184SLPC  H11S21147   4.182   5.851   9.007  0.9613 -0.8968  0.7769
  184SLPC  C21221148   4.006   5.743   8.945  0.0399  0.0553 -0.6071
  184SLPC  H12R21149   3.906   5.704   8.971 -0.4436  0.8734 -1.2452
  184SLPC  C21321150   4.031   5.722   8.818  0.0967  0.2948 -0.1295
  184SLPC  H13R21151   3.959   5.664   8.757 -0.5583  0.2147  0.7213
  184SLPC  C21421152   4.143   5.765   8.733 -0.4118  0.1656 -0.2928
  184SLPC  H14R21153   4.210   5.686   8.694  0.2139  1.1181 -1.1911
  184SLPC  H14S21154   4.198   5.842   8.790  2.6253 -2.2706  0.1797
  184SLPC  C21521155   4.088   5.821   8.594  0.7191 -0.6433  0.0577
  184SLPC  H15R21156   4.034   5.917   8.607  0.1557 -0.6248 -2.2997
  184SLPC  H15S21157   4.020   5.751   8.540 -0.9642  1.7969 -1.0798
  184SLPC  C21621158   4.192   5.852   8.483 -0.0456  0.4245 -0.0595
  184SLPC  H16R21159   4.251   5.945   8.496 -0.9841  0.8179  1.6457
  184SLPC  H16S21160   4.131   5.882   8.395 -1.0452  1.1091  0.8552
  184SLPC  C21721161   4.291   5.742   8.443  0.6182 -0.3262 -0.0546
  184SLPC  H17R21162   4.337   5.704   8.537  0.7468  0.6288  0.2747
  184SLPC  H17S21163   4.363   5.792   8.374  0.0497 -0.8148 -1.0132
  184SLPC  C21821164   4.226   5.631   8.354  0.3905 -0.0753  0.0277
  184SLPC  H18R21165   4.153   5.580   8.420  0.9355 -0.7307  0.1293
  184SLPC  H18S21166   4.304   5.570   8.303 -0.4306 -0.3949 -0.8654
  184SLPC  H18T21167   4.182   5.677   8.263 -2.4628  0.9619  1.8658
  184SLPC   C3321168   3.425   5.981   9.773  0.2163  0.6278  0.5689
  184SLPC   H3X21169   3.533   6.007   9.777  0.7704 -0.8629 -2.6987
  184SLPC   H3Y21170   3.362   6.072   9.764 -0.8134 -0.3020 -2.0102
  184SLPC   C3421171   3.419   5.893   9.648  0.3667 -0.7043 -0.2523
  184SLPC   H4X21172   3.320   5.843   9.649 -0.2970  0.6343  0.4604
  184SLPC   H4Y21173   3.501   5.819   9.664  1.1121 -0.2167 -1.7219
  184SLPC   C3521174   3.458   5.968   9.523  0.1329  0.3195  0.4042
  184SLPC   H5X21175   3.569   5.979   9.515  0.1992 -0.2076  0.5681
  184SLPC   H5Y21176   3.403   6.063   9.536 -1.7411 -0.8231  0.8998
  184SLPC   C3621177   3.394   5.903   9.398 -0.9006 -0.7424 -0.6029
  184SLPC   H6X21178   3.395   5.792   9.402  0.3824 -0.7321 -0.4329
  184SLPC   H6Y21179   3.462   5.938   9.317  0.0646  1.4512  1.0925
  184SLPC   C3721180   3.257   5.970   9.372  0.3358 -0.1486  0.3432
  184SLPC   H7X21181   3.275   6.079   9.367 -2.0441  0.2923  0.9245
  184SLPC   H7Y21182   3.181   5.943   9.449 -0.9919 -0.3339 -0.9929
  184SLPC   C3821183   3.200   5.924   9.232 -0.1902  0.1608  0.8540
  184SLPC   H8X21184   3.185   5.815   9.249  1.3893 -0.2140 -0.1028
  184SLPC   H8Y21185   3.280   5.925   9.156  0.7997  0.0384  1.8717
  184SLPC   C3921186   3.071   5.994   9.182  0.4721  0.0224 -0.4493
  184SLPC   H9X21187   3.075   6.103   9.202 -4.1509  0.3344 -0.6660
  184SLPC   H9Y21188   2.986   5.950   9.238  1.3667  0.6271  1.4185
  184SLPC  C31021189   3.042   5.993   9.032 -0.1937 -0.0192  0.6670
  184SLPC  H10X21190   2.932   6.002   9.024 -0.0464 -0.1709 -2.0188
  184SLPC  H10Y21191   3.075   5.900   8.981 -3.9768 -1.1133  0.1111
  184SLPC  C31121192   3.103   6.107   8.953  0.5756  0.5703 -0.8677
  184SLPC  H11X21193   3.210   6.079   8.941  0.4662  0.4229 -1.5206
  184SLPC  H11Y21194   3.108   6.198   9.016 -3.1696  0.3507 -0.1466
  184SLPC  C31221195   3.051   6.127   8.811 -0.0171 -0.2940  0.1186
  184SLPC  H12X21196   3.074   6.034   8.755  0.7983  0.3457 -0.6173
  184SLPC  H12Y21197   3.116   6.205   8.765  3.0565 -2.9522 -0.1738
  184SLPC  C31321198   2.902   6.153   8.797  0.0127 -0.3495  0.0966
  184SLPC  H13X21199   2.859   6.231   8.863 -1.3272  0.4272 -1.6558
  184SLPC  H13Y21200   2.856   6.055   8.822 -0.5638 -0.7752 -2.5120
  184SLPC  C31421201   2.853   6.196   8.657 -1.2178  0.2185 -0.2809
  184SLPC  H14X21202   2.878   6.109   8.592  0.0856 -0.0319  0.5365
  184SLPC  H14Y21203   2.905   6.293   8.641 -1.1104  0.6841  2.5674
  184SLPC  C31521204   2.701   6.232   8.647 -1.1173  0.1233 -0.2860
  184SLPC  H15X21205   2.674   6.309   8.723  0.6656  0.1500  0.3355
  184SLPC  H15Y21206   2.642   6.140   8.669 -1.7011  0.3176 -1.0305
  184SLPC  C31621207   2.665   6.284   8.505  0.1567 -0.5385  0.4424
  184SLPC  H16X21208   2.709   6.209   8.436 -0.7923 -0.8474  0.1599
  184SLPC  H16Y21209   2.705   6.387   8.502  0.0870 -0.5113  0.4469
  184SLPC  C31721210   2.513   6.282   8.487  0.8437 -0.9333  0.6020
  184SLPC  H17X21211   2.467   6.358   8.554 -0.8293 -0.7071 -0.7678
  184SLPC  H17Y21212   2.464   6.186   8.511  0.5125 -0.6661  0.9978
  184SLPC  C31821213   2.467   6.327   8.343  0.4094 -0.2773  0.1474
  184SLPC  H18X21214   2.460   6.438   8.335 -0.8593 -0.1748  2.4766
  184SLPC  H18Y21215   2.368   6.282   8.322  0.8690 -0.6906 -1.2295
  184SLPC  H18Z21216   2.540   6.283   8.271 -0.3337  0.3717 -1.0082
  185SLPC     N21217   1.678   2.348   5.950  0.4234 -0.1927 -0.3622
  185SLPC   C1321218   1.622   2.208   5.953 -0.0558 -0.3332 -0.6114
  185SLPC  H13A21219   1.639   2.170   5.854  0.9569 -1.2077 -0.1171
  185SLPC  H13B21220   1.665   2.144   6.029 -0.5887 -0.9930 -0.8662
  185SLPC  H13C21221   1.518   2.208   5.981  0.1079 -0.0722  0.0045
  185SLPC   C1421222   1.625   2.417   5.832  0.1506  0.1538  0.0712
  185SLPC  H14A21223   1.525   2.386   5.805 -0.0986 -0.1639  1.3283
  185SLPC  H14B21224   1.616   2.523   5.854  2.5724  0.5228 -0.5571
  185SLPC  H14C21225   1.691   2.407   5.748  0.4797 -1.8457  0.5506
  185SLPC   C1521226   1.827   2.345   5.937 -0.7218  0.5407 -0.1426
  185SLPC  H15A21227   1.866   2.289   6.022  0.6996  2.9824  0.8735
  185SLPC  H15B21228   1.862   2.279   5.859  0.3446 -1.5290  1.9968
  185SLPC  H15C21229   1.873   2.443   5.938 -0.0640  0.2395 -0.3794
  185SLPC   C1221230   1.642   2.423   6.074 -0.7258 -0.1919  0.1319
  185SLPC  H12A21231   1.536   2.417   6.091 -0.8619 -0.5976 -0.8074
  185SLPC  H12B21232   1.666   2.525   6.047 -0.3851 -1.0049 -2.9227
  185SLPC   C1121233   1.715   2.394   6.209  0.2529  0.0037 -0.1492
  185SLPC  H11A21234   1.681   2.474   6.279  0.5157  1.6081 -1.8292
  185SLPC  H11B21235   1.824   2.414   6.204  0.2317  0.5358  1.1665
  185SLPC     P21236   1.608   2.214   6.381  0.0431  0.3152  0.3825
  185SLPC   O1321237   1.464   2.182   6.353  0.5737 -0.5851 -0.5114
  185SLPC   O1421238   1.704   2.117   6.451 -0.8634 -0.3014  0.3434
  185SLPC   O1221239   1.682   2.258   6.243 -0.4472  0.1924 -0.4651
  185SLPC   O1121240   1.613   2.347   6.465  0.0226 -0.4933 -0.2052
  185SLPC    C121241   1.499   2.395   6.529  0.0191 -0.2292  0.5149
  185SLPC    HA21242   1.430   2.444   6.457  0.9951  0.1371 -0.1744
  185SLPC    HB21243   1.447   2.309   6.577 -0.4074 -1.1143 -1.5045
  185SLPC    C221244   1.547   2.494   6.649  0.5699  0.8560  0.0671
  185SLPC    HS21245   1.639   2.449   6.690  0.2947  1.1820  1.0487
  185SLPC   O2121246   1.450   2.512   6.756 -0.3018  0.1885  0.0407
  185SLPC   C2121247   1.435   2.406   6.832 -0.1419 -0.0476 -0.5591
  185SLPC   O2221248   1.500   2.301   6.822  0.1195  0.2880 -0.1656
  185SLPC   C2221249   1.319   2.426   6.919 -0.7497 -0.2617  0.7035
  185SLPC   H2R21250   1.312   2.525   6.968 -0.8675 -1.4028  3.0247
  185SLPC   H2S21251   1.228   2.395   6.863  0.3655  3.0399 -3.1421
  185SLPC    C321252   1.575   2.636   6.587 -0.0566 -0.3249 -0.1784
  185SLPC    HX21253   1.477   2.679   6.558 -0.9940 -0.9176  2.0918
  185SLPC    HY21254   1.640   2.619   6.498 -1.1874  1.1321 -1.2988
  185SLPC   O3121255   1.643   2.718   6.685 -0.6935 -0.6471  0.3055
  185SLPC   C3121256   1.571   2.791   6.774 -0.9547  0.0533  0.6890
  185SLPC   O3221257   1.449   2.815   6.759  0.2572  0.0061  0.5700
  185SLPC   C3221258   1.656   2.850   6.882 -0.4650 -0.1783 -0.1730
  185SLPC   H2X21259   1.631   2.958   6.892  2.6413  0.6197 -0.6161
  185SLPC   H2Y21260   1.759   2.840   6.842 -1.1140 -1.4923 -1.5199
  185SLPC   C2321261   1.337   2.320   7.038  0.6196 -0.0636  0.7646
  185SLPC   H3R21262   1.363   2.224   6.989 -0.7976 -0.1209  0.0801
  185SLPC   H3S21263   1.234   2.307   7.078 -1.0213 -0.1426 -3.2629
  185SLPC   C2421264   1.432   2.356   7.150 -0.1003  0.3037  0.8842
  185SLPC   H4R21265   1.531   2.398   7.121 -0.3152  0.4070  0.2845
  185SLPC   H4S21266   1.459   2.259   7.196  0.1638  1.2429  2.7848
  185SLPC   C2521267   1.365   2.441   7.267 -0.9759  0.1628  0.0484
  185SLPC   H5R21268   1.297   2.381   7.330  2.7916 -2.2697  2.0234
  185SLPC   H5S21269   1.292   2.514   7.227 -1.0201 -1.1769 -2.4102
  185SLPC   C2621270   1.463   2.515   7.358  0.1851 -0.2026 -0.0708
  185SLPC   H6R21271   1.499   2.606   7.305 -0.9713 -0.4732 -1.3414
  185SLPC   H6S21272   1.547   2.444   7.374  0.0757 -0.1967  0.5653
  185SLPC   C2721273   1.392   2.550   7.494 -0.6678  0.1237 -0.6005
  185SLPC   H7R21274   1.372   2.459   7.554  0.9141  0.9846  1.3153
  185SLPC   H7S21275   1.292   2.595   7.477 -0.7549  0.0024 -0.4098
  185SLPC   C2821276   1.472   2.661   7.573 -0.1533 -0.1410 -0.2283
  185SLPC   H8R21277   1.399   2.698   7.649  2.4122  0.6172  1.9369
  185SLPC   H8S21278   1.482   2.747   7.504 -0.4539 -0.4306 -0.6359
  185SLPC   C2921279   1.604   2.609   7.629  0.4376  0.1388  0.2386
  185SLPC   H9R21280   1.671   2.555   7.560  2.0550 -1.1065  2.7310
  185SLPC  C21021281   1.650   2.624   7.759  0.0551 -0.3667  0.6332
  185SLPC  H10R21282   1.746   2.581   7.791  0.2284  0.0173  0.6315
  185SLPC  C21121283   1.589   2.693   7.878 -0.8684 -0.1621 -0.1722
  185SLPC  H11R21284   1.570   2.796   7.842 -0.2582  0.1955  0.5404
  185SLPC  H11S21285   1.658   2.690   7.965  1.5204 -3.4896 -2.0574
  185SLPC  C21221286   1.454   2.639   7.928  1.0072  0.1557 -0.0621
  185SLPC  H12R21287   1.399   2.567   7.865  2.9522 -1.0208 -0.4542
  185SLPC  C21321288   1.377   2.660   8.040  0.5005 -0.6275  0.4067
  185SLPC  H13R21289   1.279   2.611   8.050 -0.0872  0.4074 -0.2277
  185SLPC  C21421290   1.412   2.752   8.152  0.3514  0.2052 -0.5935
  185SLPC  H14R21291   1.324   2.766   8.218  0.6076  0.8372 -0.3859
  185SLPC  H14S21292   1.434   2.854   8.114 -1.3120  0.7164 -0.2327
  185SLPC  C21521293   1.519   2.686   8.235 -0.2712 -0.0962 -0.2509
  185SLPC  H15R21294   1.596   2.654   8.162 -0.7992 -0.2402 -0.7502
  185SLPC  H15S21295   1.475   2.598   8.287  2.7793 -1.2882  0.3849
  185SLPC  C21621296   1.558   2.800   8.340  0.4215 -0.8216  0.8265
  185SLPC  H16R21297   1.467   2.846   8.385  1.1318  2.5043 -1.0002
  185SLPC  H16S21298   1.617   2.872   8.279 -0.9215 -0.6928 -0.3534
  185SLPC  C21721299   1.644   2.739   8.448  0.6082  0.2747  0.3665
  185SLPC  H17R21300   1.732   2.686   8.406  0.3372  1.3943 -1.7316
  185SLPC  H17S21301   1.569   2.670   8.490 -0.1663  1.2803  0.6499
  185SLPC  C21821302   1.679   2.838   8.562  0.0717  0.3637  0.0873
  185SLPC  H18R21303   1.585   2.885   8.595  1.1339  2.7025 -0.1215
  185SLPC  H18S21304   1.752   2.915   8.527  0.5831  0.8012  2.0421
  185SLPC  H18T21305   1.719   2.797   8.657  1.5102  0.8325 -0.2943
  185SLPC   C3321306   1.627   2.771   7.008  0.1015  0.3119  0.0178
  185SLPC   H3X21307   1.641   2.661   7.005  0.4520  0.3857 -1.2537
  185SLPC   H3Y21308   1.523   2.794   7.040  1.2988  2.0471  2.8773
  185SLPC   C3421309   1.716   2.817   7.130 -0.2347  0.6970 -0.8482
  185SLPC   H4X21310   1.825   2.802   7.118  0.0631  0.6859  1.6364
  185SLPC   H4Y21311   1.694   2.753   7.218  0.5616 -0.9199 -1.8175
  185SLPC   C3521312   1.692   2.962   7.173 -0.2326 -0.1458 -0.1288
  185SLPC   H5X21313   1.585   2.977   7.198 -0.2240 -2.3997  1.3827
  185SLPC   H5Y21314   1.727   3.038   7.099  0.1946 -1.9328 -1.8169
  185SLPC   C3621315   1.762   3.000   7.307 -0.6116  0.9652 -0.9713
  185SLPC   H6X21316   1.735   3.106   7.324  2.4934  1.8794 -1.3639
  185SLPC   H6Y21317   1.872   2.994   7.291 -0.3789 -2.5932  1.2058
  185SLPC   C3721318   1.715   2.925   7.427  0.3876 -0.3403 -1.5268
  185SLPC   H7X21319   1.760   2.824   7.428  0.4767 -0.2922 -0.3517
  185SLPC   H7Y21320   1.605   2.920   7.419  0.1740  3.0391 -1.5408
  185SLPC   C3821321   1.755   2.984   7.562  1.0360 -0.3718  0.1197
  185SLPC   H8X21322   1.701   2.919   7.635  0.5668 -1.5019 -1.2100
  185SLPC   H8Y21323   1.718   3.087   7.581 -0.6070 -0.9932  0.3743
  185SLPC   C3921324   1.902   2.981   7.590 -0.2273  0.8917  1.0612
  185SLPC   H9X21325   1.951   3.052   7.521 -0.1421  1.2006  1.4421
  185SLPC   H9Y21326   1.935   2.879   7.560  0.0046  1.7589 -1.7632
  185SLPC  C31021327   1.934   3.017   7.739 -0.4495  0.5449  0.2458
  185SLPC  H10X21328   1.918   3.125   7.764  0.6311  0.2841  2.0900
  185SLPC  H10Y21329   2.042   2.992   7.747 -0.7365 -1.0552 -0.6980
  185SLPC  C31121330   1.878   2.929   7.849  0.5940  0.2725  0.7253
  185SLPC  H11X21331   1.912   2.827   7.822  0.8945 -0.8939  5.2128
  185SLPC  H11Y21332   1.767   2.940   7.840 -0.0663 -4.0969  2.2770
  185SLPC  C31221333   1.933   2.967   7.986  0.2314  0.1746 -0.0506
  185SLPC  H12X21334   1.972   3.071   7.984  0.0485  0.2192 -2.3230
  185SLPC  H12Y21335   2.016   2.896   8.005 -0.8068 -1.0645 -0.0546
  185SLPC  C31321336   1.834   2.949   8.103 -0.2359 -0.3470  0.2021
  185SLPC  H13X21337   1.791   2.846   8.106  0.8979 -0.8482 -0.2881
  185SLPC  H13Y21338   1.751   3.022   8.099  0.2035  0.4911  4.1394
  185SLPC  C31421339   1.904   2.969   8.243  0.7453 -0.5743 -0.0066
  185SLPC  H14X21340   1.816   2.978   8.310  0.4719  2.5210 -0.7342
  185SLPC  H14Y21341   1.956   3.067   8.243 -1.2077  0.4845  0.4187
  185SLPC  C31521342   1.984   2.852   8.295  0.7957  0.2578  0.1758
  185SLPC  H15X21343   2.069   2.827   8.228 -0.7364 -3.1007 -0.6107
  185SLPC  H15Y21344   1.916   2.765   8.286  0.1907  0.8428 -0.9803
  185SLPC  C31621345   2.034   2.861   8.441  0.6379  0.1812 -0.1008
  185SLPC  H16X21346   1.944   2.869   8.506  1.1433 -0.1637  0.6410
  185SLPC  H16Y21347   2.098   2.951   8.455  0.3802  0.4125 -0.4222
  185SLPC  C31721348   2.113   2.737   8.483  0.0120  0.6751  0.0250
  185SLPC  H17X21349   2.199   2.735   8.412  0.1046 -1.8482  0.1710
  185SLPC  H17Y21350   2.043   2.655   8.457 -0.1992  0.6809  0.5632
  185SLPC  C31821351   2.144   2.720   8.630  0.4856  0.5544  0.3199
  185SLPC  H18X21352   2.055   2.715   8.695  0.7174 -0.9789  0.5485
  185SLPC  H18Y21353   2.206   2.805   8.666  1.4198  0.4178 -0.9208
  185SLPC  H18Z21354   2.201   2.626   8.651  1.5953  1.3938  1.1059
  186SLPC     N21355   2.679   4.002   6.082 -0.3676 -0.6526  0.1355
  186SLPC   C1321356   2.580   3.901   6.114 -0.1535 -0.1893 -0.0229
  186SLPC  H13A21357   2.622   3.817   6.168 -1.8924 -1.0346  0.0485
  186SLPC  H13B21358   2.503   3.941   6.178  0.0023 -0.9986  0.6742
  186SLPC  H13C21359   2.542   3.864   6.019  0.4885  2.0021 -1.1755
  186SLPC   C1421360   2.624   4.103   5.979  0.1930  0.6672  0.3740
  186SLPC  H14A21361   2.535   4.151   6.017 -2.8108 -4.1324 -0.1560
  186SLPC  H14B21362   2.698   4.173   5.945  0.4940 -0.5601 -1.5680
  186SLPC  H14C21363   2.577   4.048   5.898  1.2014 -0.0720  0.2827
  186SLPC   C1521364   2.799   3.940   6.014 -0.1047  1.0877 -0.0725
  186SLPC  H15A21365   2.857   4.016   5.964  0.9606  0.8598  0.7810
  186SLPC  H15B21366   2.853   3.880   6.086 -0.3186 -0.2667 -1.0150
  186SLPC  H15C21367   2.766   3.870   5.939  4.1725 -0.1177 -0.9767
  186SLPC   C1221368   2.713   4.078   6.210  0.3220 -0.3501  0.4029
  186SLPC  H12A21369   2.771   4.166   6.185  0.7072 -0.6660  0.1698
  186SLPC  H12B21370   2.784   4.012   6.259 -0.4287 -1.9585 -0.6326
  186SLPC   C1121371   2.602   4.115   6.307 -0.1043  0.5509 -0.4730
  186SLPC  H11A21372   2.657   4.166   6.389  0.5385  0.4362 -0.8291
  186SLPC  H11B21373   2.554   4.024   6.348  2.9835 -1.3066 -0.8820
  186SLPC     P21374   2.357   4.216   6.283  0.3449 -0.1126 -0.0509
  186SLPC   O1321375   2.282   4.298   6.186 -0.0618 -0.0339 -0.1840
  186SLPC   O1421376   2.310   4.078   6.319  0.5674 -0.2561 -0.0873
  186SLPC   O1221377   2.509   4.208   6.245 -0.0507  0.2947 -0.1825
  186SLPC   O1121378   2.364   4.297   6.418  0.1985 -0.6876  0.4307
  186SLPC    C121379   2.382   4.438   6.424  0.5430 -0.0203  0.7008
  186SLPC    HA21380   2.482   4.465   6.463  0.7772  1.7695 -1.0477
  186SLPC    HB21381   2.372   4.484   6.323 -1.0198  1.1591  1.3814
  186SLPC    C221382   2.278   4.519   6.506  0.1220  0.4540  0.3841
  186SLPC    HS21383   2.315   4.623   6.496 -0.2166  0.7813  2.3525
  186SLPC   O2121384   2.274   4.471   6.639  0.2906  0.3201 -0.0164
  186SLPC   C2121385   2.378   4.522   6.709  0.5857  0.1809  0.7868
  186SLPC   O2221386   2.454   4.606   6.672 -0.2252 -0.3505  0.4475
  186SLPC   C2221387   2.392   4.466   6.849 -0.8313  0.1453 -0.8415
  186SLPC   H2R21388   2.291   4.464   6.896 -1.4140 -1.2921 -2.1140
  186SLPC   H2S21389   2.425   4.360   6.847 -0.7522  0.1433  0.3217
  186SLPC    C321390   2.138   4.500   6.439 -0.0020  0.1080  0.3244
  186SLPC    HX21391   2.089   4.409   6.480  1.6763  0.6283  3.7380
  186SLPC    HY21392   2.140   4.489   6.329  0.2009  0.4168  0.2945
  186SLPC   O3121393   2.044   4.604   6.476  0.3096 -0.2167  0.0110
  186SLPC   C3121394   2.060   4.710   6.393  0.3388  1.3736  0.2434
  186SLPC   O3221395   2.136   4.717   6.300  0.1096  0.5436 -0.1757
  186SLPC   C3221396   1.972   4.819   6.445  0.3461 -0.3083  0.3761
  186SLPC   H2X21397   1.959   4.812   6.555 -0.8047  1.0056  0.3410
  186SLPC   H2Y21398   1.873   4.813   6.397  0.6456 -1.7334 -0.0751
  186SLPC   C2321399   2.498   4.550   6.939 -0.1263 -0.5819 -0.1348
  186SLPC   H3R21400   2.485   4.659   6.922 -0.1127 -0.4053  0.9438
  186SLPC   H3S21401   2.602   4.521   6.914  1.1176  1.2649  2.6040
  186SLPC   C2421402   2.480   4.531   7.088  0.4529  0.2441 -0.6424
  186SLPC   H4R21403   2.466   4.426   7.121  2.1750 -0.4027 -1.9388
  186SLPC   H4S21404   2.397   4.590   7.133 -0.9029 -2.5789  0.7039
  186SLPC   C2521405   2.599   4.597   7.168 -0.5742  0.6008 -0.7068
  186SLPC   H5R21406   2.609   4.701   7.130 -0.0390  0.4142 -1.0835
  186SLPC   H5S21407   2.686   4.539   7.132 -0.8743 -0.8060  0.7686
  186SLPC   C2621408   2.595   4.592   7.321 -0.3736  0.2059 -0.5783
  186SLPC   H6R21409   2.509   4.645   7.368 -0.1128  0.5938 -0.5398
  186SLPC   H6S21410   2.689   4.641   7.355 -0.7989  0.3524  0.3912
  186SLPC   C2721411   2.608   4.448   7.366  0.4728 -0.2955  0.3921
  186SLPC   H7R21412   2.663   4.400   7.282  2.6800  1.3466  0.8346
  186SLPC   H7S21413   2.505   4.409   7.354  0.7533 -0.5590 -1.4213
  186SLPC   C2821414   2.663   4.426   7.512 -0.4214  0.7027 -0.4845
  186SLPC   H8R21415   2.585   4.470   7.578 -0.1093  0.7475 -0.1425
  186SLPC   H8S21416   2.760   4.481   7.522 -0.0859  0.1025 -0.4528
  186SLPC   C2921417   2.694   4.282   7.543  0.2826  0.2314  0.1196
  186SLPC   H9R21418   2.697   4.200   7.470  2.7916  0.5747 -0.2078
  186SLPC  C21021419   2.714   4.237   7.667 -0.2848 -0.0792 -0.5989
  186SLPC  H10R21420   2.737   4.130   7.674 -3.5383 -0.8249 -0.5361
  186SLPC  C21121421   2.718   4.327   7.785  0.6478  0.0645  0.3064
  186SLPC  H11R21422   2.780   4.414   7.755  0.0284  0.4735  0.1975
  186SLPC  H11S21423   2.767   4.267   7.864  0.5437 -1.0749 -0.4789
  186SLPC  C21221424   2.598   4.399   7.837  0.4390  0.0354 -0.4581
  186SLPC  H12R21425   2.505   4.340   7.833  0.0022  0.6806  0.0363
  186SLPC  C21321426   2.590   4.517   7.890 -0.3740 -0.5608 -0.0577
  186SLPC  H13R21427   2.492   4.538   7.934 -1.8867 -0.9598 -3.0562
  186SLPC  C21421428   2.694   4.621   7.912  0.0815  0.1202  0.3366
  186SLPC  H14R21429   2.716   4.660   7.810  0.3804  1.1417  0.7874
  186SLPC  H14S21430   2.784   4.565   7.943  0.2781  0.3910  0.2545
  186SLPC  C21521431   2.673   4.741   8.006  0.3743  0.4665 -0.0766
  186SLPC  H15R21432   2.601   4.813   7.962 -1.4284 -2.1247 -1.4944
  186SLPC  H15S21433   2.773   4.782   8.030  1.1469 -1.5729  0.3762
  186SLPC  C21621434   2.610   4.697   8.145  0.4682  0.2547 -1.2042
  186SLPC  H16R21435   2.656   4.606   8.189  1.5248  2.0941  1.5505
  186SLPC  H16S21436   2.504   4.677   8.116 -0.0148  1.2817 -0.1907
  186SLPC  C21721437   2.621   4.812   8.247  0.6594  0.4412 -1.1584
  186SLPC  H17R21438   2.614   4.910   8.196 -0.5139  2.2326  2.2862
  186SLPC  H17S21439   2.722   4.812   8.293  0.6213  2.2065 -1.0620
  186SLPC  C21821440   2.512   4.808   8.355 -0.2096 -0.2895  0.4322
  186SLPC  H18R21441   2.482   4.910   8.385  1.4015  0.3941 -0.2794
  186SLPC  H18S21442   2.547   4.757   8.448  1.1050  0.4677  0.3496
  186SLPC  H18T21443   2.416   4.768   8.316  0.1568  0.3805 -1.1562
  186SLPC   C3321444   2.043   4.951   6.404 -0.1819 -0.2496  0.2625
  186SLPC   H3X21445   1.975   5.033   6.434 -1.5559 -1.0117 -0.7391
  186SLPC   H3Y21446   2.050   4.965   6.294  1.9982  1.7610  0.6141
  186SLPC   C3421447   2.174   4.972   6.484 -0.2731  0.7445 -0.3840
  186SLPC   H4X21448   2.211   5.075   6.470 -0.5093  0.9008  0.1430
  186SLPC   H4Y21449   2.256   4.906   6.446 -0.4921  0.5919 -0.5917
  186SLPC   C3521450   2.166   4.944   6.634  0.4101 -0.5320 -0.4686
  186SLPC   H5X21451   2.158   4.835   6.658 -0.1465 -0.8704 -2.1127
  186SLPC   H5Y21452   2.080   4.992   6.685  1.8682  0.4877  1.0629
  186SLPC   C3621453   2.296   4.986   6.690 -0.4477 -0.2445  0.4826
  186SLPC   H6X21454   2.294   5.096   6.680  1.9939 -0.0693  1.4976
  186SLPC   H6Y21455   2.381   4.934   6.641  0.1809  0.7172  0.5359
  186SLPC   C3721456   2.313   4.953   6.842  0.8364  0.3686 -0.3503
  186SLPC   H7X21457   2.420   4.942   6.870  0.2896  0.3747  1.8844
  186SLPC   H7Y21458   2.276   4.851   6.866  1.0743  0.0764 -1.2313
  186SLPC   C3821459   2.232   5.046   6.935  0.4424  0.2421 -0.5976
  186SLPC   H8X21460   2.125   5.027   6.914  0.4166  1.6159 -1.7565
  186SLPC   H8Y21461   2.250   5.155   6.925 -1.1756  0.6718  0.8763
  186SLPC   C3921462   2.259   5.002   7.083 -0.1568  0.0888  0.0958
  186SLPC   H9X21463   2.236   4.896   7.108 -0.2613  0.0730 -0.0657
  186SLPC   H9Y21464   2.187   5.054   7.150 -0.6408  1.4067 -1.4095
  186SLPC  C31021465   2.404   5.020   7.129 -0.6118  0.5076  0.7491
  186SLPC  H10X21466   2.462   5.102   7.082 -2.5784  0.7269 -1.3555
  186SLPC  H10Y21467   2.461   4.925   7.115 -1.1808  0.2693  0.0453
  186SLPC  C31121468   2.416   5.029   7.283 -0.4040 -0.8058  0.2204
  186SLPC  H11X21469   2.353   4.943   7.312 -2.9722  0.1130 -2.4049
  186SLPC  H11Y21470   2.362   5.119   7.319  0.2009  0.3758 -1.6799
  186SLPC  C31221471   2.562   5.022   7.324  0.4042 -0.2579  0.2405
  186SLPC  H12X21472   2.624   5.110   7.298  0.2454 -1.1660 -3.6396
  186SLPC  H12Y21473   2.601   4.939   7.261  0.2236  1.1100 -1.7497
  186SLPC  C31321474   2.575   4.998   7.473 -0.4141 -0.7959  0.0730
  186SLPC  H13X21475   2.516   4.905   7.487 -0.4037 -0.5814  1.5401
  186SLPC  H13Y21476   2.531   5.071   7.544 -1.5554 -3.3778  2.0657
  186SLPC  C31421477   2.719   4.967   7.516 -0.1053  0.3818  0.8710
  186SLPC  H14X21478   2.784   4.942   7.430 -1.1521 -1.0623  0.4609
  186SLPC  H14Y21479   2.723   4.882   7.587 -2.0036 -2.1876 -1.9393
  186SLPC  C31521480   2.781   5.089   7.591 -0.0901  0.7736  0.0073
  186SLPC  H15X21481   2.750   5.170   7.521  0.0629  3.0355  2.4605
  186SLPC  H15Y21482   2.892   5.086   7.592 -0.0994  0.7275  0.7002
  186SLPC  C31621483   2.725   5.102   7.728  0.0785  0.1238  0.0627
  186SLPC  H16X21484   2.719   5.001   7.774  0.1974  0.8783  1.7718
  186SLPC  H16Y21485   2.623   5.148   7.729  0.2831  0.5794 -0.0888
  186SLPC  C31721486   2.811   5.192   7.828 -0.2077 -0.0297 -0.0381
  186SLPC  H17X21487   2.836   5.288   7.777  3.7802  0.4064  2.5537
  186SLPC  H17Y21488   2.908   5.137   7.834  1.0838  1.9866 -1.5230
  186SLPC  C31821489   2.754   5.216   7.977 -0.0710  1.1932  0.2913
  186SLPC  H18X21490   2.834   5.260   8.041 -0.3423 -0.7596  2.0447
  186SLPC  H18Y21491   2.730   5.121   8.029  1.7916 -0.4116 -1.6856
  186SLPC  H18Z21492   2.664   5.280   7.983 -1.2755 -0.1908 -2.3467
  187SLPC     N21493   2.359   1.832   6.356  0.2047  0.0086 -0.5187
  187SLPC   C1321494   2.396   1.855   6.215  0.2782 -0.0495 -0.1777
  187SLPC  H13A21495   2.380   1.956   6.183  0.5446  0.9718  2.7239
  187SLPC  H13B21496   2.497   1.823   6.192  0.4885  0.4952 -0.0132
  187SLPC  H13C21497   2.330   1.796   6.153  0.6815 -0.4728 -0.2109
  187SLPC   C1421498   2.211   1.864   6.367 -0.7602 -0.5587 -0.0635
  187SLPC  H14A21499   2.178   1.948   6.309  1.3902  1.0104  0.9496
  187SLPC  H14B21500   2.152   1.774   6.353  0.7273 -1.6303  0.4498
  187SLPC  H14C21501   2.175   1.894   6.464 -0.8903 -2.0333  0.3566
  187SLPC   C1521502   2.444   1.923   6.443  0.3928 -0.2577 -0.5667
  187SLPC  H15A21503   2.411   2.025   6.427  2.5216  0.5615  0.0361
  187SLPC  H15B21504   2.436   1.914   6.550 -1.3134  1.1997 -0.5366
  187SLPC  H15C21505   2.548   1.921   6.416  1.2243  1.1371  2.3879
  187SLPC   C1221506   2.372   1.690   6.404 -0.1159 -0.0248 -0.1810
  187SLPC  H12A21507   2.290   1.630   6.366 -0.9486 -0.2937  1.9567
  187SLPC  H12B21508   2.375   1.692   6.512  1.7308  0.1276 -0.2140
  187SLPC   C1121509   2.502   1.615   6.358  0.0326  0.1217 -0.4498
  187SLPC  H11A21510   2.503   1.600   6.247  0.1626  0.2098 -0.4602
  187SLPC  H11B21511   2.499   1.516   6.408 -0.5128  0.5887  0.4462
  187SLPC     P21512   2.739   1.640   6.467 -0.4226  0.1809  0.4079
  187SLPC   O1321513   2.778   1.506   6.415  0.0017 -0.4420  0.0994
  187SLPC   O1421514   2.844   1.741   6.487  0.0849 -0.2824  0.3137
  187SLPC   O1221515   2.620   1.694   6.380 -0.4021 -0.7487 -0.1810
  187SLPC   O1121516   2.667   1.612   6.603  0.7400 -0.5124  0.1841
  187SLPC    C121517   2.703   1.514   6.699  0.1792  0.3974 -0.2781
  187SLPC    HA21518   2.625   1.436   6.713  0.1780  0.0249 -2.1770
  187SLPC    HB21519   2.794   1.455   6.673  1.7648  3.5894 -2.1912
  187SLPC    C221520   2.720   1.561   6.841 -0.7267 -0.3277  0.2418
  187SLPC    HS21521   2.618   1.581   6.881  0.0027 -0.4704  2.2428
  187SLPC   O2121522   2.792   1.682   6.831  0.7974 -0.4627  0.5672
  187SLPC   C2121523   2.768   1.768   6.927 -0.6789  0.0302 -0.6300
  187SLPC   O2221524   2.689   1.752   7.017  0.0596 -0.3040  0.3638
  187SLPC   C2221525   2.861   1.889   6.919 -0.5089 -0.1498  0.2796
  187SLPC   H2R21526   2.963   1.845   6.909 -0.5645 -0.0434 -0.7752
  187SLPC   H2S21527   2.847   1.948   6.826 -1.0507 -1.2305 -0.3248
  187SLPC    C321528   2.799   1.465   6.940  0.2575 -0.2984 -0.0601
  187SLPC    HX21529   2.846   1.524   7.022  3.3710 -0.6474 -1.5132
  187SLPC    HY21530   2.885   1.442   6.873  2.9895  2.4344  2.3657
  187SLPC   O3121531   2.733   1.343   6.974 -0.4387  0.0986 -0.0221
  187SLPC   C3121532   2.786   1.299   7.098  1.0017  0.2429  0.3451
  187SLPC   O3221533   2.866   1.361   7.163  0.0668  0.3700  0.0311
  187SLPC   C3221534   2.706   1.177   7.135 -0.6923 -0.0290  0.1781
  187SLPC   H2X21535   2.743   1.111   7.054 -3.2026  0.0030 -1.0447
  187SLPC   H2Y21536   2.595   1.187   7.130 -0.7759 -0.9951 -0.0249
  187SLPC   C2321537   2.848   1.971   7.055  0.8767  1.1097  0.1518
  187SLPC   H3R21538   2.840   1.898   7.138 -1.2631 -1.2644 -2.0378
  187SLPC   H3S21539   2.746   2.016   7.050  1.0517  1.3405 -2.0234
  187SLPC   C2421540   2.947   2.085   7.073 -0.4429 -0.0402  0.3918
  187SLPC   H4R21541   2.964   2.142   6.979 -0.4384 -1.0293 -0.2133
  187SLPC   H4S21542   3.044   2.039   7.101 -0.9265  0.0596  2.2821
  187SLPC   C2521543   2.916   2.176   7.192  0.4727  0.4161 -0.1896
  187SLPC   H5R21544   2.811   2.207   7.172 -0.0305 -1.4761 -0.6208
  187SLPC   H5S21545   2.988   2.257   7.216  0.4330  0.2530  0.5191
  187SLPC   C2621546   2.910   2.098   7.335 -0.8171  0.5585  0.1100
  187SLPC   H6R21547   2.999   2.035   7.355 -0.4472  0.6554 -1.1702
  187SLPC   H6S21548   2.829   2.023   7.343  0.9127 -1.4775 -1.1901
  187SLPC   C2721549   2.897   2.192   7.453  0.1389  0.5536 -0.2310
  187SLPC   H7R21550   2.807   2.250   7.424 -1.5573 -1.3146  1.2274
  187SLPC   H7S21551   2.974   2.272   7.450  0.1332  0.5396 -0.8144
  187SLPC   C2821552   2.868   2.134   7.589 -0.5395  0.2164 -0.1430
  187SLPC   H8R21553   2.813   2.038   7.579  0.3495 -0.0526 -2.7185
  187SLPC   H8S21554   2.808   2.208   7.648  1.4629  2.1773 -0.4956
  187SLPC   C2921555   2.988   2.110   7.675 -0.2584  0.4807 -0.3801
  187SLPC   H9R21556   3.049   2.197   7.701 -1.7493  1.4715 -0.1211
  187SLPC  C21021557   3.018   1.986   7.721 -0.0159  0.0791 -0.3011
  187SLPC  H10R21558   3.107   1.977   7.786 -0.5751  1.7676  0.7510
  187SLPC  C21121559   2.936   1.865   7.694 -0.5522  0.2681  0.1470
  187SLPC  H11R21560   2.928   1.843   7.585 -0.5732  0.1580  0.1705
  187SLPC  H11S21561   2.838   1.897   7.735 -0.4119 -0.0928  0.7568
  187SLPC  C21221562   2.992   1.741   7.748 -0.1563  0.3289 -0.9582
  187SLPC  H12R21563   3.058   1.753   7.835 -2.7886  3.2486  0.7570
  187SLPC  C21321564   2.963   1.618   7.703  0.1402  0.5674 -0.2176
  187SLPC  H13R21565   2.996   1.529   7.758  1.1342 -0.4217 -2.3591
  187SLPC  C21421566   2.862   1.587   7.593  0.3760  0.4616 -0.7690
  187SLPC  H14R21567   2.798   1.669   7.553 -1.9499 -0.9727 -0.0873
  187SLPC  H14S21568   2.779   1.526   7.636 -0.3376  3.0425  1.6932
  187SLPC  C21521569   2.934   1.518   7.481  0.5416  0.1361  0.4793
  187SLPC  H15R21570   2.871   1.486   7.395  0.4088  1.9696 -0.1232
  187SLPC  H15S21571   2.975   1.426   7.527 -0.0611  0.3408  1.4284
  187SLPC  C21621572   3.042   1.604   7.415 -0.1196  0.5002 -0.4262
  187SLPC  H16R21573   3.114   1.530   7.373 -1.4428  0.1871 -2.1855
  187SLPC  H16S21574   3.100   1.663   7.489  1.7954 -2.5600  0.6211
  187SLPC  C21721575   2.987   1.710   7.317  0.1596  0.2773 -0.1774
  187SLPC  H17R21576   2.937   1.799   7.360  1.6706  0.8613  0.4038
  187SLPC  H17S21577   2.905   1.656   7.265  0.5576 -0.9027  0.3931
  187SLPC  C21821578   3.095   1.758   7.224 -0.1994  0.4929 -0.0113
  187SLPC  H18R21579   3.134   1.669   7.172 -1.2764  0.3140 -0.5273
  187SLPC  H18S21580   3.167   1.818   7.284  0.0280  0.4994 -0.2883
  187SLPC  H18T21581   3.057   1.830   7.148 -0.8360 -0.6710 -0.7913
  187SLPC   C3321582   2.745   1.109   7.261 -0.5276  0.2575 -0.0460
  187SLPC   H3X21583   2.855   1.119   7.278 -0.1413 -1.0910 -1.5937
  187SLPC   H3Y21584   2.732   1.000   7.269  1.7244 -0.0829 -0.5390
  187SLPC   C3421585   2.676   1.173   7.382 -0.1667 -0.3070 -0.3234
  187SLPC   H4X21586   2.567   1.182   7.362 -0.1708  1.3342  0.3768
  187SLPC   H4Y21587   2.710   1.278   7.395 -0.2982 -0.5932  2.5834
  187SLPC   C3521588   2.698   1.104   7.518  0.2175  0.0871 -0.3944
  187SLPC   H5X21589   2.808   1.085   7.523  0.4941  1.7082 -0.1733
  187SLPC   H5Y21590   2.664   1.000   7.500  1.0545 -0.4327  0.9980
  187SLPC   C3621591   2.638   1.166   7.650  0.1296  0.4984  0.3802
  187SLPC   H6X21592   2.696   1.253   7.688 -0.1238 -0.1141  2.2447
  187SLPC   H6Y21593   2.645   1.093   7.734 -2.9759 -0.9770 -0.5780
  187SLPC   C3721594   2.495   1.221   7.635  1.0964 -0.5297 -0.3607
  187SLPC   H7X21595   2.487   1.290   7.549  0.8401 -1.5555 -1.1698
  187SLPC   H7Y21596   2.420   1.143   7.609 -2.4883  3.1448 -1.4485
  187SLPC   C3821597   2.462   1.298   7.765  0.1161 -0.2191 -0.2141
  187SLPC   H8X21598   2.518   1.393   7.754 -1.0951  0.4067 -1.1151
  187SLPC   H8Y21599   2.493   1.247   7.858  1.2421 -0.1778 -0.5578
  187SLPC   C3921600   2.307   1.343   7.771 -0.4717  0.5705 -0.1295
  187SLPC   H9X21601   2.258   1.248   7.800  2.4809 -1.1459 -0.6321
  187SLPC   H9Y21602   2.274   1.376   7.670  0.8492  5.4854  0.9232
  187SLPC  C31021603   2.280   1.470   7.858  0.6336 -0.0409 -0.5454
  187SLPC  H10X21604   2.173   1.496   7.872  0.9646  0.8730  0.3252
  187SLPC  H10Y21605   2.337   1.549   7.805 -0.3433  0.0185 -1.5349
  187SLPC  C31121606   2.333   1.449   8.001 -0.3694 -0.4063 -0.3861
  187SLPC  H11X21607   2.293   1.530   8.064  0.0240 -1.9809  1.9687
  187SLPC  H11Y21608   2.444   1.450   8.000 -0.3519 -0.8234  0.6959
  187SLPC  C31221609   2.276   1.318   8.071 -0.5337 -0.4869  0.2133
  187SLPC  H12X21610   2.319   1.230   8.018  3.3890  0.4378  1.6748
  187SLPC  H12Y21611   2.167   1.312   8.048  0.2603 -0.4583 -3.8774
  187SLPC  C31321612   2.305   1.300   8.221  0.6067 -0.3324 -0.2925
  187SLPC  H13X21613   2.395   1.355   8.255  1.1105 -1.8720  0.8626
  187SLPC  H13Y21614   2.315   1.191   8.239  0.6363 -0.9004 -3.3585
  187SLPC  C31421615   2.197   1.352   8.314 -0.1899 -1.1186  0.0986
  187SLPC  H14X21616   2.100   1.325   8.268 -0.4371 -0.5885  0.3021
  187SLPC  H14Y21617   2.210   1.462   8.311 -2.9678 -0.7268  1.2658
  187SLPC  C31521618   2.202   1.309   8.461 -0.3302 -0.2472 -0.3394
  187SLPC  H15X21619   2.305   1.298   8.502 -0.1781 -0.6723 -0.8323
  187SLPC  H15Y21620   2.160   1.207   8.472  2.0491 -1.2308 -0.0768
  187SLPC  C31621621   2.120   1.402   8.557  0.1425 -0.3100 -0.0606
  187SLPC  H16X21622   2.016   1.400   8.518  0.7962  0.1364 -1.9043
  187SLPC  H16Y21623   2.153   1.509   8.558  1.7051 -0.7581 -1.1120
  187SLPC  C31721624   2.120   1.358   8.706 -0.1674 -0.4015  0.0969
  187SLPC  H17X21625   2.033   1.408   8.753  0.0001 -1.9785  2.2141
  187SLPC  H17Y21626   2.215   1.387   8.757  0.0903  0.5891 -0.9389
  187SLPC  C31821627   2.106   1.209   8.733 -0.8959  1.0392  0.6546
  187SLPC  H18X21628   2.077   1.190   8.838  2.1473  0.2198  1.4157
  187SLPC  H18Y21629   2.202   1.158   8.706 -1.2066  1.7256 -1.8542
  187SLPC  H18Z21630   2.027   1.161   8.672  0.4124  0.6283 -0.7746
  188SLPC     N21631   4.008   3.180   6.139 -0.2566 -0.2919 -0.1499
  188SLPC   C1321632   3.901   3.253   6.062 -0.6016  0.4615 -0.5886
  188SLPC  H13A21633   3.923   3.241   5.957 -1.7258 -0.4193 -0.7384
  188SLPC  H13B21634   3.807   3.208   6.089  0.2415 -0.9346  0.1589
  188SLPC  H13C21635   3.892   3.354   6.097 -0.3325 -0.0443  0.9967
  188SLPC   C1421636   4.137   3.253   6.115 -0.4055  0.2928 -0.3723
  188SLPC  H14A21637   4.154   3.279   6.012 -0.8678  0.5129 -0.3979
  188SLPC  H14B21638   4.138   3.339   6.179 -0.6380 -0.3644  0.5325
  188SLPC  H14C21639   4.222   3.193   6.143 -1.4786 -2.0531 -1.8841
  188SLPC   C1521640   4.018   3.042   6.088 -0.9200 -0.3667  0.2794
  188SLPC  H15A21641   3.929   2.983   6.101  0.6910 -2.7351  1.0856
  188SLPC  H15B21642   4.047   3.041   5.984 -1.0248  0.4799  0.2369
  188SLPC  H15C21643   4.092   2.981   6.138  1.5830 -0.7994 -3.7311
  188SLPC   C1221644   3.977   3.177   6.288 -0.1326  0.5586 -0.9997
  188SLPC  H12A21645   4.069   3.140   6.329 -0.2631  1.8486  0.4908
  188SLPC  H12B21646   3.898   3.106   6.310  1.6947 -1.3649 -0.5522
  188SLPC   C1121647   3.952   3.305   6.370  0.6678 -0.4612  1.0490
  188SLPC  H11A21648   3.913   3.276   6.470 -0.2183 -1.9476  0.2915
  188SLPC  H11B21649   3.863   3.356   6.327  1.0360  1.2528  2.2872
  188SLPC     P21650   4.177   3.337   6.493  0.0770 -0.3461 -0.2940
  188SLPC   O1321651   4.188   3.188   6.502 -0.3712  0.6348  0.5661
  188SLPC   O1421652   4.305   3.410   6.466 -0.6945 -0.8314 -0.6039
  188SLPC   O1221653   4.074   3.378   6.384  0.5722 -0.1583 -0.2679
  188SLPC   O1121654   4.105   3.394   6.619 -0.0762  0.6398 -0.2220
  188SLPC    C121655   4.063   3.532   6.615  0.4090  1.0245 -0.3624
  188SLPC    HA21656   4.147   3.600   6.591  0.0930  1.1068 -1.2509
  188SLPC    HB21657   3.985   3.551   6.538  0.4020 -0.7646 -0.8323
  188SLPC    C221658   3.999   3.584   6.737  0.3598 -0.4680 -0.0948
  188SLPC    HS21659   3.983   3.694   6.735 -1.8649 -0.6662  2.7997
  188SLPC   O2121660   4.076   3.548   6.855  0.4269 -0.1980  0.1928
  188SLPC   C2121661   4.175   3.627   6.876  0.0764  0.0937 -0.2997
  188SLPC   O2221662   4.209   3.717   6.802  0.4457  0.1068 -0.7068
  188SLPC   C2221663   4.257   3.595   7.004  0.7331  0.0908 -0.5810
  188SLPC   H2R21664   4.359   3.555   6.985  0.7507  0.0384 -0.3778
  188SLPC   H2S21665   4.275   3.693   7.054 -0.3427 -0.1138  0.2230
  188SLPC    C321666   3.858   3.519   6.762  0.1833  0.6316  0.7989
  188SLPC    HX21667   3.871   3.414   6.794 -0.8586  0.0276 -0.7392
  188SLPC    HY21668   3.797   3.522   6.670 -0.6617 -2.2646  1.2399
  188SLPC   O3121669   3.784   3.576   6.866 -0.1806 -0.5640  0.3397
  188SLPC   C3121670   3.714   3.677   6.840  0.1635 -0.1917 -0.1687
  188SLPC   O3221671   3.703   3.725   6.726 -0.6283 -0.3130 -0.2301
  188SLPC   C3221672   3.617   3.722   6.960 -0.0487  0.3533  1.1537
  188SLPC   H2X21673   3.521   3.730   6.906  1.4967  0.4976 -1.6809
  188SLPC   H2Y21674   3.647   3.825   6.989  1.3962  0.1450  0.4409
  188SLPC   C2321675   4.192   3.515   7.127 -0.2539 -0.1377  1.4375
  188SLPC   H3R21676   4.198   3.411   7.089 -0.3905  0.3331  0.1118
  188SLPC   H3S21677   4.091   3.556   7.148 -0.5440  1.8755 -3.2907
  188SLPC   C2421678   4.284   3.504   7.252 -0.9729  0.0740  0.0699
  188SLPC   H4R21679   4.229   3.445   7.328 -1.6868 -1.3768 -1.5312
  188SLPC   H4S21680   4.303   3.606   7.290  0.7544 -0.5150  0.8180
  188SLPC   C2521681   4.429   3.450   7.232 -0.0209  0.0761 -0.2319
  188SLPC   H5R21682   4.482   3.525   7.170 -1.8187  1.1016 -0.5702
  188SLPC   H5S21683   4.441   3.352   7.182  1.2275  0.6003 -0.9890
  188SLPC   C2621684   4.518   3.466   7.361 -0.3436 -0.0838 -0.5603
  188SLPC   H6R21685   4.496   3.567   7.402  1.5534  0.5709 -1.1197
  188SLPC   H6S21686   4.626   3.445   7.349 -0.3781 -1.3945  1.1785
  188SLPC   C2721687   4.472   3.367   7.470 -0.1557  0.1158  0.4183
  188SLPC   H7R21688   4.493   3.262   7.438 -0.4217 -0.0319  0.7304
  188SLPC   H7S21689   4.370   3.398   7.499 -0.9349 -2.1402  0.1773
  188SLPC   C2821690   4.537   3.390   7.605 -0.1191  0.0819  0.6096
  188SLPC   H8R21691   4.472   3.333   7.675 -1.1054 -1.1988 -1.3014
  188SLPC   H8S21692   4.523   3.493   7.642  0.6981  0.8661 -1.2127
  188SLPC   C2921693   4.688   3.369   7.610  0.9326  0.0264 -0.1089
  188SLPC   H9R21694   4.756   3.421   7.541  1.0394  1.5794  1.1507
  188SLPC  C21021695   4.745   3.288   7.701  1.0470  0.1607 -0.5595
  188SLPC  H10R21696   4.854   3.288   7.690  0.8690  1.1199 -2.5975
  188SLPC  C21121697   4.676   3.209   7.813  0.5381  0.0760 -0.0194
  188SLPC  H11R21698   4.701   3.101   7.814 -1.8924 -0.5260 -1.5786
  188SLPC  H11S21699   4.565   3.209   7.809  0.5683 -1.5070 -1.4797
  188SLPC  C21221700   4.706   3.268   7.950 -0.7950  0.4685  0.4240
  188SLPC  H12R21701   4.632   3.336   7.995 -0.9114 -0.2150  1.2824
  188SLPC  C21321702   4.810   3.235   8.026 -0.0591  0.6002  0.5128
  188SLPC  H13R21703   4.817   3.284   8.124  1.2532 -1.6934  1.6107
  188SLPC  C21421704   4.926   3.139   7.994  0.8965  0.1111  0.8194
  188SLPC  H14R21705   5.022   3.191   8.018  0.8012 -0.1674  1.8564
  188SLPC  H14S21706   4.933   3.107   7.888  0.5041 -0.1481  0.8727
  188SLPC  C21521707   4.913   3.016   8.077 -0.1559  0.4604 -0.0301
  188SLPC  H15R21708   4.829   2.952   8.043 -1.5252  2.4517 -0.5111
  188SLPC  H15S21709   4.903   3.019   8.188 -2.5116 -1.5986 -0.1498
  188SLPC  C21621710   5.042   2.933   8.059 -0.5720  0.1900 -0.7837
  188SLPC  H16R21711   5.136   2.975   8.102 -1.0593  0.2623  0.2158
  188SLPC  H16S21712   5.058   2.923   7.950  0.1239  0.4613 -0.7135
  188SLPC  C21721713   5.037   2.790   8.130  0.8750 -0.8422 -0.3845
  188SLPC  H17R21714   4.928   2.769   8.141  0.1703  2.2801 -0.7527
  188SLPC  H17S21715   5.081   2.795   8.232  2.0483  1.0147 -0.9508
  188SLPC  C21821716   5.104   2.686   8.047  0.4107 -0.8236  0.1736
  188SLPC  H18R21717   5.108   2.585   8.094  0.1462 -0.3891  1.1290
  188SLPC  H18S21718   5.208   2.717   8.027  0.2663 -0.0577  0.6098
  188SLPC  H18T21719   5.057   2.664   7.948 -1.8981 -0.2081  1.0907
  188SLPC   C3321720   3.607   3.629   7.077 -0.4817 -0.0971  0.0123
  188SLPC   H3X21721   3.712   3.606   7.106 -0.1149  0.1155 -1.1261
  188SLPC   H3Y21722   3.553   3.538   7.041  1.0737 -1.0455  0.0269
  188SLPC   C3421723   3.526   3.689   7.196 -0.6212 -0.1551  0.1789
  188SLPC   H4X21724   3.431   3.717   7.146  0.8684  1.6953 -1.6975
  188SLPC   H4Y21725   3.595   3.766   7.235  0.1054  0.4078 -2.1580
  188SLPC   C3521726   3.514   3.588   7.310  0.1426 -0.7818 -0.3335
  188SLPC   H5X21727   3.618   3.552   7.323  0.0236 -0.4934  1.4421
  188SLPC   H5Y21728   3.443   3.507   7.285 -1.1472 -0.2054  1.3997
  188SLPC   C3621729   3.454   3.633   7.447  0.1108  0.1813 -0.4835
  188SLPC   H6X21730   3.439   3.539   7.504 -0.8100 -0.7808 -2.2910
  188SLPC   H6Y21731   3.351   3.668   7.424  0.1172 -1.7680 -3.6820
  188SLPC   C3721732   3.541   3.715   7.546 -0.5364 -0.0861 -0.0540
  188SLPC   H7X21733   3.484   3.763   7.629 -1.6550  0.6997 -1.2440
  188SLPC   H7Y21734   3.577   3.807   7.495  1.1200 -0.3342  0.6318
  188SLPC   C3821735   3.669   3.639   7.603 -0.4118  0.7176 -0.2839
  188SLPC   H8X21736   3.746   3.710   7.639  0.4773 -0.0219 -0.6864
  188SLPC   H8Y21737   3.702   3.578   7.516  2.1093  0.1601  0.9961
  188SLPC   C3921738   3.639   3.548   7.725 -0.3719 -0.4041  0.1509
  188SLPC   H9X21739   3.604   3.447   7.695  1.4210 -1.1623  0.5590
  188SLPC   H9Y21740   3.556   3.594   7.783  1.5594  2.1476  0.9706
  188SLPC  C31021741   3.743   3.519   7.824  0.5236  0.2519 -0.5848
  188SLPC  H10X21742   3.805   3.610   7.839  0.4608  0.2232 -0.1717
  188SLPC  H10Y21743   3.815   3.439   7.797  0.0004 -1.1894  2.1127
  188SLPC  C31121744   3.698   3.488   7.965  0.0242 -0.3193 -1.1955
  188SLPC  H11X21745   3.670   3.380   7.965  1.0657 -0.6054 -2.0875
  188SLPC  H11Y21746   3.605   3.541   7.992  0.6415  0.5125 -0.6641
  188SLPC  C31221747   3.808   3.511   8.074  0.4337  0.4446  0.4238
  188SLPC  H12X21748   3.834   3.618   8.085 -0.9478  1.0673 -1.9309
  188SLPC  H12Y21749   3.894   3.457   8.028  0.0969  0.4928 -0.2796
  188SLPC  C31321750   3.765   3.460   8.210  0.0517 -0.2213  1.0566
  188SLPC  H13X21751   3.708   3.366   8.194  1.0250 -0.6009 -0.2921
  188SLPC  H13Y21752   3.699   3.533   8.262 -2.6688 -2.2287  0.5447
  188SLPC  C31421753   3.878   3.408   8.297 -0.7683 -0.2542  0.6056
  188SLPC  H14X21754   3.944   3.489   8.335  0.4096 -1.1743  0.5561
  188SLPC  H14Y21755   3.947   3.348   8.234 -2.1797  0.0259 -1.2575
  188SLPC  C31521756   3.833   3.321   8.412  0.5971  0.7129  0.2611
  188SLPC  H15X21757   3.798   3.221   8.376  0.7450  0.3708  1.0652
  188SLPC  H15Y21758   3.752   3.381   8.458  0.5538  1.0511 -0.2563
  188SLPC  C31621759   3.941   3.298   8.521 -0.2826 -0.4865  0.3961
  188SLPC  H16X21760   3.916   3.373   8.599 -0.6098 -0.9858  0.7707
  188SLPC  H16Y21761   4.045   3.330   8.497  0.5379 -1.7671  2.1357
  188SLPC  C31721762   3.950   3.155   8.580 -0.3927  0.4385  0.0461
  188SLPC  H17X21763   3.958   3.080   8.499 -1.2348  1.1615 -0.7153
  188SLPC  H17Y21764   3.853   3.135   8.630  0.4329  1.9180  2.3281
  188SLPC  C31821765   4.058   3.153   8.682 -0.5249 -0.4258  0.6469
  188SLPC  H18X21766   4.053   3.248   8.738  0.0033 -0.1857  0.2961
  188SLPC  H18Y21767   4.159   3.160   8.635  0.1632  2.9531  2.4601
  188SLPC  H18Z21768   4.052   3.065   8.749  1.6470 -0.7672  0.4264
  189SLPC     N21769   5.716   6.236   6.105  0.0787  0.3296  0.1313
  189SLPC   C1321770   5.858   6.206   6.077  0.1529 -0.1528 -0.0331
  189SLPC  H13A21771   5.912   6.199   6.170 -0.7716 -2.4555  0.3597
  189SLPC  H13B21772   5.871   6.113   6.025  2.4369  0.5655 -0.8040
  189SLPC  H13C21773   5.894   6.292   6.022 -1.3162  0.5499  0.0780
  189SLPC   C1421774   5.646   6.226   5.967  0.6934 -0.0608 -0.4253
  189SLPC  H14A21775   5.540   6.240   5.979 -0.1662 -4.4933 -1.9164
  189SLPC  H14B21776   5.698   6.297   5.904 -0.0994  0.1791 -0.8148
  189SLPC  H14C21777   5.658   6.122   5.938  2.1892 -0.2100  0.6468
  189SLPC   C1521778   5.701   6.374   6.153 -0.2344  0.5597  0.3967
  189SLPC  H15A21779   5.596   6.396   6.162 -0.2951  1.1246 -1.3272
  189SLPC  H15B21780   5.756   6.402   6.242  0.8626  0.0994 -0.1274
  189SLPC  H15C21781   5.735   6.444   6.077 -3.0216  0.1869 -1.2546
  189SLPC   C1221782   5.648   6.137   6.198  0.5361  0.5380 -0.4319
  189SLPC  H12A21783   5.645   6.043   6.146  0.3040  0.6821 -0.6772
  189SLPC  H12B21784   5.544   6.164   6.207  0.1333 -0.9239 -0.4953
  189SLPC   C1121785   5.721   6.124   6.334 -0.5180 -0.0439  0.3144
  189SLPC  H11A21786   5.655   6.069   6.405  1.3129  1.2030  3.0766
  189SLPC  H11B21787   5.733   6.229   6.370 -2.2446  0.8299 -1.6015
  189SLPC     P21788   5.822   5.891   6.274  0.3570 -0.0518  0.2176
  189SLPC   O1321789   5.681   5.858   6.232  0.0408  0.2640  0.2910
  189SLPC   O1421790   5.940   5.861   6.189  0.6066 -0.3101 -0.4803
  189SLPC   O1221791   5.839   6.043   6.315  0.0726  0.3408  0.0081
  189SLPC   O1121792   5.841   5.808   6.405 -0.2959 -0.6171 -0.1314
  189SLPC    C121793   5.953   5.838   6.490 -0.1942 -0.0589 -0.1674
  189SLPC    HA21794   5.991   5.737   6.519  1.7042  0.3457 -1.1509
  189SLPC    HB21795   6.040   5.888   6.443 -0.9253  0.5175 -0.9261
  189SLPC    C221796   5.906   5.912   6.619 -0.1443  0.0494 -0.1354
  189SLPC    HS21797   5.904   6.021   6.602  0.5295  0.2735  1.1710
  189SLPC   O2121798   6.008   5.882   6.722 -0.1257 -0.0525 -0.4980
  189SLPC   C2121799   6.037   5.964   6.817  0.2143  0.4936 -0.0080
  189SLPC   O2221800   5.986   6.075   6.830 -0.2110 -0.5355 -0.2206
  189SLPC   C2221801   6.135   5.900   6.908  0.1319  0.0156  0.0963
  189SLPC   H2R21802   6.161   5.796   6.881 -0.0388  0.1472 -0.6057
  189SLPC   H2S21803   6.234   5.945   6.883 -0.5913  1.9497  0.6296
  189SLPC    C321804   5.759   5.880   6.664  0.7008  0.0792  0.0108
  189SLPC    HX21805   5.725   5.775   6.651 -0.0270  0.5158 -1.6769
  189SLPC    HY21806   5.702   5.936   6.588  2.4228  0.2516 -1.1812
  189SLPC   O3121807   5.727   5.932   6.797 -0.3091 -0.2351 -0.0834
  189SLPC   C3121808   5.715   5.854   6.893  0.5116 -1.1571  0.5398
  189SLPC   O3221809   5.679   5.736   6.881 -0.1564  0.2330  0.1850
  189SLPC   C3221810   5.751   5.925   7.027 -0.3846  0.3025 -1.0262
  189SLPC   H2X21811   5.681   6.010   7.046 -0.8542 -0.3421  0.1636
  189SLPC   H2Y21812   5.856   5.963   7.021 -0.0074 -0.3288  1.1340
  189SLPC   C2321813   6.116   5.919   7.054 -0.2950 -0.0174 -0.0126
  189SLPC   H3R21814   6.030   5.854   7.080  0.2484 -0.0918  1.6952
  189SLPC   H3S21815   6.071   6.018   7.077 -1.0776 -0.2568 -0.5185
  189SLPC   C2421816   6.246   5.886   7.129 -0.1138  0.3078 -0.0831
  189SLPC   H4R21817   6.320   5.967   7.116 -0.5289  0.7390  0.2625
  189SLPC   H4S21818   6.287   5.792   7.085 -0.2759  0.3518 -0.3314
  189SLPC   C2521819   6.209   5.853   7.277 -0.4571  0.3789  0.0958
  189SLPC   H5R21820   6.139   5.767   7.275 -0.5559  0.4597 -2.6480
  189SLPC   H5S21821   6.141   5.935   7.309 -0.8010 -0.1762  0.7766
  189SLPC   C2621822   6.325   5.859   7.368 -0.1671  0.4692 -0.1800
  189SLPC   H6R21823   6.397   5.942   7.354  0.8465 -0.3140  0.3031
  189SLPC   H6S21824   6.380   5.765   7.343 -0.0371  0.7013 -0.7688
  189SLPC   C2721825   6.274   5.847   7.509 -0.1647  0.1902  0.7147
  189SLPC   H7R21826   6.200   5.764   7.517 -0.8186  0.5848 -0.9878
  189SLPC   H7S21827   6.215   5.938   7.533 -1.9783 -1.1020  1.3066
  189SLPC   C2821828   6.393   5.836   7.613  0.7545  0.4705  0.4140
  189SLPC   H8R21829   6.487   5.872   7.566  0.8012  0.1969  0.2946
  189SLPC   H8S21830   6.415   5.727   7.615  3.1826  0.9359  0.4167
  189SLPC   C2921831   6.360   5.922   7.740 -0.1356 -0.2183  0.4120
  189SLPC   H9R21832   6.332   6.024   7.711  2.5182  0.4721  0.0871
  189SLPC  C21021833   6.361   5.882   7.867  0.9277  0.2170  0.1501
  189SLPC  H10R21834   6.346   5.954   7.948 -1.5150 -2.0846  1.8439
  189SLPC  C21121835   6.399   5.744   7.916 -0.4577 -0.5969  0.6270
  189SLPC  H11R21836   6.460   5.754   8.009 -0.9890 -0.2819  0.9392
  189SLPC  H11S21837   6.473   5.695   7.849  1.3975  0.0914  2.1291
  189SLPC  C21221838   6.283   5.643   7.930 -0.1318  0.5650  0.2302
  189SLPC  H12R21839   6.267   5.585   7.838 -4.0601  0.4439  0.9041
  189SLPC  C21321840   6.210   5.621   8.040  1.1381  0.3303 -0.4029
  189SLPC  H13R21841   6.143   5.534   8.048  3.1770 -1.1072  1.6360
  189SLPC  C21421842   6.218   5.691   8.173  0.3050 -0.1377 -0.7268
  189SLPC  H14R21843   6.135   5.765   8.186 -0.5932 -1.0148 -1.3588
  189SLPC  H14S21844   6.318   5.735   8.191  0.2996  0.8618 -3.0094
  189SLPC  C21521845   6.196   5.583   8.278  0.7858  0.8130 -1.1208
  189SLPC  H15R21846   6.245   5.486   8.255  0.0360 -0.4990  2.4971
  189SLPC  H15S21847   6.089   5.554   8.283  1.4129 -1.5705 -0.9921
  189SLPC  C21621848   6.252   5.627   8.418 -0.4894  0.2445 -0.3771
  189SLPC  H16R21849   6.236   5.736   8.429  0.4409  0.1864  1.7622
  189SLPC  H16S21850   6.362   5.641   8.422 -0.3970 -0.5126 -0.1449
  189SLPC  C21721851   6.194   5.548   8.538 -0.0044 -0.4469  0.4782
  189SLPC  H17R21852   6.223   5.441   8.539  2.1884  0.1157  0.2428
  189SLPC  H17S21853   6.085   5.549   8.555 -0.2589 -0.2684 -1.0566
  189SLPC  C21821854   6.253   5.622   8.663  0.3965  0.1149 -0.1400
  189SLPC  H18R21855   6.212   5.725   8.668 -1.0113 -0.4295 -0.0432
  189SLPC  H18S21856   6.363   5.613   8.659  0.4187 -0.0047  0.6279
  189SLPC  H18T21857   6.219   5.566   8.753  0.6352  0.2071  0.0060
  189SLPC   C3321858   5.742   5.827   7.143  0.5579  0.0865  0.3013
  189SLPC   H3X21859   5.818   5.748   7.123 -1.4582 -1.4176 -1.7241
  189SLPC   H3Y21860   5.640   5.787   7.159 -0.7894  2.3777 -2.2777
  189SLPC   C3421861   5.787   5.892   7.273 -0.3183 -0.5916 -0.1903
  189SLPC   H4X21862   5.707   5.963   7.303 -0.1455 -1.0679  1.4126
  189SLPC   H4Y21863   5.881   5.945   7.251  0.3843 -1.5203  0.5179
  189SLPC   C3521864   5.811   5.789   7.386 -0.0398  0.2392  0.1148
  189SLPC   H5X21865   5.875   5.711   7.339 -1.2532 -1.0210  0.5053
  189SLPC   H5Y21866   5.719   5.739   7.425 -0.5223  1.0081 -0.0191
  189SLPC   C3621867   5.883   5.844   7.516  0.1702 -0.0855 -0.7541
  189SLPC   H6X21868   5.821   5.931   7.547  0.6444 -0.3520  0.9938
  189SLPC   H6Y21869   5.976   5.887   7.472  0.2175  0.1358 -0.4399
  189SLPC   C3721870   5.911   5.742   7.630  0.1292 -0.5075 -0.3705
  189SLPC   H7X21871   5.972   5.660   7.587  1.4858  0.7704 -0.9387
  189SLPC   H7Y21872   5.810   5.709   7.663  1.1042 -1.7224  1.5222
  189SLPC   C3821873   5.987   5.811   7.747  0.4955  0.4335  0.1873
  189SLPC   H8X21874   6.057   5.881   7.698  0.4168  0.8292  0.6382
  189SLPC   H8Y21875   6.048   5.739   7.805  0.0178  0.9574  1.3540
  189SLPC   C3921876   5.901   5.893   7.850 -0.1376 -0.1511  0.5199
  189SLPC   H9X21877   5.844   5.829   7.920 -0.9559  1.6234  1.5128
  189SLPC   H9Y21878   5.827   5.946   7.786  2.3782  1.5093 -1.1187
  189SLPC  C31021879   5.992   5.986   7.930 -0.2574  0.3580 -0.3836
  189SLPC  H10X21880   6.056   6.053   7.870  0.0588  2.7567  2.5335
  189SLPC  H10Y21881   6.061   5.913   7.979  0.2748  2.1148  1.5487
  189SLPC  C31121882   5.922   6.062   8.044  0.2221  0.0213  0.4930
  189SLPC  H11X21883   5.843   6.124   7.996  0.0809  1.1013  2.0770
  189SLPC  H11Y21884   5.993   6.128   8.098 -1.1894  0.1483  2.2619
  189SLPC  C31221885   5.856   5.973   8.153 -0.1890  0.1801  0.5911
  189SLPC  H12X21886   5.931   5.922   8.218 -0.1191 -0.0852  0.3072
  189SLPC  H12Y21887   5.803   5.890   8.102 -1.0299 -0.2800  2.1606
  189SLPC  C31321888   5.766   6.047   8.250  0.5060 -0.5907 -0.2325
  189SLPC  H13X21889   5.688   6.105   8.197  1.4512  1.2486  0.3360
  189SLPC  H13Y21890   5.822   6.125   8.306 -0.8211  2.0371 -2.4265
  189SLPC  C31421891   5.688   5.960   8.348 -0.2137  0.7332  0.5481
  189SLPC  H14X21892   5.762   5.912   8.415  0.3435 -0.3732 -0.8316
  189SLPC  H14Y21893   5.632   5.874   8.304  0.0413  0.6580  0.3732
  189SLPC  C31521894   5.594   6.021   8.454 -0.0852 -1.5555  0.5567
  189SLPC  H15X21895   5.548   5.940   8.515  0.3786 -1.2937  1.2599
  189SLPC  H15Y21896   5.516   6.081   8.405  0.7950 -0.8790 -0.0298
  189SLPC  C31621897   5.679   6.101   8.554  0.4644  0.4462  0.3839
  189SLPC  H16X21898   5.749   6.177   8.514  2.5591 -0.0494  2.9228
  189SLPC  H16Y21899   5.740   6.019   8.598 -0.6428 -0.5631  0.0649
  189SLPC  C31721900   5.607   6.164   8.673 -0.4956 -0.3667 -0.3495
  189SLPC  H17X21901   5.661   6.182   8.768 -1.6312  1.0029  0.0577
  189SLPC  H17Y21902   5.524   6.092   8.692 -0.8657  0.3409  0.7420
  189SLPC  C31821903   5.541   6.295   8.627  0.3383  0.3080 -0.2444
  189SLPC  H18X21904   5.611   6.381   8.622 -0.4783  0.9820 -0.2218
  189SLPC  H18Y21905   5.463   6.328   8.698  1.3762  2.1140  0.0886
  189SLPC  H18Z21906   5.494   6.281   8.527  2.7301  0.3686 -1.4107
  190SLPC     N21907   6.797   5.266   6.172 -0.8767  0.0960 -0.5819
  190SLPC   C1321908   6.925   5.250   6.092 -0.3056 -0.2626  0.0687
  190SLPC  H13A21909   7.017   5.272   6.144  0.6720 -1.4653 -1.1530
  190SLPC  H13B21910   6.926   5.150   6.052 -0.7591  0.2570 -1.2909
  190SLPC  H13C21911   6.921   5.313   6.004  1.6961 -0.5007 -0.2123
  190SLPC   C1421912   6.697   5.182   6.103 -0.0534  0.2193 -0.2990
  190SLPC  H14A21913   6.674   5.220   6.004 -0.1290  1.7211  0.2847
  190SLPC  H14B21914   6.721   5.077   6.116  3.2435  1.0447  0.4686
  190SLPC  H14C21915   6.605   5.184   6.160 -0.8659 -2.7644 -1.3867
  190SLPC   C1521916   6.755   5.408   6.164  0.3085  0.1804  0.7659
  190SLPC  H15A21917   6.813   5.479   6.221  1.2067  0.0124  0.0859
  190SLPC  H15B21918   6.756   5.452   6.065 -0.4395  0.3055  0.8150
  190SLPC  H15C21919   6.655   5.418   6.203  0.0004  2.4374 -0.5110
  190SLPC   C1221920   6.831   5.219   6.312  0.4337 -0.5625 -1.4240
  190SLPC  H12A21921   6.910   5.278   6.354 -2.7017  1.9336  1.2589
  190SLPC  H12B21922   6.868   5.117   6.311 -0.6672 -1.0390  1.0149
  190SLPC   C1121923   6.707   5.207   6.414  0.2230 -0.5609 -0.2903
  190SLPC  H11A21924   6.751   5.180   6.512 -0.0511  3.3406  0.9919
  190SLPC  H11B21925   6.652   5.121   6.370  0.1701  0.3893 -2.1563
  190SLPC     P21926   6.480   5.316   6.500  0.0634  0.0419  0.1335
  190SLPC   O1321927   6.511   5.311   6.641  0.4738  0.5704 -0.5050
  190SLPC   O1421928   6.395   5.429   6.455 -0.4857  0.0930  0.1536
  190SLPC   O1221929   6.621   5.319   6.423  0.1480 -0.1340  0.3628
  190SLPC   O1121930   6.418   5.179   6.446 -0.4303 -0.3228 -0.0585
  190SLPC    C121931   6.273   5.169   6.449 -0.1999 -0.4171  0.6945
  190SLPC    HA21932   6.229   5.249   6.385  0.0885 -0.1868  0.7812
  190SLPC    HB21933   6.255   5.070   6.402  0.9086 -0.6391  0.7032
  190SLPC    C221934   6.208   5.164   6.585  0.1581  0.4884  0.0766
  190SLPC    HS21935   6.198   5.272   6.609 -0.6301  0.8150 -1.6358
  190SLPC   O2121936   6.297   5.092   6.676  0.0017 -0.1474 -0.2202
  190SLPC   C2121937   6.312   5.156   6.791 -0.2237  0.4212  0.0669
  190SLPC   O2221938   6.248   5.253   6.821 -0.1977  0.2572 -0.2889
  190SLPC   C2221939   6.412   5.082   6.883  0.8221 -0.6248 -0.4495
  190SLPC   H2R21940   6.403   4.980   6.841 -0.1845 -1.0052  0.6536
  190SLPC   H2S21941   6.508   5.134   6.867  0.8865 -0.0519  1.5682
  190SLPC    C321942   6.067   5.090   6.573 -0.0354 -0.0012 -0.4884
  190SLPC    HX21943   6.091   4.988   6.537 -1.8778 -0.4075 -0.6431
  190SLPC    HY21944   6.003   5.141   6.498 -0.7039 -1.1079 -0.6740
  190SLPC   O3121945   6.006   5.087   6.702 -0.1941  0.0570 -0.5493
  190SLPC   C3121946   5.886   5.026   6.693 -0.6897  0.2461  0.8763
  190SLPC   O3221947   5.844   4.984   6.585 -0.1977  0.2671 -0.2019
  190SLPC   C3221948   5.814   5.033   6.824 -0.8515 -0.0825 -0.2029
  190SLPC   H2X21949   5.740   4.951   6.837 -0.0661 -0.6429  0.8763
  190SLPC   H2Y21950   5.761   5.129   6.837 -0.1025  0.2062  0.7858
  190SLPC   C2321951   6.376   5.080   7.036 -0.7397 -0.1128 -0.6490
  190SLPC   H3R21952   6.275   5.034   7.045  1.0280 -3.9214  0.8855
  190SLPC   H3S21953   6.372   5.187   7.068  1.5974 -0.6140  1.4536
  190SLPC   C2421954   6.468   5.003   7.129 -0.6790  0.3723  0.5332
  190SLPC   H4R21955   6.572   5.038   7.120 -1.0520  1.7881  1.5376
  190SLPC   H4S21956   6.458   4.895   7.105 -0.0686 -0.2929  3.1284
  190SLPC   C2521957   6.426   5.030   7.276 -0.2600 -0.6926  0.3853
  190SLPC   H5R21958   6.320   4.998   7.289 -0.7049  0.6645  0.2335
  190SLPC   H5S21959   6.435   5.139   7.298 -2.6582 -0.5567  0.8017
  190SLPC   C2621960   6.515   4.945   7.366  0.7267 -0.0171  0.0803
  190SLPC   H6R21961   6.616   4.989   7.349 -0.1933  2.4281  0.8324
  190SLPC   H6S21962   6.515   4.839   7.331  0.6617 -0.1498  0.4773
  190SLPC   C2721963   6.478   4.959   7.516  0.1804  0.0071  0.2788
  190SLPC   H7R21964   6.379   4.913   7.539  0.5621 -0.1348  1.6522
  190SLPC   H7S21965   6.467   5.064   7.549 -1.7719  0.1436 -0.7348
  190SLPC   C2821966   6.569   4.871   7.600 -0.1618  0.2172  0.0234
  190SLPC   H8R21967   6.586   4.766   7.568  1.0618 -0.4077  2.5535
  190SLPC   H8S21968   6.510   4.865   7.694  1.7235  0.1170  1.2534
  190SLPC   C2921969   6.696   4.941   7.618 -0.3113  0.6142  0.3116
  190SLPC   H9R21970   6.756   4.962   7.528  0.0336  1.4056  0.7195
  190SLPC  C21021971   6.755   4.970   7.739 -0.7556 -0.0677 -0.3778
  190SLPC  H10R21972   6.851   5.024   7.740 -0.4684 -0.5813  1.0085
  190SLPC  C21121973   6.698   4.944   7.870 -0.3838  0.1424  0.9580
  190SLPC  H11R21974   6.610   4.877   7.862 -0.6629  0.6881 -0.6836
  190SLPC  H11S21975   6.660   5.039   7.914 -1.6861 -1.6208  3.8052
  190SLPC  C21221976   6.806   4.892   7.970  1.3458 -1.0556 -0.3476
  190SLPC  H12R21977   6.881   4.965   8.003 -0.1771  0.2805  0.1685
  190SLPC  C21321978   6.826   4.769   8.018 -0.5448  0.0716 -0.4374
  190SLPC  H13R21979   6.921   4.744   8.069 -1.1414 -0.4229  0.4583
  190SLPC  C21421980   6.729   4.655   7.996 -0.1048  0.2295 -0.1337
  190SLPC  H14R21981   6.631   4.697   7.966  0.1371  0.1873 -1.0194
  190SLPC  H14S21982   6.705   4.602   8.090 -1.0066  2.7937  1.1249
  190SLPC  C21521983   6.772   4.558   7.888 -0.4301  0.5069  0.1089
  190SLPC  H15R21984   6.880   4.535   7.896 -0.7138 -1.5323 -1.4149
  190SLPC  H15S21985   6.765   4.601   7.786 -0.5405 -0.5168 -0.3206
  190SLPC  C21621986   6.696   4.428   7.890  0.6504  0.3862 -0.1237
  190SLPC  H16R21987   6.739   4.369   7.806  0.7667 -0.0556  0.2418
  190SLPC  H16S21988   6.587   4.436   7.871  0.4503 -1.7662 -0.1134
  190SLPC  C21721989   6.711   4.326   8.006  0.1454 -0.4433  0.0013
  190SLPC  H17R21990   6.668   4.228   7.976  1.2002 -1.2828  1.1529
  190SLPC  H17S21991   6.659   4.359   8.099  0.7476 -0.4306  0.3387
  190SLPC  C21821992   6.862   4.317   8.045  0.7830  0.0321  0.2971
  190SLPC  H18R21993   6.876   4.238   8.122 -0.1453 -1.7439 -1.3204
  190SLPC  H18S21994   6.905   4.411   8.085 -1.0935  1.3280 -0.6272
  190SLPC  H18T21995   6.917   4.282   7.955  1.7328  0.5802  0.6592
  190SLPC   C3321996   5.908   5.023   6.947  0.4554 -0.0058 -0.7715
  190SLPC   H3X21997   5.977   5.110   6.947 -1.6268  1.7614  2.0399
  190SLPC   H3Y21998   5.963   4.927   6.944  0.0390 -0.3214  1.0710
  190SLPC   C3421999   5.830   5.024   7.075 -0.8024 -0.5745  0.1095
  190SLPC   H4X22000   5.737   4.973   7.045 -2.8464  1.3988  2.8931
  190SLPC   H4Y22001   5.803   5.128   7.103  0.3236 -0.1954 -0.1835
  190SLPC   C3522002   5.893   4.951   7.185 -0.5604 -0.0861 -0.1066
  190SLPC   H5X22003   6.004   4.957   7.181 -0.7380  1.9084 -2.4660
  190SLPC   H5Y22004   5.875   4.843   7.164  4.0467 -1.0295  0.2292
  190SLPC   C3622005   5.833   4.983   7.320 -0.3915  0.1800 -0.3102
  190SLPC   H6X22006   5.730   4.942   7.314  0.8443 -3.0704 -0.6701
  190SLPC   H6Y22007   5.831   5.092   7.342  0.7550 -0.2376  2.0801
  190SLPC   C3722008   5.906   4.910   7.431  0.7991  0.3333 -0.6409
  190SLPC   H7X22009   5.997   4.972   7.442  1.9681 -1.3117 -0.8467
  190SLPC   H7Y22010   5.944   4.808   7.409 -0.9277 -0.2441 -0.9992
  190SLPC   C3822011   5.829   4.903   7.567  0.3549 -0.7818  0.3052
  190SLPC   H8X22012   5.740   4.837   7.566 -0.0069 -0.2834 -1.1033
  190SLPC   H8Y22013   5.804   5.007   7.598 -0.1052 -0.6445 -0.5082
  190SLPC   C3922014   5.919   4.878   7.686 -0.0212 -0.1924 -0.3853
  190SLPC   H9X22015   6.011   4.940   7.676 -0.1420  0.2854  1.2839
  190SLPC   H9Y22016   5.958   4.774   7.676 -0.1329 -0.0804 -2.1575
  190SLPC  C31022017   5.855   4.883   7.818  0.7455  0.0147  0.1514
  190SLPC  H10X22018   5.770   4.811   7.824 -0.9633  2.0754  1.2029
  190SLPC  H10Y22019   5.811   4.985   7.820 -0.2586 -0.3448 -2.3209
  190SLPC  C31122020   5.938   4.843   7.942  0.9818  0.1534  0.9901
  190SLPC  H11X22021   6.022   4.916   7.938  0.3115  0.9538  1.4917
  190SLPC  H11Y22022   5.984   4.742   7.936 -1.2852 -0.8766  0.5435
  190SLPC  C31222023   5.870   4.841   8.076  0.1488 -0.3700 -0.1533
  190SLPC  H12X22024   5.784   4.770   8.081  0.3884 -0.6045  0.6517
  190SLPC  H12Y22025   5.828   4.941   8.100  0.7562 -0.0094 -0.5845
  190SLPC  C31322026   5.966   4.813   8.189 -0.0883  0.1608  0.0598
  190SLPC  H13X22027   5.925   4.853   8.284  0.9888  0.8508  0.2395
  190SLPC  H13Y22028   6.070   4.845   8.168  0.0830 -1.6659 -2.1403
  190SLPC  C31422029   5.994   4.661   8.220 -0.2220 -0.7780  0.1254
  190SLPC  H14X22030   6.094   4.673   8.267  0.1751  0.0791 -0.9092
  190SLPC  H14Y22031   6.011   4.601   8.128 -0.2017  1.4176 -1.3265
  190SLPC  C31522032   5.890   4.601   8.309 -0.7184  0.0997  0.5256
  190SLPC  H15X22033   5.788   4.596   8.266 -0.1167  2.9022 -1.3700
  190SLPC  H15Y22034   5.901   4.660   8.402 -0.5170  0.1283  0.4843
  190SLPC  C31622035   5.923   4.462   8.363  0.2824 -0.1123  0.4270
  190SLPC  H16X22036   5.856   4.456   8.452 -0.6292  0.8970 -0.1794
  190SLPC  H16Y22037   6.030   4.448   8.391  0.2255  2.1326  1.9777
  190SLPC  C31722038   5.876   4.344   8.272 -0.7262  0.2452 -0.4893
  190SLPC  H17X22039   5.960   4.285   8.229 -0.0097  3.4227 -3.6909
  190SLPC  H17Y22040   5.811   4.385   8.191 -2.1237 -2.9302 -1.0700
  190SLPC  C31822041   5.783   4.254   8.347 -0.5212  0.3052 -0.7284
  190SLPC  H18X22042   5.736   4.189   8.270  0.8434 -2.2046  0.4862
  190SLPC  H18Y22043   5.713   4.323   8.397  1.4090  0.2798  2.1198
  190SLPC  H18Z22044   5.833   4.182   8.416  0.2530  2.5636  1.1232
  191SLPC     N22045   5.879   6.404   5.607  0.2387  0.2209 -0.4679
  191SLPC   C1322046   5.897   6.414   5.464  0.0196  0.7119  0.6327
  191SLPC  H13A22047   5.891   6.519   5.438  1.1337  0.7510  0.5043
  191SLPC  H13B22048   5.998   6.382   5.440  0.1724  1.6238  0.0261
  191SLPC  H13C22049   5.831   6.356   5.402  0.1502  1.0474  0.1814
  191SLPC   C1422050   5.878   6.269   5.655  0.3482  1.1083 -0.4659
  191SLPC  H14A22051   5.796   6.210   5.620  1.2936 -0.1401 -0.6050
  191SLPC  H14B22052   5.966   6.214   5.625 -0.9018 -1.1660  0.0042
  191SLPC  H14C22053   5.875   6.265   5.763 -1.9127 -2.8498 -0.6101
  191SLPC   C1522054   5.747   6.470   5.640 -0.0543 -0.4357 -0.1745
  191SLPC  H15A22055   5.757   6.577   5.630 -1.7452  0.0997  3.0287
  191SLPC  H15B22056   5.662   6.452   5.576 -2.3637  1.9009  2.0805
  191SLPC  H15C22057   5.728   6.463   5.746 -0.6595  1.8754 -0.0907
  191SLPC   C1222058   5.989   6.483   5.680  0.5251  0.1538 -0.0602
  191SLPC  H12A22059   5.960   6.586   5.662 -0.0257  0.0095  0.0049
  191SLPC  H12B22060   6.080   6.471   5.623 -0.1934  1.5630 -1.5490
  191SLPC   C1122061   6.006   6.461   5.829  0.0530 -0.7333  0.1957
  191SLPC  H11A22062   6.100   6.500   5.875 -0.3226  0.7549 -0.2810
  191SLPC  H11B22063   6.013   6.351   5.841  0.9648 -0.4116  3.2222
  191SLPC     P22064   5.864   6.650   5.937  0.1490  0.3222  0.0828
  191SLPC   O1322065   5.848   6.728   5.812 -0.2784  0.0763  0.1909
  191SLPC   O1422066   5.767   6.676   6.045 -0.0250  0.6628  0.0929
  191SLPC   O1222067   5.885   6.497   5.898  0.3865 -0.5504 -0.4290
  191SLPC   O1122068   6.004   6.679   5.996  0.1186 -0.4884  0.0266
  191SLPC    C122069   6.051   6.612   6.115 -0.2291 -0.3441 -0.1658
  191SLPC    HA22070   6.025   6.504   6.112 -2.3784  0.0006  3.1453
  191SLPC    HB22071   6.162   6.609   6.114 -0.1745  0.7093 -4.0522
  191SLPC    C222072   6.016   6.679   6.252 -0.4383 -0.4416  0.2928
  191SLPC    HS22073   5.906   6.671   6.265 -0.2592 -1.0673  1.4839
  191SLPC   O2122074   6.063   6.813   6.258 -0.6616 -0.2674 -0.2778
  191SLPC   C2122075   5.964   6.909   6.245 -0.7677 -1.2524 -0.3811
  191SLPC   O2222076   5.849   6.904   6.282  0.5952 -0.3564  0.1525
  191SLPC   C2222077   6.030   7.028   6.185  0.2751 -0.2897 -0.2185
  191SLPC   H2R22078   6.099   6.991   6.107 -0.4437 -1.0840 -0.4811
  191SLPC   H2S22079   5.953   7.096   6.143 -1.4813 -0.8649  1.9616
  191SLPC    C322080   6.073   6.596   6.370 -0.3109  0.6081  0.1426
  191SLPC    HX22081   6.182   6.607   6.388  0.2018 -0.4860 -2.1572
  191SLPC    HY22082   6.079   6.496   6.322 -0.6015  0.2656  0.8152
  191SLPC   O3122083   5.992   6.606   6.494 -0.1597 -0.1894 -0.4184
  191SLPC   C3122084   5.885   6.531   6.506 -0.5563  0.0102  0.0715
  191SLPC   O3222085   5.840   6.454   6.427  0.3894  0.3838  0.1800
  191SLPC   C3222086   5.820   6.549   6.643  0.0102  0.0233 -0.8111
  191SLPC   H2X22087   5.732   6.614   6.628  1.5168  2.1508 -0.6917
  191SLPC   H2Y22088   5.894   6.607   6.702  0.3257  0.5676 -1.7305
  191SLPC   C2322089   6.109   7.114   6.286  0.9750 -0.3266  0.8196
  191SLPC   H3R22090   6.165   7.188   6.224 -2.1787  0.7106 -0.8982
  191SLPC   H3S22091   6.185   7.060   6.347 -0.1952 -1.0369  1.6725
  191SLPC   C2422092   6.017   7.184   6.387  0.4606 -0.1995 -0.2455
  191SLPC   H4R22093   5.947   7.112   6.433 -1.0317  1.7357  0.6084
  191SLPC   H4S22094   5.958   7.256   6.326 -1.5211 -0.8082  0.9098
  191SLPC   C2522095   6.093   7.254   6.502  0.2705 -0.0716 -1.0421
  191SLPC   H5R22096   6.150   7.343   6.468  1.1023 -0.6277 -1.1227
  191SLPC   H5S22097   6.160   7.178   6.548  1.4839  1.9804  0.7009
  191SLPC   C2622098   5.989   7.306   6.592 -0.8207  0.0169  0.4519
  191SLPC   H6R22099   5.923   7.219   6.613  0.2551 -0.7302  0.7753
  191SLPC   H6S22100   5.928   7.385   6.543 -0.2224  0.8534  1.0274
  191SLPC   C2722101   6.063   7.372   6.716  0.2143 -1.0736  0.8185
  191SLPC   H7R22102   6.135   7.452   6.686 -2.0107  0.6844  0.0417
  191SLPC   H7S22103   6.113   7.294   6.777 -0.3755 -2.1246 -0.0220
  191SLPC   C2822104   5.950   7.428   6.811 -0.5506 -0.0091  0.3224
  191SLPC   H8R22105   5.889   7.337   6.830 -1.0476  0.7316  2.4660
  191SLPC   H8S22106   5.885   7.508   6.771 -2.1534 -1.1176  0.6674
  191SLPC   C2922107   6.019   7.480   6.931 -0.2837  0.2563  0.2784
  191SLPC   H9R22108   6.105   7.542   6.904  0.6297 -1.2094 -0.2374
  191SLPC  C21022109   5.985   7.465   7.058  0.0943  0.2700  0.2322
  191SLPC  H10R22110   6.048   7.511   7.135 -0.5788  0.6672  0.5547
  191SLPC  C21122111   5.867   7.394   7.115  0.5229 -0.5389 -0.3149
  191SLPC  H11R22112   5.897   7.292   7.146  0.5175  0.3680  2.9290
  191SLPC  H11S22113   5.792   7.380   7.034  1.0231  0.1239 -0.8968
  191SLPC  C21222114   5.810   7.466   7.238 -0.3353  0.1233  0.0225
  191SLPC  H12R22115   5.797   7.575   7.233 -0.8049  0.0678 -0.0042
  191SLPC  C21322116   5.768   7.413   7.356  0.1548  0.3226  0.0241
  191SLPC  H13R22117   5.728   7.481   7.433  1.1392  1.6747 -0.6211
  191SLPC  C21422118   5.775   7.266   7.401  0.3874 -0.3237  1.1728
  191SLPC  H14R22119   5.834   7.203   7.329 -1.9359 -0.8863 -0.3029
  191SLPC  H14S22120   5.677   7.220   7.376 -0.9935  2.7359  0.7450
  191SLPC  C21522121   5.832   7.237   7.538  0.1334  0.4278  0.6771
  191SLPC  H15R22122   5.838   7.130   7.566  0.9576  0.1578 -0.5169
  191SLPC  H15S22123   5.766   7.284   7.615  1.2039  3.8049 -0.3692
  191SLPC  C21622124   5.975   7.291   7.567  0.3123 -0.5853 -0.1196
  191SLPC  H16R22125   6.008   7.272   7.672 -0.7494 -0.7641  0.1887
  191SLPC  H16S22126   5.978   7.401   7.553 -1.7281 -0.2847  1.4899
  191SLPC  C21722127   6.087   7.233   7.467  0.2449 -0.2476  0.0334
  191SLPC  H17R22128   6.047   7.256   7.366  0.7884  0.1038 -0.1040
  191SLPC  H17S22129   6.091   7.123   7.478 -1.5795 -0.2555  0.9004
  191SLPC  C21822130   6.210   7.305   7.469 -0.4307  0.0730  0.0459
  191SLPC  H18R22131   6.258   7.271   7.564 -2.7471 -0.2538  1.1262
  191SLPC  H18S22132   6.203   7.416   7.476  1.4847  0.1192  1.8525
  191SLPC  H18T22133   6.282   7.280   7.388 -0.4138  0.0409  0.0716
  191SLPC   C3322134   5.795   6.417   6.718 -0.5665 -0.2270  0.1978
  191SLPC   H3X22135   5.871   6.336   6.726 -1.7931 -1.2677  1.4497
  191SLPC   H3Y22136   5.705   6.366   6.680 -0.0294 -0.3917 -0.8756
  191SLPC   C3422137   5.771   6.453   6.868  0.6004 -0.0705 -0.8619
  191SLPC   H4X22138   5.707   6.544   6.868 -1.4868 -1.4986 -1.5164
  191SLPC   H4Y22139   5.862   6.479   6.926  0.2155 -1.8621  0.5895
  191SLPC   C3522140   5.703   6.332   6.942  0.5761 -0.3044  0.6262
  191SLPC   H5X22141   5.767   6.245   6.970 -0.0854 -1.4441 -1.2932
  191SLPC   H5Y22142   5.625   6.301   6.869  0.4387  1.9979 -0.2592
  191SLPC   C3622143   5.622   6.379   7.065  0.3506 -0.0627  0.5128
  191SLPC   H6X22144   5.527   6.322   7.066 -0.3404  1.0613 -0.3497
  191SLPC   H6Y22145   5.587   6.483   7.049 -2.1050 -0.6910  1.5523
  191SLPC   C3722146   5.707   6.372   7.191 -0.1811 -0.3067  1.3231
  191SLPC   H7X22147   5.791   6.444   7.182 -0.7789  0.4646  1.8113
  191SLPC   H7Y22148   5.750   6.270   7.187  0.3147 -0.0764  0.6348
  191SLPC   C3822149   5.623   6.392   7.318 -0.7205  0.3299  0.3130
  191SLPC   H8X22150   5.519   6.355   7.311 -0.8413  0.8489 -0.7532
  191SLPC   H8Y22151   5.608   6.502   7.317 -0.0432  0.4465  1.6316
  191SLPC   C3922152   5.680   6.341   7.449 -0.6158 -1.2889 -0.7712
  191SLPC   H9X22153   5.779   6.390   7.456 -1.8661  1.1252  0.6808
  191SLPC   H9Y22154   5.701   6.232   7.451  2.6358 -0.6920 -0.1316
  191SLPC  C31022155   5.602   6.383   7.572  0.8097  0.0565 -0.3530
  191SLPC  H10X22156   5.503   6.335   7.556  0.3175  0.8371  0.2975
  191SLPC  H10Y22157   5.582   6.492   7.577 -0.0166 -0.0711 -0.7066
  191SLPC  C31122158   5.665   6.330   7.693  0.7523 -0.1476  0.1559
  191SLPC  H11X22159   5.766   6.373   7.705 -0.0331  1.3362  1.7349
  191SLPC  H11Y22160   5.673   6.220   7.696 -0.6276 -0.2252  2.2327
  191SLPC  C31222161   5.601   6.390   7.812  0.5475 -0.2013  0.1914
  191SLPC  H12X22162   5.491   6.391   7.804  0.4768 -0.3881  1.1869
  191SLPC  H12Y22163   5.622   6.499   7.805 -2.4501  0.3359 -0.8603
  191SLPC  C31322164   5.647   6.331   7.942 -0.4585  0.4695 -0.9855
  191SLPC  H13X22165   5.758   6.336   7.945 -0.4803  0.3415  0.4916
  191SLPC  H13Y22166   5.634   6.222   7.959  0.2936  0.2968 -1.4926
  191SLPC  C31422167   5.602   6.415   8.064  0.4728 -0.1898  0.2240
  191SLPC  H14X22168   5.587   6.521   8.034  2.1220  0.2165  0.8038
  191SLPC  H14Y22169   5.675   6.400   8.146  1.1969 -1.0324 -0.5566
  191SLPC  C31522170   5.471   6.367   8.121  0.7222  0.0082 -0.3604
  191SLPC  H15X22171   5.499   6.273   8.173 -2.1958  0.4951  2.2698
  191SLPC  H15Y22172   5.390   6.340   8.050  0.2706  1.9860 -0.6375
  191SLPC  C31622173   5.423   6.473   8.219 -0.6293  0.1685 -0.1608
  191SLPC  H16X22174   5.383   6.562   8.166  0.8893 -0.4904 -2.4771
  191SLPC  H16Y22175   5.509   6.497   8.284  0.6729 -0.8054 -1.4759
  191SLPC  C31722176   5.307   6.422   8.308  0.0787  0.0076  0.4458
  191SLPC  H17X22177   5.358   6.328   8.338 -0.5097  0.1611  1.9726
  191SLPC  H17Y22178   5.220   6.392   8.246  0.4529 -0.4942  0.1669
  191SLPC  C31822179   5.262   6.518   8.415  0.0512  0.5789 -0.0359
  191SLPC  H18X22180   5.221   6.609   8.366  0.4626  0.0353 -1.4186
  191SLPC  H18Y22181   5.351   6.540   8.477  0.0581  0.6817 -0.0807
  191SLPC  H18Z22182   5.177   6.472   8.471  0.9026 -1.6766 -0.5594
  192SLPC     N22183   5.597   1.409   6.409 -0.4450 -0.0738  0.1159
  192SLPC   C1322184   5.552   1.291   6.331  0.5299 -0.0934 -0.2275
  192SLPC  H13A22185   5.617   1.270   6.247  0.7205 -1.6254  0.2895
  192SLPC  H13B22186   5.566   1.202   6.390 -0.4482 -1.2541 -1.6928
  192SLPC  H13C22187   5.447   1.304   6.309  0.2779 -0.0256  1.0014
  192SLPC   C1422188   5.490   1.431   6.507 -0.1293 -0.2652 -0.2286
  192SLPC  H14A22189   5.487   1.353   6.581  4.8469 -0.0657  0.3454
  192SLPC  H14B22190   5.505   1.523   6.562  1.1202 -0.5898 -0.0138
  192SLPC  H14C22191   5.396   1.435   6.453 -1.3508 -3.1334  1.5515
  192SLPC   C1522192   5.615   1.533   6.328 -0.0342 -0.0163  0.6622
  192SLPC  H15A22193   5.641   1.613   6.396  0.3132  0.2711  0.1897
  192SLPC  H15B22194   5.699   1.527   6.261 -0.1857  0.0607  0.4671
  192SLPC  H15C22195   5.529   1.562   6.270  1.2003  1.4076 -0.4906
  192SLPC   C1222196   5.734   1.376   6.475  0.3635 -0.5161 -0.1546
  192SLPC  H12A22197   5.720   1.289   6.536  1.5029 -0.3853  0.3079
  192SLPC  H12B22198   5.761   1.459   6.538  2.9747 -1.5292  0.1256
  192SLPC   C1122199   5.851   1.348   6.380  0.5784  0.1340  0.6526
  192SLPC  H11A22200   5.947   1.337   6.436  0.7027  0.6789  0.5468
  192SLPC  H11B22201   5.863   1.437   6.315  0.1612  0.0155  0.4151
  192SLPC     P22202   5.868   1.097   6.326 -0.2173  0.2768 -0.6220
  192SLPC   O1322203   5.758   1.007   6.285  0.8139  0.8114  0.4211
  192SLPC   O1422204   6.000   1.075   6.268  0.2219  0.5243  0.4511
  192SLPC   O1222205   5.821   1.238   6.294  0.2919  0.1237  0.4547
  192SLPC   O1122206   5.878   1.094   6.480  0.1495  0.0082  0.1279
  192SLPC    C122207   5.887   0.973   6.559  0.3656 -0.0041 -0.1293
  192SLPC    HA22208   5.797   0.926   6.605  0.7985 -2.5829 -1.8004
  192SLPC    HB22209   5.942   0.895   6.502 -2.9092  0.0694 -3.5769
  192SLPC    C222210   5.983   0.999   6.682 -0.1439 -0.0665 -0.0929
  192SLPC    HS22211   5.975   0.911   6.749  0.6946 -1.0535 -1.2679
  192SLPC   O2122212   5.954   1.117   6.750 -0.1211  0.4053 -0.2848
  192SLPC   C2122213   5.837   1.131   6.813 -0.5351  0.2092 -0.7850
  192SLPC   O2222214   5.750   1.051   6.820  0.1873 -0.1852  0.4174
  192SLPC   C2222215   5.832   1.273   6.882  0.1265  0.4740 -1.0315
  192SLPC   H2R22216   5.919   1.336   6.853  0.7946 -0.7186 -1.6459
  192SLPC   H2S22217   5.746   1.332   6.845 -1.6318 -1.0578  0.4535
  192SLPC    C322218   6.131   0.996   6.642  0.4908  0.1302 -0.0686
  192SLPC    HX22219   6.162   1.088   6.587 -0.4737  1.4364  1.5202
  192SLPC    HY22220   6.134   0.920   6.561 -1.5637  0.0502 -0.0877
  192SLPC   O3122221   6.208   0.966   6.754 -0.5964  0.3041  0.6822
  192SLPC   C3122222   6.261   1.055   6.833  0.6288 -0.2004  0.0222
  192SLPC   O3222223   6.238   1.178   6.826 -0.3688 -0.2180 -0.1661
  192SLPC   C3222224   6.355   0.980   6.935 -0.0954 -0.1215  0.0721
  192SLPC   H2X22225   6.442   1.048   6.948 -0.2860  0.3323 -0.9526
  192SLPC   H2Y22226   6.383   0.876   6.905  1.3158  0.5959 -1.1733
  192SLPC   C2322227   5.837   1.258   7.037 -0.4247 -0.2959 -0.1270
  192SLPC   H3R22228   5.737   1.226   7.073 -0.1463 -1.6805 -0.5543
  192SLPC   H3S22229   5.861   1.360   7.075  1.5383 -1.0252  0.6342
  192SLPC   C2422230   5.944   1.159   7.088 -0.2538 -0.5385  0.4061
  192SLPC   H4R22231   6.036   1.186   7.031 -1.2595  1.5786 -0.2706
  192SLPC   H4S22232   5.919   1.055   7.059  0.2789 -0.0145 -2.0623
  192SLPC   C2522233   5.977   1.161   7.237 -0.3072 -0.5446  0.0558
  192SLPC   H5R22234   6.012   1.261   7.271  1.2312 -0.7389 -0.8731
  192SLPC   H5S22235   6.065   1.096   7.258  0.8162  0.4258 -1.5290
  192SLPC   C2622236   5.859   1.117   7.322  0.2571 -0.3751  0.4986
  192SLPC   H6R22237   5.816   1.029   7.268 -0.7777  0.1428  0.4713
  192SLPC   H6S22238   5.774   1.188   7.331 -0.3778 -1.1816  0.9236
  192SLPC   C2722239   5.895   1.065   7.461  0.1138  0.2684  0.0180
  192SLPC   H7R22240   5.950   1.148   7.510  0.6125  0.5036 -0.9293
  192SLPC   H7S22241   5.963   0.977   7.451 -0.5315 -0.2335 -0.0376
  192SLPC   C2822242   5.770   1.031   7.549 -0.4162 -0.0374 -0.1456
  192SLPC   H8R22243   5.696   0.994   7.475 -1.8474  2.9608 -0.3018
  192SLPC   H8S22244   5.737   1.129   7.589  1.6251  0.1206  1.2516
  192SLPC   C2922245   5.805   0.918   7.645 -0.3768  0.6616 -0.1409
  192SLPC   H9R22246   5.875   0.849   7.595 -1.7537  0.1965 -1.4590
  192SLPC  C21022247   5.781   0.902   7.771  0.1783 -0.5888  0.0734
  192SLPC  H10R22248   5.803   0.805   7.818  1.0156 -1.1958 -1.5557
  192SLPC  C21122249   5.705   0.988   7.868  0.4515 -0.0607  0.7900
  192SLPC  H11R22250   5.609   0.948   7.907  0.0990  0.2211  0.2108
  192SLPC  H11S22251   5.665   1.077   7.814  2.7206  0.3499 -0.2688
  192SLPC  C21222252   5.788   1.046   7.981 -0.6211 -0.2251 -0.4397
  192SLPC  H12R22253   5.897   1.039   7.969 -0.5688  1.2828 -0.9394
  192SLPC  C21322254   5.743   1.085   8.099  0.5326  0.5840 -0.0172
  192SLPC  H13R22255   5.820   1.106   8.175 -0.0384 -0.3289  0.8319
  192SLPC  C21422256   5.595   1.084   8.131 -0.7675 -0.1428  0.3494
  192SLPC  H14R22257   5.558   0.983   8.159 -2.6256  0.4107 -0.0730
  192SLPC  H14S22258   5.549   1.121   8.037  0.1736 -1.7244 -0.7509
  192SLPC  C21522259   5.527   1.179   8.232  0.3847 -0.3887 -0.0046
  192SLPC  H15R22260   5.417   1.168   8.221  0.5353  0.7695 -3.3141
  192SLPC  H15S22261   5.528   1.283   8.192 -0.3726 -0.1733  0.5222
  192SLPC  C21622262   5.574   1.161   8.371 -0.4962 -0.4041  0.5118
  192SLPC  H16R22263   5.684   1.172   8.372 -0.6360  1.0247  0.9248
  192SLPC  H16S22264   5.550   1.057   8.401  0.3802 -1.1058 -1.1278
  192SLPC  C21722265   5.504   1.261   8.460  0.4605 -0.5788  0.1207
  192SLPC  H17R22266   5.514   1.367   8.429  1.8274 -0.4995  0.8208
  192SLPC  H17S22267   5.395   1.239   8.455  0.0501  1.5144 -0.6587
  192SLPC  C21822268   5.550   1.249   8.604 -0.0194  0.3993 -0.2343
  192SLPC  H18R22269   5.660   1.252   8.598  0.0803 -1.0661  0.5513
  192SLPC  H18S22270   5.508   1.162   8.659  2.0738 -0.2014  0.4345
  192SLPC  H18T22271   5.501   1.323   8.670  0.1053 -0.1975  0.5263
  192SLPC   C3322272   6.283   0.962   7.067  0.1779  0.5355 -0.1027
  192SLPC   H3X22273   6.193   0.903   7.042 -0.0433  1.0287 -0.4814
  192SLPC   H3Y22274   6.248   1.057   7.113  2.6236  1.5480 -0.2366
  192SLPC   C3422275   6.352   0.874   7.173  0.3434 -1.2174 -0.2975
  192SLPC   H4X22276   6.450   0.916   7.206 -0.3983  0.8966 -0.7062
  192SLPC   H4Y22277   6.366   0.770   7.137  0.3324 -1.1768 -0.4184
  192SLPC   C3522278   6.264   0.863   7.301 -0.5443  0.8640  0.8658
  192SLPC   H5X22279   6.197   0.775   7.288  0.5034  0.3743 -1.4604
  192SLPC   H5Y22280   6.198   0.952   7.306 -2.2754 -0.4192  1.6223
  192SLPC   C3622281   6.340   0.852   7.437  0.2670 -0.3032 -1.4228
  192SLPC   H6X22282   6.423   0.926   7.444 -1.3334  1.3791  0.7138
  192SLPC   H6Y22283   6.380   0.749   7.433 -0.7725 -0.8703  1.2766
  192SLPC   C3722284   6.234   0.877   7.554 -0.8553 -0.1560 -0.2996
  192SLPC   H7X22285   6.136   0.826   7.554 -0.6627 -0.5649  2.0745
  192SLPC   H7Y22286   6.214   0.985   7.538 -1.2470 -0.0438  0.8691
  192SLPC   C3822287   6.290   0.858   7.699  0.4766  0.2489  0.5687
  192SLPC   H8X22288   6.385   0.914   7.709  1.4624 -1.5526  1.7067
  192SLPC   H8Y22289   6.322   0.752   7.707  3.5075  1.1965  1.5662
  192SLPC   C3922290   6.181   0.902   7.799  0.4924 -0.0767  0.1376
  192SLPC   H9X22291   6.083   0.851   7.788  0.5727 -0.1558 -0.2471
  192SLPC   H9Y22292   6.168   1.008   7.769 -1.4019 -0.6003 -0.9521
  192SLPC  C31022293   6.212   0.912   7.950  0.3745  0.5362  0.4662
  192SLPC  H10X22294   6.122   0.945   8.005  0.4503 -0.3731  1.1354
  192SLPC  H10Y22295   6.299   0.981   7.959  0.0224  1.3207 -1.7323
  192SLPC  C31122296   6.263   0.776   8.010  0.5698 -0.1516  0.2799
  192SLPC  H11X22297   6.332   0.808   8.091 -0.3548  1.9562  0.2703
  192SLPC  H11Y22298   6.313   0.717   7.930  0.4475  1.4754 -1.0227
  192SLPC  C31222299   6.150   0.688   8.070  0.3990 -0.1034  0.3971
  192SLPC  H12X22300   6.101   0.740   8.155  0.2140 -1.8786  1.4089
  192SLPC  H12Y22301   6.193   0.607   8.134 -2.5052 -1.6829  0.4315
  192SLPC  C31322302   6.059   0.628   7.965 -0.1058 -0.2568  0.2371
  192SLPC  H13X22303   6.117   0.557   7.902  1.5342 -1.4413  2.9943
  192SLPC  H13Y22304   6.018   0.711   7.903  1.2486  0.2393  0.0001
  192SLPC  C31422305   5.947   0.544   8.031 -0.9767  0.0028  0.1463
  192SLPC  H14X22306   5.894   0.602   8.109 -1.5054  0.6887 -0.7061
  192SLPC  H14Y22307   5.994   0.457   8.081 -1.8458 -1.3494 -1.3640
  192SLPC  C31522308   5.851   0.477   7.928 -0.4882 -0.0021 -0.3327
  192SLPC  H15X22309   5.909   0.414   7.857  0.2474 -1.2378  1.3556
  192SLPC  H15Y22310   5.804   0.566   7.880  0.9587  1.2769  0.5626
  192SLPC  C31622311   5.739   0.395   7.988  0.8240  0.1896  0.3573
  192SLPC  H16X22312   5.693   0.342   7.901  0.4313  0.8438  0.1551
  192SLPC  H16Y22313   5.668   0.461   8.043  0.4462 -0.6603  0.9021
  192SLPC  C31722314   5.789   0.286   8.087  0.6824  0.7735 -0.3988
  192SLPC  H17X22315   5.841   0.330   8.175 -0.3330  0.4680  0.3640
  192SLPC  H17Y22316   5.865   0.222   8.038  0.4784 -0.6171  1.0685
  192SLPC  C31822317   5.677   0.195   8.136  0.1332 -0.3662  0.3012
  192SLPC  H18X22318   5.613   0.238   8.217  0.7179  2.3209 -0.6008
  192SLPC  H18Y22319   5.728   0.104   8.172  3.5533  0.7923 -1.4183
  192SLPC  H18Z22320   5.610   0.173   8.051  1.7938 -1.4585 -0.7412
  193SOD    SOD22321   4.127   4.237  13.727  0.0401 -0.2604 -0.3742
  194SOD    SOD22322   6.432   0.924  15.340  0.0311 -0.0846  0.1731
  195SOD    SOD22323   2.437   0.989  15.632  0.1489  0.2098 -0.5174
  196SOD    SOD22324   5.474   4.372   5.071 -0.1056 -0.4207  0.2045
  197SOD    SOD22325   0.603   3.196  11.458  0.2118 -0.4992 -0.0494
  198SOD    SOD22326   2.159   3.237  12.780  0.3815 -0.1001 -0.3041
  199SOD    SOD22327   4.165   5.336   1.922 -0.1129  0.1321  0.3012
  200SOD    SOD22328   2.634   4.521  11.765  0.0076 -0.0790  0.1447
  201SOD    SOD22329   6.049   0.836  14.554 -0.8202 -0.2412  0.4144
  202SOD    SOD22330   0.922   4.538  11.459  0.7704 -0.0545  0.0481
  203SOD    SOD22331   6.247   5.262   2.353 -0.0104  0.1251 -0.1122
  204SOD    SOD22332   2.449   0.300  11.201 -0.1676 -0.1954 -0.1819
  205SOD    SOD22333   4.239   3.488  16.987  0.3313  0.4044  0.1523
  206SOD    SOD22334   6.293   3.749  17.239  0.2856 -0.5825 -0.1596
  207SOD    SOD22335   1.176   1.056  16.867  0.2088 -0.2786  0.4056
  208SOD    SOD22336   6.244   3.934   2.040  0.1880  0.1139  0.2317
  209SOD    SOD22337   2.626   5.696  17.038  0.4108 -0.9650  0.2889
  210SOD    SOD22338   6.346   1.241   6.326 -0.1973 -0.1169  0.2084
  211SOD    SOD22339   0.966   2.551  11.035 -0.3306  0.0754  0.2892
  212SOD    SOD22340   4.909   3.580  16.245  0.3766  0.3313  0.1055
  213SOD    SOD22341   3.012   4.132  12.472 -0.4660 -0.3587  0.2529
  214SOD    SOD22342   0.006   4.384   0.791  0.5140  0.2493  0.0623
  215SOD    SOD22343   5.817   5.782  16.886  0.0664  0.1987  0.4175
  216SOD    SOD22344   5.530   2.512  16.436  0.2724  0.3396 -0.2007
  217SOD    SOD22345   3.719   5.169   3.149 -0.3595  0.6392 -0.0479
  218SOD    SOD22346   4.769   0.376   5.422 -0.0468 -0.0665 -0.3027
  219SOD    SOD22347   1.968   2.460   4.182  0.3257 -0.3112  0.1882
  220SOD    SOD22348   0.624   5.621   2.410 -0.0496  0.5050  0.2826
  221SOD    SOD22349   1.952   0.265   3.104  0.4105  0.1698  0.2802
  222SOD    SOD22350   2.091   4.954  15.347  0.1467 -0.0486 -0.1308
  223SOD    SOD22351   3.717   6.646  12.832  0.1744  0.4278 -0.3113
  224SOD    SOD22352   0.029   6.159  16.493  0.0495 -0.0657  0.2291
  225SOD    SOD22353   6.136   2.995  14.968 -0.4440 -0.4603  0.3485
  226SOD    SOD22354   2.865   3.926  10.861  0.1438 -0.0321 -0.1648
  227SOD    SOD22355   0.872   2.397  16.874 -0.5714  0.3688 -0.0259
  228SOD    SOD22356   6.561   4.000  11.819  0.2536 -0.3018 -0.6397
  229SOD    SOD22357   0.717   0.117  11.195 -0.2954 -0.2662  0.1295
  230SOD    SOD22358   0.374   3.565  14.818  0.3251 -0.1696 -0.1817
  231SOD    SOD22359   5.832   3.294  14.144 -0.2477 -0.0704  0.3739
  232SOD    SOD22360   5.215   2.229   5.787  0.5137 -0.2399 -0.2379
  233SOD    SOD22361   5.357   1.251   2.300 -0.1089 -0.5071 -0.1774
  234SOD    SOD22362   1.774   6.571   0.724  0.1089  0.0011  0.1480
  235SOD    SOD22363   1.589   0.135   3.889  0.1795 -0.0669 -0.5134
  236SOD    SOD22364   3.303   5.163  15.605  0.3125  0.1834 -0.0809
  237SOD    SOD22365   0.419   5.419  11.031 -0.3781 -0.3510  0.0499
  238SOD    SOD22366   6.816   2.134   2.734  0.7690 -0.0171 -0.1825
  239SOD    SOD22367   2.592   0.601  11.687 -0.3044 -0.0621 -0.0830
  240SOD    SOD22368   6.217   3.631  16.595  0.3653  1.0347 -0.2175
  241SOD    SOD22369   5.672   0.377  11.201 -0.0796  0.1056  0.1616
  242SOD    SOD22370   0.590   4.422   4.753 -0.3449 -0.4411  0.4951
  243SOD    SOD22371   2.695   3.524   3.658 -0.2684  0.3852 -0.5127
  244SOD    SOD22372   0.373   3.460  16.864  0.7686  0.6768  0.1796
  245SOD    SOD22373   5.497   3.430  14.735 -0.0123 -0.3705 -0.3860
  246SOD    SOD22374   1.747   1.746  12.535 -0.0809 -0.3278  0.1140
  247SOD    SOD22375   1.403   5.439   5.099 -0.2043 -0.1956 -0.0686
  248SOD    SOD22376   4.668   5.481   5.939 -0.0607  0.0019 -0.5752
  249SOD    SOD22377   5.183   0.408   4.314  0.4684 -0.8517  0.1058
  250SOD    SOD22378   5.076   3.932   6.074  0.0353 -0.5551  0.0083
  251SOD    SOD22379   4.222   0.115   3.034  0.1185 -0.5976 -0.0198
  252SOD    SOD22380   3.791   1.341  12.421 -0.2036 -0.2973 -0.4315
  253SOD    SOD22381   0.073   0.433  16.198  0.2138 -0.3873  0.0278
  254SOD    SOD22382   5.488   0.860   2.413 -0.8484 -0.3697  0.3522
  255SOD    SOD22383   2.620   0.438   5.698  0.5487 -0.1364  0.1608
  256SOD    SOD22384   0.722   3.576   6.806  0.0261  0.5124  0.1305
  257SOD    SOD22385   4.202   0.429  11.592  0.2742 -0.1043  0.2641
  258SOD    SOD22386   5.536   4.514   2.343 -0.0313 -0.0342  0.2798
  259SOD    SOD22387   3.602   5.510  11.980  0.6853 -0.2560 -0.3350
  260SOD    SOD22388   0.112   0.064   5.884 -0.2176 -0.0139  0.1952
  261SOD    SOD22389   6.000   4.545   0.523 -0.1903 -0.0294 -0.1051
  262SOD    SOD22390   2.091   5.567  14.856  0.2595  0.0638 -0.0835
  263SOD    SOD22391   0.721   2.136   4.987  0.0096 -0.1553  0.1182
  264SOD    SOD22392   1.223   2.797   6.694  0.1055  0.1324 -0.3432
  265SOD    SOD22393   0.010   0.758  17.080 -0.1024 -0.3504 -0.4215
  266CLA    CLA22394   2.995   5.494  13.892 -0.5648 -0.1097  0.2546
  267CLA    CLA22395   3.719   1.030  15.127  0.0287  0.0970 -0.1290
  268CLA    CLA22396   4.975   6.767   0.653 -0.1877 -0.0740  0.3939
  269CLA    CLA22397   6.419   3.096  15.518 -0.1966  0.1774  0.1481
  270CLA    CLA22398   1.248   6.386  12.882  0.1677  0.4140 -0.1247
  271CLA    CLA22399   6.676   4.208   0.337  0.2876  0.2573  0.0549
  272CLA    CLA22400   6.494   1.635   6.022  0.1062  0.2322 -0.0662
  273CLA    CLA22401   2.667   5.509  12.888  0.1227  0.0133 -0.3041
  274CLA    CLA22402   4.163   3.030  14.405 -0.0308  0.3865 -0.2546
  275CLA    CLA22403   4.496   4.979   1.871  0.1060 -0.4364 -0.1944
  276CLA    CLA22404   5.393   0.775   0.320 -0.1867 -0.2336  0.2912
  277CLA    CLA22405   6.270   1.954   5.847 -0.1612  0.4105 -0.1435
  278CLA    CLA22406   0.927   4.930  16.950 -0.1049 -0.0708 -0.1479
  279CLA    CLA22407   2.471   0.881   3.109  0.0116 -0.2365  0.2502
  280CLA    CLA22408   6.687   1.572   4.072  0.0431 -0.1955 -0.4678
  281CLA    CLA22409   0.040   2.671  12.916  0.0005  0.1197  0.1225
  282CLA    CLA22410   1.336   6.446   4.027 -0.3242  0.4959  0.1295
  283CLA    CLA22411   6.620   2.826  16.578 -0.2123 -0.4803 -0.3848
  284CLA    CLA22412   5.955   6.664  16.133  0.1157  0.0059 -0.1393
  285CLA    CLA22413   1.041   6.060  11.889 -0.0753  0.4276  0.0792
  286CLA    CLA22414   1.858   0.179  14.151 -0.0392  0.2854 -0.1162
  287CLA    CLA22415   5.788   0.817  17.038 -0.3821 -0.0539 -0.1231
  288CLA    CLA22416   4.671   3.464  16.220 -0.3677 -0.1181  0.0646
  289CLA    CLA22417   1.887   1.646  13.635 -0.1205  0.0821  0.1807
  290CLA    CLA22418   2.175   5.013   3.756  0.0983  0.3736  0.2755
  291CLA    CLA22419   0.448   5.072   5.629  0.1221  0.3725 -0.0780
  292CLA    CLA22420   1.107   3.050  14.320  0.3568  0.3294  0.0875
  293CLA    CLA22421   3.249   2.792   1.347 -0.3082 -0.0425 -0.0483
  294CLA    CLA22422   4.558   5.919  12.108 -0.1752  0.0055  0.1836
  295CLA    CLA22423   5.538   1.126  15.246 -0.1968 -0.1131  0.2325
  296CLA    CLA22424   4.762   3.076  12.106 -0.1365  0.3967  0.5178
  297CLA    CLA22425   5.572   0.753   4.308  0.1163 -0.5126 -0.1495
  298CLA    CLA22426   6.402   4.411   3.281 -0.0364  0.3437  0.5094
  299CLA    CLA22427   5.883   0.581   1.955 -0.6209  0.1252  0.0462
  300CLA    CLA22428   2.247   3.502  16.993  0.1195  0.4043 -0.2772
  301CLA    CLA22429   5.377   3.806  17.108 -0.5128  0.0065 -0.1475
  302CLA    CLA22430   3.278   4.896  15.705 -0.4417  0.0587  0.4310
  303CLA    CLA22431   0.760   5.905  15.500  0.5060 -0.1090  0.0190
  304CLA    CLA22432   0.712   1.798   0.041  0.1240 -0.2940  0.0062
  305CLA    CLA22433   5.686   2.986  14.757 -0.1302  0.5743  0.3264
  306CLA    CLA22434   4.814   6.077   0.618  0.2057  0.1325  0.0019
  307CLA    CLA22435   1.328   2.293  15.898  0.2098 -0.0700 -0.5397
  308CLA    CLA22436   1.019   4.561   2.839  0.1548  0.2789  0.2303
  309CLA    CLA22437   0.905   4.158   1.895  0.1098  0.3666  0.0807
  310CLA    CLA22438   4.635   4.409   2.966  0.2664 -0.2873 -0.3954
  311CLA    CLA22439   2.902   6.161   2.655  0.3950 -0.1437 -0.1189
  312CLA    CLA22440   5.095   3.436  16.110  0.2715 -0.1892 -0.0996
  313CLA    CLA22441   6.129   2.361   2.717  0.1489  0.0518  0.1925
  314CLA    CLA22442   1.287   2.882  11.531 -0.0050 -0.0007  0.3172
  315CLA    CLA22443   0.394   2.828  14.251  0.1642 -0.3629  0.1027
  316CLA    CLA22444   1.864   6.798   0.850 -0.1718  0.1008 -0.4678
  317CLA    CLA22445   6.244   5.928   1.206  0.1003 -0.0019  0.1301
  318CLA    CLA22446   4.182   4.323   0.923 -0.1317 -0.0747 -0.3129
  319TIP3   OH222447   1.373   0.361  13.902  0.0677  0.0350 -0.2327
  319TIP3    H122448   1.454   0.372  13.952 -0.1903 -1.8436  0.6360
  319TIP3    H222449   1.350   0.269  13.913 -1.7898  0.3712 -1.0940
  320TIP3   OH222450   5.064   5.550  12.808  0.2862  0.1915 -0.1963
  320TIP3    H122451   5.130   5.512  12.750 -1.4365 -1.1442 -1.3288
  320TIP3    H222452   5.067   5.496  12.887  1.0419  0.5943  0.0582
  321TIP3   OH222453   5.568   3.438  10.088  0.4049 -0.0240  0.5764
  321TIP3    H122454   5.546   3.403  10.174  0.1733 -0.1488  0.4667
  321TIP3    H222455   5.611   3.366  10.043 -1.8575 -0.8359 -0.3616
  322TIP3   OH222456   2.632   0.846   1.477 -0.2350  0.4432  0.3844
  322TIP3    H122457   2.698   0.911   1.505  0.5659  0.2765 -1.0851
  322TIP3    H222458   2.634   0.780   1.547  2.9755 -0.8361 -0.8158
  323TIP3   OH222459   2.001   2.490   1.968  0.1420  0.4042 -0.3388
  323TIP3    H122460   2.066   2.455   1.908 -0.3094  0.0814 -0.6379
  323TIP3    H222461   1.920   2.491   1.918 -0.0801  0.8428  0.0209
  324TIP3   OH222462   3.372   5.033  14.800 -0.1047  0.2189  0.3784
  324TIP3    H122463   3.452   5.083  14.780 -0.8587  1.5080  0.5272
  324TIP3    H222464   3.373   5.024  14.895  0.5567 -0.9690  0.2730
  325TIP3   OH222465   2.936   5.798   2.548 -0.4783 -0.5783 -0.8051
  325TIP3    H122466   2.976   5.789   2.634  0.2854  1.5602 -0.8799
  325TIP3    H222467   2.844   5.774   2.560 -0.2948 -0.6195  0.5241
  326TIP3   OH222468   4.241   3.219   2.561  0.2058 -0.2492 -1.0526
  326TIP3    H122469   4.182   3.150   2.589 -1.6871  0.6803 -2.5795
  326TIP3    H222470   4.186   3.275   2.505  1.5608  2.6630  0.4296
  327TIP3   OH222471   3.437   4.612  10.769 -0.1741 -0.2933 -0.7659
  327TIP3    H122472   3.475   4.533  10.730 -0.6257 -0.7222 -0.3355
  327TIP3    H222473   3.450   4.680  10.703 -1.8365 -1.2373 -2.1002
  328TIP3   OH222474   2.321   6.582   4.104 -0.2336  0.1520  0.0158
  328TIP3    H122475   2.307   6.497   4.144 -1.4029  0.1948 -0.2779
  328TIP3    H222476   2.324   6.565   4.010 -0.3744  0.4262 -0.0395
  329TIP3   OH222477   4.692   2.588  16.138 -0.5762  0.4486 -0.3689
  329TIP3    H122478   4.717   2.638  16.061  0.5404  1.0825  0.3991
  329TIP3    H222479   4.601   2.613  16.154 -0.6281  0.7623 -1.1215
  330TIP3   OH222480   2.687   5.104  14.611 -0.2422  0.0053  0.5156
  330TIP3    H122481   2.644   5.020  14.594  0.3320 -0.2167  0.1564
  330TIP3    H222482   2.623   5.153  14.663 -1.4690  0.1468 -1.0653
  331TIP3   OH222483   5.459   3.767   2.960  0.7366  0.4720 -0.0933
  331TIP3    H122484   5.475   3.857   2.987 -0.2537  0.8110 -0.6303
  331TIP3    H222485   5.430   3.723   3.040  0.5584  0.7957  0.0207
  332TIP3   OH222486   1.515   5.585  16.077  0.4852  0.0471 -0.2969
  332TIP3    H122487   1.490   5.572  16.169  1.1514 -0.3020 -0.1566
  332TIP3    H222488   1.448   5.540  16.027 -0.0906  0.5618  0.0083
  333TIP3   OH222489   3.792   6.752  13.063  0.7409  0.5840 -0.1062
  333TIP3    H122490   3.785   6.773  13.157  0.4160  2.7531 -0.5742
  333TIP3    H222491   3.862   6.687  13.058  1.9986  1.7490  1.4883
  334TIP3   OH222492   6.652   3.787  14.094  0.2670 -0.1914 -0.2229
  334TIP3    H122493   6.566   3.818  14.123 -0.7708 -3.1865  0.1144
  334TIP3    H222494   6.698   3.866  14.066 -3.5714  1.1959 -2.9916
  335TIP3   OH222495   5.777   2.095   2.683  0.1051 -0.4025  0.0715
  335TIP3    H122496   5.788   2.029   2.752  0.0107  0.1773  0.6544
  335TIP3    H222497   5.789   2.179   2.729  0.5369 -0.0319 -0.7246
  336TIP3   OH222498   4.587   0.029  16.286  0.7344 -0.3538  0.4213
  336TIP3    H122499   4.591  -0.050  16.340 -1.1100 -0.3212  0.6163
  336TIP3    H222500   4.589  -0.004  16.196 -1.4845 -0.7172  0.4943
  337TIP3   OH222501   2.051   4.620  11.342 -0.5577  0.8442 -0.1712
  337TIP3    H122502   2.067   4.714  11.342 -1.1489  0.9653 -1.8433
  337TIP3    H222503   1.966   4.610  11.384  0.3086  0.8863  1.6236
  338TIP3   OH222504   4.309   6.007   4.354 -0.1746  0.0369 -0.4832
  338TIP3    H122505   4.266   6.021   4.437  0.3535 -0.4185 -0.1235
  338TIP3    H222506   4.254   5.943   4.308 -0.5735  0.4451 -0.5666
  339TIP3   OH222507   3.764   0.894   5.971  0.1591  0.3328 -0.0362
  339TIP3    H122508   3.829   0.862   5.908 -0.4133  0.5235 -0.7347
  339TIP3    H222509   3.778   0.989   5.974  0.4579  0.2781  0.4439
  340TIP3   OH222510   2.742   2.826   0.554  0.1145 -0.2275 -0.1856
  340TIP3    H122511   2.709   2.876   0.480  1.5046 -0.5183 -1.0146
  340TIP3    H222512   2.770   2.892   0.618 -0.9520  0.0195  0.0401
  341TIP3   OH222513   2.219   6.547  14.010  0.2924 -0.2793  0.3740
  341TIP3    H122514   2.133   6.586  13.999 -0.2468 -1.7255 -0.6973
  341TIP3    H222515   2.264   6.562  13.927  0.8467 -0.0691  0.7092
  342TIP3   OH222516   1.968   6.460   0.734  0.2024  0.1512 -0.2101
  342TIP3    H122517   2.030   6.486   0.666  1.8946 -0.2249  1.1526
  342TIP3    H222518   2.021   6.411   0.797 -1.5567 -0.4694  0.8124
  343TIP3   OH222519   2.619   4.138  14.391  0.4847 -0.2366 -0.4052
  343TIP3    H122520   2.616   4.057  14.341  0.8279  0.7703 -2.1178
  343TIP3    H222521   2.533   4.145  14.432  0.3777 -1.3396 -0.4374
  344TIP3   OH222522   1.508   6.061   4.897 -1.0802  0.2861  0.1037
  344TIP3    H122523   1.439   6.087   4.957 -0.7480  0.6489  0.3338
  344TIP3    H222524   1.472   6.079   4.810 -0.7473  1.8658  0.2587
  345TIP3   OH222525   0.564   4.799  12.517 -0.4123  0.4846 -0.4067
  345TIP3    H122526   0.657   4.801  12.536 -0.4982  0.1418  0.0608
  345TIP3    H222527   0.554   4.850  12.437 -0.2034  3.1027  1.1635
  346TIP3   OH222528   3.131   4.334   1.782  0.1693  0.4306 -0.3866
  346TIP3    H122529   3.090   4.248   1.782  1.9589 -0.4778  1.3686
  346TIP3    H222530   3.144   4.354   1.689  0.8218 -1.7631 -0.8206
  347TIP3   OH222531   4.030   3.243   5.568  0.7266 -0.2336 -0.2373
  347TIP3    H122532   4.017   3.212   5.478 -0.6504  0.4765 -0.3029
  347TIP3    H222533   4.064   3.167   5.615  2.6187 -0.2745 -1.6180
  348TIP3   OH222534   0.731   4.343  15.689 -0.2373  0.6017  0.1061
  348TIP3    H122535   0.753   4.270  15.747  0.0941  0.1035 -0.6343
  348TIP3    H222536   0.794   4.335  15.617  0.7718  2.4968  0.7438
  349TIP3   OH222537   4.472   2.455  15.111  0.3129  0.2032  0.2242
  349TIP3    H122538   4.556   2.415  15.090 -0.4880 -1.2681 -0.2630
  349TIP3    H222539   4.493   2.521  15.177  1.7011 -0.9289  0.9536
  350TIP3   OH222540   4.450   5.674   0.247 -0.3365 -0.1398 -0.3007
  350TIP3    H122541   4.368   5.699   0.290 -0.2647 -0.6098  0.1091
  350TIP3    H222542   4.519   5.711   0.302 -0.2854  0.8056 -0.9925
  351TIP3   OH222543   3.898   0.169  14.969 -0.0895  0.1885 -0.2863
  351TIP3    H122544   3.816   0.170  14.919 -0.0509  0.5104 -0.3444
  351TIP3    H222545   3.874   0.204  15.054 -0.3175 -1.0791  0.1794
  352TIP3   OH222546   3.495   2.049  13.458  0.2251  0.0761  0.0848
  352TIP3    H122547   3.419   2.098  13.490 -0.5903 -1.5312  0.6601
  352TIP3    H222548   3.480   1.960  13.489  1.9437 -0.4275 -0.5205
  353TIP3   OH222549   4.862   6.665   2.710  0.7798 -0.0107 -0.1334
  353TIP3    H122550   4.939   6.702   2.754  0.6649 -1.0172  0.9470
  353TIP3    H222551   4.878   6.679   2.617  1.5389  1.1948  0.1642
  354TIP3   OH222552   4.813   0.838  12.079 -0.8850  0.1251  0.3151
  354TIP3    H122553   4.784   0.887  12.002 -2.5369 -0.7989  0.3286
  354TIP3    H222554   4.865   0.902  12.130 -1.4213  1.2985 -0.5869
  355TIP3   OH222555   0.457   4.498  14.013  0.6148  0.1439 -0.2268
  355TIP3    H122556   0.482   4.471  13.925  0.4072  0.1526 -0.2882
  355TIP3    H222557   0.536   4.486  14.065  1.0863  1.3439 -0.6764
  356TIP3   OH222558   3.173   5.318   2.885  0.5494  0.6678  0.0913
  356TIP3    H122559   3.087   5.285   2.861  0.2034  0.9225  0.9864
  356TIP3    H222560   3.183   5.295   2.977  0.9161  1.7631  0.3293
  357TIP3   OH222561   1.624   4.720   3.774  0.0273 -0.1382  0.4053
  357TIP3    H122562   1.588   4.632   3.789  1.1806 -0.2822  2.5054
  357TIP3    H222563   1.567   4.757   3.707 -0.9853 -2.1886  0.0652
  358TIP3   OH222564   3.631   6.705   4.580  0.0292 -0.3653  0.6993
  358TIP3    H122565   3.608   6.712   4.672  0.0878  1.1256  0.6033
  358TIP3    H222566   3.694   6.632   4.576  0.0481 -0.4126  1.8229
  359TIP3   OH222567   0.960   6.610  15.819  0.1021  0.1208  0.3313
  359TIP3    H122568   0.974   6.664  15.897  0.2277 -0.6259  0.8358
  359TIP3    H222569   0.894   6.546  15.846 -0.2010  0.1547 -0.3254
  360TIP3   OH222570   4.053   3.580   4.302  0.0020  0.0308 -0.2142
  360TIP3    H122571   4.015   3.576   4.390  2.7235 -1.7686  0.9556
  360TIP3    H222572   3.978   3.578   4.243 -1.7917 -1.4070  2.0237
  361TIP3   OH222573   2.323   1.476  14.928  0.4698 -0.0950 -0.5666
  361TIP3    H122574   2.304   1.383  14.939  0.0564 -0.0130 -0.5777
  361TIP3    H222575   2.259   1.520  14.984  2.4133  0.0888  1.5979
  362TIP3   OH222576   3.645   1.005  10.457  0.0327 -0.1241 -0.5303
  362TIP3    H122577   3.727   1.034  10.496  0.0209  0.2563 -0.7876
  362TIP3    H222578   3.656   0.911  10.443  0.0157 -0.2827  0.4530
  363TIP3   OH222579   3.875   3.537   4.509 -0.0852  0.0977  0.5448
  363TIP3    H122580   3.890   3.474   4.579 -1.6927  0.4708  1.2432
  363TIP3    H222581   3.846   3.616   4.553  2.7162  1.6463 -0.2670
  364TIP3   OH222582   4.349   6.701   4.120  0.9720 -0.1803 -0.6685
  364TIP3    H122583   4.374   6.610   4.136  0.9424  0.0018  0.4386
  364TIP3    H222584   4.316   6.701   4.030  0.0007 -1.4719 -0.3307
  365TIP3   OH222585   5.183   2.853   1.824  0.4629  0.1613  0.1158
  365TIP3    H122586   5.270   2.812   1.827 -0.4216 -1.7345  1.0397
  365TIP3    H222587   5.150   2.832   1.737 -0.0699 -1.3544  0.6542
  366TIP3   OH222588   2.572   5.124  16.764  0.6850  0.2244 -0.3727
  366TIP3    H122589   2.578   5.033  16.738  0.4390 -0.0422  0.4570
  366TIP3    H222590   2.553   5.120  16.858  0.5433  1.1243 -0.3585
  367TIP3   OH222591   6.522   6.227   4.729 -0.0768  0.3354 -0.9941
  367TIP3    H122592   6.460   6.266   4.668  0.0856 -0.3947 -1.6307
  367TIP3    H222593   6.494   6.259   4.815 -0.9002  0.5847 -1.3484
  368TIP3   OH222594   2.716   0.775   4.690  0.0318  0.0073 -0.3843
  368TIP3    H122595   2.644   0.712   4.704  1.4662 -1.4516  0.5968
  368TIP3    H222596   2.765   0.774   4.772  1.4940  0.5855 -1.2429
  369TIP3   OH222597   4.630   4.396   3.274  0.3976  0.0347  0.8643
  369TIP3    H122598   4.650   4.411   3.182  0.4926 -1.7694  0.5801
  369TIP3    H222599   4.536   4.375   3.275  0.7074 -1.3815  0.9946
  370TIP3   OH222600   2.659   6.477  17.203 -0.2296  0.3863 -0.6143
  370TIP3    H122601   2.565   6.463  17.197 -0.2074  0.2047 -0.5375
  370TIP3    H222602   2.692   6.456  17.115 -0.2559  0.4210 -0.6324
  371TIP3   OH222603   0.324   6.433   5.532  0.0410  0.3062  0.0492
  371TIP3    H122604   0.406   6.387   5.514  0.0948  0.2620  0.4061
  371TIP3    H222605   0.286   6.449   5.445  0.0309 -0.3963 -0.0791
  372TIP3   OH222606   6.448   3.785   5.374  0.2827  0.3588  0.7867
  372TIP3    H122607   6.523   3.755   5.323 -0.6424  0.8965 -0.9446
  372TIP3    H222608   6.472   3.768   5.465  1.2567 -2.3426  0.0961
  373TIP3   OH222609   2.888   5.338  15.802  0.0724  0.3155 -0.4563
  373TIP3    H122610   2.893   5.246  15.776 -1.0648  0.6466 -1.9330
  373TIP3    H222611   2.863   5.335  15.895 -0.0262 -0.8699 -0.5105
  374TIP3   OH222612   2.054   5.585   0.147  0.2434  0.8389 -0.9000
  374TIP3    H122613   1.978   5.526   0.150  1.3072 -0.4842  1.2964
  374TIP3    H222614   2.018   5.667   0.114 -1.9310 -0.0644 -0.9204
  375TIP3   OH222615   4.120   4.576   0.249 -0.1222  0.9588 -0.0632
  375TIP3    H122616   4.209   4.563   0.281 -0.6172 -1.4540  0.4062
  375TIP3    H222617   4.067   4.585   0.329 -1.2014 -4.0222 -0.0901
  376TIP3   OH222618   1.725   0.792   2.429 -0.3237 -0.1937  0.3028
  376TIP3    H122619   1.814   0.767   2.406  0.0749  2.7748 -1.7093
  376TIP3    H222620   1.732   0.883   2.457 -2.9132  0.6522 -1.5560
  377TIP3   OH222621   5.329   4.496   4.566 -0.0982  0.5729 -0.5356
  377TIP3    H122622   5.340   4.551   4.488 -1.7077  0.3008 -0.9765
  377TIP3    H222623   5.250   4.530   4.609  0.7113  0.6483  0.9243
  378TIP3   OH222624   4.119   1.923  13.116 -0.3429  0.2932 -0.3549
  378TIP3    H122625   4.107   1.829  13.106 -0.5988  0.3798 -0.8818
  378TIP3    H222626   4.067   1.946  13.193  1.2145 -0.2931  0.8874
  379TIP3   OH222627   6.551   4.614  11.208 -0.4443  0.5241  0.1198
  379TIP3    H122628   6.628   4.612  11.151 -1.1977 -1.9418 -0.9090
  379TIP3    H222629   6.506   4.695  11.185  0.5754  0.7977 -0.9933
  380TIP3   OH222630   1.578   1.811  13.123 -0.1284  0.0321  0.5230
  380TIP3    H122631   1.576   1.801  13.028 -0.4878  1.2970  0.3975
  380TIP3    H222632   1.621   1.731  13.154  3.4391  1.2747 -0.9306
  381TIP3   OH222633   1.725   1.057   2.524 -0.3995  0.7270  0.1135
  381TIP3    H122634   1.798   1.114   2.501 -0.7594  1.0183 -0.3074
  381TIP3    H222635   1.679   1.104   2.594  1.0635 -0.4474  1.9301
  382TIP3   OH222636   3.352   0.819  14.277  0.0896 -0.0166 -0.1158
  382TIP3    H122637   3.377   0.898  14.325  2.0044 -0.5620 -0.1791
  382TIP3    H222638   3.392   0.830  14.191 -1.8084  0.1236 -1.0032
  383TIP3   OH222639   5.326   2.033  13.886  0.3548 -0.2920  0.1644
  383TIP3    H122640   5.381   2.054  13.811 -0.1188  0.5343  0.0454
  383TIP3    H222641   5.383   1.983  13.944  0.9986 -0.1156 -0.3140
  384TIP3   OH222642   1.872   3.644  17.063  0.4334  0.0699  0.2397
  384TIP3    H122643   1.797   3.660  17.006 -0.6027 -1.2727  1.1869
  384TIP3    H222644   1.871   3.717  17.125 -0.3851 -0.1774  0.5305
  385TIP3   OH222645   4.152   1.923  14.727 -0.5906  0.0834 -0.5405
  385TIP3    H122646   4.211   1.901  14.654 -2.0064 -1.0032 -1.3888
  385TIP3    H222647   4.210   1.956  14.796  1.0315 -1.2248 -1.2513
  386TIP3   OH222648   1.127   3.898   2.037  0.0808 -0.1816  0.2900
  386TIP3    H122649   1.061   3.850   2.085  0.4673  1.5049  2.5693
  386TIP3    H222650   1.105   3.990   2.050  1.6622  0.3545 -0.6444
  387TIP3   OH222651   0.932   3.038   1.867  0.7788  0.7588 -0.4512
  387TIP3    H122652   0.906   2.963   1.813  1.5569 -0.1317  0.3861
  387TIP3    H222653   0.893   3.113   1.823  0.5049 -0.0620 -1.6672
  388TIP3   OH222654   2.123   4.244   5.974  0.6613  0.0192 -0.1854
  388TIP3    H122655   2.184   4.270   6.042  0.4501  1.2470 -0.4518
  388TIP3    H222656   2.126   4.315   5.910 -1.3281  0.3246  0.0023
  389TIP3   OH222657   3.313   1.602  13.473  0.2044  0.0645  0.0282
  389TIP3    H122658   3.310   1.522  13.420  0.2952  0.8044 -1.0985
  389TIP3    H222659   3.246   1.588  13.541 -0.9805 -0.2508 -1.1840
  390TIP3   OH222660   5.109   4.633   3.455  0.2371 -0.2844 -0.2495
  390TIP3    H122661   5.203   4.615   3.463  0.6968  2.2065  0.2674
  390TIP3    H222662   5.082   4.584   3.377  2.2539  0.0694 -1.1968
  391TIP3   OH222663   1.200   1.045   4.609  0.3539  0.7050 -0.0165
  391TIP3    H122664   1.234   1.093   4.533  0.5921 -0.4610 -0.6499
  391TIP3    H222665   1.105   1.044   4.596  0.5094 -0.7368 -1.0356
  392TIP3   OH222666   6.688   0.308   6.110  0.5540  0.1397  0.0626
  392TIP3    H122667   6.598   0.328   6.133  0.6945  0.8071  0.0391
  392TIP3    H222668   6.716   0.243   6.174  0.2979  0.4930  0.5298
  393TIP3   OH222669   4.711   4.234   4.268 -0.4727  0.0612  0.4558
  393TIP3    H122670   4.710   4.304   4.333  0.4169  0.4938  0.0081
  393TIP3    H222671   4.781   4.258   4.208 -0.6335 -0.8503 -0.1053
  394TIP3   OH222672   4.797   6.049  16.129  0.5920 -0.1859 -0.5804
  394TIP3    H122673   4.847   6.124  16.162  0.3813 -0.1266 -0.4016
  394TIP3    H222674   4.782   6.070  16.037  2.2520 -0.9172 -1.0430
  395TIP3   OH222675   3.168   0.865  14.766 -0.4707  0.9008  0.5059
  395TIP3    H122676   3.163   0.776  14.732  0.1113  1.3629 -0.8357
  395TIP3    H222677   3.215   0.856  14.848 -0.9291 -0.1083  0.6681
  396TIP3   OH222678   6.695   5.478   4.384  0.2631  0.1237 -0.0857
  396TIP3    H122679   6.735   5.552   4.430 -2.7702  0.0219  2.8869
  396TIP3    H222680   6.689   5.409   4.450 -2.5466 -0.6621 -1.0807
  397TIP3   OH222681   3.545   6.141   1.110 -0.2583 -0.0875  0.0611
  397TIP3    H122682   3.491   6.111   1.183  0.4870  1.1945  1.1669
  397TIP3    H222683   3.481   6.173   1.046 -0.8856 -0.2364  0.6005
  398TIP3   OH222684   3.076   4.526  11.726  0.1735 -0.6142  0.5433
  398TIP3    H122685   3.093   4.543  11.634 -0.1154  1.1798  0.7945
  398TIP3    H222686   2.993   4.569  11.744  0.2234 -0.9457  1.6348
  399TIP3   OH222687   6.418   3.412   5.981 -0.1465 -0.0285 -0.1557
  399TIP3    H122688   6.419   3.404   6.076  2.0598  0.9720 -0.0560
  399TIP3    H222689   6.418   3.321   5.950 -0.5025 -0.3589  0.7897
  400TIP3   OH222690   4.768   5.907  16.349 -0.3426 -0.2442 -0.0536
  400TIP3    H122691   4.776   5.940  16.260 -3.0050  0.5132 -0.0458
  400TIP3    H222692   4.793   5.981  16.404  0.0183 -0.3059 -0.1305
  401TIP3   OH222693   6.071   6.513   0.447 -0.5227  0.0512  0.3966
  401TIP3    H122694   6.002   6.556   0.497  0.3293  1.2254  0.5743
  401TIP3    H222695   6.121   6.584   0.407  0.3062 -0.7935 -0.1138
  402TIP3   OH222696   0.144   0.628  15.670 -0.9085  0.0788 -0.3310
  402TIP3    H122697   0.239   0.629  15.655 -0.7556  2.5026  0.5919
  402TIP3    H222698   0.132   0.563  15.740  0.4897  2.1255  1.8788
  403TIP3   OH222699   1.344   4.734  14.929  1.0803  0.4145 -0.0172
  403TIP3    H122700   1.411   4.742  14.861 -1.0988 -1.4213 -2.4774
  403TIP3    H222701   1.289   4.812  14.917 -0.4980 -0.9240 -1.7839
  404TIP3   OH222702   2.048   3.155  14.761 -0.1699 -0.0273  0.4297
  404TIP3    H122703   2.079   3.153  14.670 -0.3994 -2.3962  0.3790
  404TIP3    H222704   2.032   3.247  14.779 -0.7337  0.4097 -2.1529
  405TIP3   OH222705   2.259   3.122  15.772  0.4248  0.0555 -0.0490
  405TIP3    H122706   2.229   3.133  15.863 -0.1072  1.7206 -0.4092
  405TIP3    H222707   2.354   3.131  15.777  0.3548  0.6822  0.2917
  406TIP3   OH222708   4.592   1.756   0.919 -0.2238  0.1784 -0.1170
  406TIP3    H122709   4.579   1.722   1.007 -0.8254 -1.9541 -1.0034
  406TIP3    H222710   4.512   1.805   0.900  0.6876  2.2381  1.2039
  407TIP3   OH222711   5.806   2.433  14.330 -0.2888 -0.0598  0.0564
  407TIP3    H122712   5.755   2.399  14.403 -0.7031  0.5265  0.0441
  407TIP3    H222713   5.893   2.448  14.368 -0.8949  1.6577  0.8410
  408TIP3   OH222714   1.515   2.691  16.214  0.1271 -0.2331 -0.0165
  408TIP3    H122715   1.472   2.742  16.283  1.1412  0.3169  0.2332
  408TIP3    H222716   1.454   2.693  16.141  0.2629  1.6310 -0.1160
  409TIP3   OH222717   6.059   4.993   2.863  0.4797 -0.0326  0.3123
  409TIP3    H122718   6.025   5.063   2.807  1.9778 -0.8799 -1.7150
  409TIP3    H222719   6.154   5.000   2.856  0.7251 -0.1314  2.8400
  410TIP3   OH222720   1.460   2.684  14.379 -0.4778  1.0760 -0.1067
  410TIP3    H122721   1.455   2.611  14.317 -1.0599 -0.5043  1.7415
  410TIP3    H222722   1.531   2.660  14.438 -1.5066  1.3602  1.2821
  411TIP3   OH222723   4.175   6.458  11.846 -0.2595  0.1249  0.0533
  411TIP3    H122724   4.139   6.385  11.897 -0.6267  0.2303 -0.0621
  411TIP3    H222725   4.106   6.483  11.785 -0.7836  1.7150  1.2669
  412TIP3   OH222726   4.685   6.315  13.735 -0.6825 -0.7015  0.2528
  412TIP3    H122727   4.614   6.366  13.773  0.5709 -0.1408  1.8819
  412TIP3    H222728   4.727   6.375  13.673 -0.0040 -0.1482  1.2313
  413TIP3   OH222729   5.342   0.965  12.767  0.5865  0.4797 -0.3212
  413TIP3    H122730   5.426   0.951  12.724  1.2330  1.2279  0.6820
  413TIP3    H222731   5.281   0.985  12.696  1.6023  1.5349 -0.9010
  414TIP3   OH222732   2.174   3.335  17.276 -0.6442 -0.1065 -0.0960
  414TIP3    H122733   2.165   3.244  17.249 -1.0119 -0.0539 -0.1485
  414TIP3    H222734   2.178   3.384  17.193  0.4711 -0.1571 -0.0847
  415TIP3   OH222735   6.038   3.512   5.848 -0.3399  0.4695  0.6620
  415TIP3    H122736   5.973   3.557   5.794 -0.4134  1.0180  1.1980
  415TIP3    H222737   5.988   3.451   5.901 -0.2550 -0.1618  0.0308
  416TIP3   OH222738   1.302   6.572  13.758  0.6398  0.1415  0.1548
  416TIP3    H122739   1.359   6.614  13.823 -0.7358  1.9719  0.2191
  416TIP3    H222740   1.363   6.534  13.694  1.9584  0.6898  1.0675
  417TIP3   OH222741   0.605   1.768  11.117 -0.0423  0.2326 -0.0105
  417TIP3    H122742   0.519   1.728  11.102  0.1441  0.0128 -0.4978
  417TIP3    H222743   0.628   1.742  11.206  0.9731 -2.4418 -1.0148
  418TIP3   OH222744   3.066   3.659  14.940  0.2541  0.0371  0.2294
  418TIP3    H122745   3.001   3.728  14.925  0.8128  0.0387 -2.3380
  418TIP3    H222746   3.030   3.609  15.013 -1.1379  1.8544  0.8283
  419TIP3   OH222747   0.271   5.827   4.080 -0.7789  0.6109 -0.5866
  419TIP3    H122748   0.255   5.775   4.159  0.5611 -0.8493 -1.2513
  419TIP3    H222749   0.230   5.777   4.010  0.8595  0.2415 -1.2915
  420TIP3   OH222750   2.366   2.030  12.673  0.4669  0.0991 -0.2455
  420TIP3    H122751   2.391   1.953  12.622 -0.0365 -0.4264  0.2926
  420TIP3    H222752   2.385   2.007  12.763  2.6982  1.5669 -0.3071
  421TIP3   OH222753   6.716   2.257  14.521 -0.2260  0.0725 -0.1352
  421TIP3    H122754   6.743   2.288  14.607  1.5482 -2.5103  0.3015
  421TIP3    H222755   6.712   2.336  14.466  1.3694  1.3827  1.5928
  422TIP3   OH222756   1.146   6.746  10.533  0.2954  0.2153  0.7824
  422TIP3    H122757   1.185   6.788  10.609  0.1579 -1.2908  1.7125
  422TIP3    H222758   1.218   6.698  10.492  0.1999  0.3813  0.4157
  423TIP3   OH222759   0.072   0.434   3.139  0.1455 -0.0111 -0.4592
  423TIP3    H122760   0.120   0.486   3.074 -1.7995  1.2478 -0.9007
  423TIP3    H222761   0.058   0.492   3.213 -0.7534 -0.3510 -0.3523
  424TIP3   OH222762   3.321   4.503  13.591  0.1081  0.9479  0.1725
  424TIP3    H122763   3.377   4.480  13.664 -0.0287  0.7613  0.2176
  424TIP3    H222764   3.268   4.576  13.623  0.4831  1.2725  0.0557
  425TIP3   OH222765   0.930   0.094  13.009  0.3898 -0.8331  0.2530
  425TIP3    H122766   0.908   0.033  12.939  2.2186 -1.8836  0.5608
  425TIP3    H222767   0.954   0.039  13.083  0.9384  0.2508  0.9010
  426TIP3   OH222768   1.701   6.088  16.457 -0.2722 -0.2163  0.1026
  426TIP3    H122769   1.735   6.058  16.372  0.5153 -1.1096  0.7234
  426TIP3    H222770   1.606   6.097  16.443 -0.3248 -1.6255 -0.5024
  427TIP3   OH222771   5.701   2.244   4.007  1.0679  0.0795  0.5135
  427TIP3    H122772   5.732   2.209   4.091  2.2824  1.8376  0.8123
  427TIP3    H222773   5.663   2.329   4.029 -1.3633 -0.7467 -0.2948
  428TIP3   OH222774   4.582   4.972  12.304  0.3410 -0.2960 -0.4233
  428TIP3    H122775   4.522   4.920  12.250 -0.4896 -1.0678  1.1880
  428TIP3    H222776   4.621   5.035  12.243 -0.6205 -1.0834 -1.8942
  429TIP3   OH222777   4.229   5.940   3.098  0.1340 -0.3184  0.2279
  429TIP3    H122778   4.300   5.938   3.162 -0.1052  0.0939  0.5054
  429TIP3    H222779   4.239   5.858   3.050  1.1745  0.0101 -0.1461
  430TIP3   OH222780   3.189   6.371  13.536 -0.1443  0.6873  0.0718
  430TIP3    H122781   3.169   6.340  13.447 -0.3112  0.0265  0.3399
  430TIP3    H222782   3.211   6.463  13.524  0.5063  0.4355 -0.7538
  431TIP3   OH222783   6.246   1.327  13.567 -0.7974  0.1595  0.1622
  431TIP3    H122784   6.329   1.290  13.536 -1.6962 -1.4590 -0.4034
  431TIP3    H222785   6.191   1.329  13.489 -1.4772  0.6748  0.6563
  432TIP3   OH222786   0.491   1.736  12.709  0.0434 -0.0436 -0.4090
  432TIP3    H122787   0.500   1.662  12.769  0.0560  0.5138  0.2776
  432TIP3    H222788   0.576   1.741  12.665 -0.5283 -1.5285 -1.7316
  433TIP3   OH222789   0.311   1.732  12.996  0.1055 -0.3275 -0.0796
  433TIP3    H122790   0.273   1.772  13.075  1.7347  0.8363  0.1423
  433TIP3    H222791   0.295   1.639  13.007 -2.2226  0.0834  0.2418
  434TIP3   OH222792   2.638   1.805  12.598  0.1664  0.0437  0.2478
  434TIP3    H122793   2.641   1.850  12.683  0.5420  1.2893 -0.4016
  434TIP3    H222794   2.713   1.747  12.598  0.5168  0.4930  0.5407
  435TIP3   OH222795   0.217   6.331  13.797 -0.0635 -0.0509  0.4048
  435TIP3    H122796   0.299   6.283  13.783 -0.1077  0.1679 -0.6438
  435TIP3    H222797   0.189   6.307  13.885  1.2953  0.1023  0.8887
  436TIP3   OH222798   6.223   6.655  14.869  0.4461 -0.3306  0.5375
  436TIP3    H122799   6.214   6.706  14.949 -3.1095 -1.0710  0.6512
  436TIP3    H222800   6.243   6.721  14.802 -1.8533  0.9652  1.0769
  437TIP3   OH222801   1.368   3.765   4.459 -0.2610 -0.3013  0.1399
  437TIP3    H122802   1.287   3.802   4.423  0.5772  1.8559  0.4330
  437TIP3    H222803   1.405   3.714   4.386 -1.3083 -0.3827 -0.3457
  438TIP3   OH222804   0.097   2.347  15.943  1.2755  0.3324  0.0139
  438TIP3    H122805   0.060   2.268  15.904  1.6423  0.2585 -0.1879
  438TIP3    H222806   0.022   2.396  15.975  1.0165  0.1103 -0.2571
  439TIP3   OH222807   4.343   2.767  15.299 -0.3063  0.1212  0.1646
  439TIP3    H122808   4.294   2.685  15.293 -1.8331  0.9400  1.1400
  439TIP3    H222809   4.290   2.823  15.356  1.1456  1.4833  0.2210
  440TIP3   OH222810   3.205   5.679  16.551  0.0758  0.4124 -0.0130
  440TIP3    H122811   3.237   5.611  16.492 -0.6565  1.2993 -1.4543
  440TIP3    H222812   3.217   5.642  16.639  1.1541 -0.9266 -0.7068
  441TIP3   OH222813   4.892   6.291   3.521 -0.1562  0.3023  0.6275
  441TIP3    H122814   4.825   6.359   3.523  1.4198  1.8594  1.6457
  441TIP3    H222815   4.972   6.337   3.496  0.7121 -1.3982  0.2030
  442TIP3   OH222816   0.699   0.462   1.596  0.4464  0.5150  0.1943
  442TIP3    H122817   0.764   0.474   1.665  1.3499 -1.8292 -0.1931
  442TIP3    H222818   0.751   0.452   1.516 -0.4215 -0.1385 -0.3021
  443TIP3   OH222819   2.328   1.717  16.735 -0.5307 -0.0773 -0.4046
  443TIP3    H122820   2.382   1.690  16.661  0.6619 -1.0704  0.7823
  443TIP3    H222821   2.240   1.687  16.714  0.0636 -1.5982 -0.8053
  444TIP3   OH222822   1.271   2.375   0.685  0.4825  0.2197 -0.1624
  444TIP3    H122823   1.223   2.297   0.713  2.3943 -0.8118  0.3441
  444TIP3    H222824   1.210   2.421   0.628 -1.2111 -0.8836  0.6995
  445TIP3   OH222825   2.515   3.038   4.304  1.0878  0.0959  0.0381
  445TIP3    H122826   2.513   3.082   4.219  0.7263 -0.7262 -0.3832
  445TIP3    H222827   2.567   2.959   4.289  1.2129  0.0623  0.6364
  446TIP3   OH222828   5.647   2.830   5.378  0.3434  0.3709  0.1676
  446TIP3    H122829   5.723   2.844   5.435  1.6212  1.9490 -1.8274
  446TIP3    H222830   5.679   2.769   5.312 -0.5920 -0.1353  0.1871
  447TIP3   OH222831   3.686   0.567  12.900  0.0478  0.3351 -0.2914
  447TIP3    H122832   3.628   0.546  12.973  1.3800 -0.6549  0.5168
  447TIP3    H222833   3.743   0.490  12.892  1.5722  1.4769 -0.7127
  448TIP3   OH222834   0.453   0.540   0.240  0.1957  0.0161 -0.1798
  448TIP3    H122835   0.468   0.578   0.327 -0.2968 -0.4752  0.1200
  448TIP3    H222836   0.493   0.454   0.244  0.6665  0.2124 -0.6260
  449TIP3   OH222837   3.412   5.577  16.995  0.2286  0.6444 -0.5838
  449TIP3    H122838   3.478   5.635  17.033  0.0670  0.5920 -0.2262
  449TIP3    H222839   3.460   5.525  16.930  0.3215  1.3620 -1.0962
  450TIP3   OH222840   3.279   2.609  15.931  0.1933 -0.2001  0.1986
  450TIP3    H122841   3.233   2.531  15.899 -0.6436  0.3403  0.0498
  450TIP3    H222842   3.214   2.679  15.926  0.8269  0.4388  0.6642
  451TIP3   OH222843   1.733   3.279   0.833 -0.2594  0.2711  0.3498
  451TIP3    H122844   1.700   3.266   0.744  1.3945  3.1456 -0.7738
  451TIP3    H222845   1.655   3.298   0.885 -1.1450 -0.5194 -0.6556
  452TIP3   OH222846   0.953   3.247   0.093  0.0564 -0.2662  0.4769
  452TIP3    H122847   0.972   3.154   0.101  0.3714 -0.1994  0.5199
  452TIP3    H222848   1.017   3.279   0.029  0.4028  0.0538  0.9781
  453TIP3   OH222849   0.767   6.500   3.615  0.1376 -0.1397 -0.0587
  453TIP3    H122850   0.769   6.595   3.608 -0.0188 -0.1134  0.2256
  453TIP3    H222851   0.718   6.483   3.696 -1.9055 -0.4914 -1.3129
  454TIP3   OH222852   1.324   3.269  13.865  0.3324  0.2660 -0.0150
  454TIP3    H122853   1.390   3.330  13.833  0.4450  0.0691 -0.1597
  454TIP3    H222854   1.244   3.321  13.872 -0.0957 -0.0327 -2.1280
  455TIP3   OH222855   0.484   4.962  12.310  0.3917 -0.0493  0.0343
  455TIP3    H122856   0.451   4.971  12.221  0.5895  0.1396 -0.0217
  455TIP3    H222857   0.432   4.891  12.349 -1.2506  1.3946  0.5070
  456TIP3   OH222858   3.082   3.882   2.835 -0.2891  0.1868 -0.3087
  456TIP3    H122859   3.011   3.864   2.773 -0.1776 -2.6962  0.3444
  456TIP3    H222860   3.093   3.800   2.883  1.9123  1.3384  1.2052
  457TIP3   OH222861   4.059   0.363  11.399  0.2203 -0.4446  0.7501
  457TIP3    H122862   3.999   0.290  11.415 -0.1664 -0.7170 -1.6896
  457TIP3    H222863   4.051   0.379  11.305  2.3633  0.9504  0.7940
  458TIP3   OH222864   0.470   0.000   1.278  0.3895 -0.3205  0.2436
  458TIP3    H122865   0.518  -0.082   1.277  0.2697 -0.3900  0.1405
  458TIP3    H222866   0.378  -0.026   1.279  0.3580 -0.1964  1.6030
  459TIP3   OH222867   0.452   0.830   2.770  0.1051  0.6807  0.3567
  459TIP3    H122868   0.446   0.779   2.689  0.7148 -0.5981  1.0967
  459TIP3    H222869   0.382   0.895   2.764 -1.0752 -0.6481 -0.3244
  460TIP3   OH222870   5.238   6.784   3.388  0.7179  0.2107 -0.3711
  460TIP3    H122871   5.233   6.718   3.318 -0.9747 -0.5481  0.4353
  460TIP3    H222872   5.189   6.859   3.353  0.2649  0.0031 -0.1807
  461TIP3   OH222873   3.444   1.412   5.744 -0.3461 -0.3490 -0.2093
  461TIP3    H122874   3.381   1.358   5.697  1.0174 -2.3904  0.2405
  461TIP3    H222875   3.493   1.351   5.798  0.7685  1.4440  0.8751
  462TIP3   OH222876   0.269   4.648   0.373 -0.1309 -0.0694 -1.0103
  462TIP3    H122877   0.209   4.579   0.401 -1.0224  1.1191  0.0790
  462TIP3    H222878   0.355   4.606   0.371 -0.3451 -0.7220  1.6224
  463TIP3   OH222879   0.121   0.863   1.600 -0.4555  0.1342 -0.1078
  463TIP3    H122880   0.169   0.794   1.646 -1.1230 -0.5765 -0.4442
  463TIP3    H222881   0.188   0.920   1.564  0.1297 -0.7182 -0.3776
  464TIP3   OH222882   5.833   3.501  14.232 -0.2081  0.0883 -0.3197
  464TIP3    H122883   5.837   3.512  14.327  1.9853  1.5932 -0.5578
  464TIP3    H222884   5.779   3.574  14.202  1.6778  1.4502 -0.4863
  465TIP3   OH222885   5.888   2.758   0.942  0.4347 -0.1146 -0.1470
  465TIP3    H122886   5.802   2.797   0.926  0.6894 -0.2237 -1.9737
  465TIP3    H222887   5.870   2.685   1.002 -0.1764  2.1208  2.4567
  466TIP3   OH222888   5.328   4.075   2.674  0.1666 -0.0655  0.1714
  466TIP3    H122889   5.293   4.006   2.618 -2.0168  1.4895 -0.4527
  466TIP3    H222890   5.422   4.059   2.678 -0.2645 -2.8048 -0.2991
  467TIP3   OH222891   2.228   4.063  15.018  0.1857  0.1864  0.0419
  467TIP3    H122892   2.156   4.025  14.967  0.0365 -2.1572  1.9340
  467TIP3    H222893   2.189   4.084  15.103  1.4786 -0.0712  0.7056
  468TIP3   OH222894   5.975   5.376  14.984 -0.6020 -0.4187 -0.7740
  468TIP3    H122895   6.029   5.416  14.915 -2.2411  0.2477 -1.6976
  468TIP3    H222896   6.016   5.291  15.000  1.5133  0.6056 -0.4927
  469TIP3   OH222897   1.810   6.413   4.801 -0.5065 -0.2714 -0.0500
  469TIP3    H122898   1.734   6.377   4.849  0.3240  0.4397  1.8567
  469TIP3    H222899   1.789   6.505   4.788 -0.3920 -0.2943 -0.4008
  470TIP3   OH222900   6.620   3.022  16.829  0.3375  0.7489  0.0224
  470TIP3    H122901   6.533   3.016  16.867  0.0170 -0.7331 -0.8988
  470TIP3    H222902   6.615   2.971  16.748  1.7137  1.6872 -0.6798
  471TIP3   OH222903   3.940   5.011   1.406  0.0161  0.1315 -0.1840
  471TIP3    H122904   3.974   4.934   1.360  1.4579  0.9587 -0.5288
  471TIP3    H222905   3.989   5.013   1.488 -1.5658 -0.5459  0.7872
  472TIP3   OH222906   3.587   6.148   5.322 -0.1544  0.1812  0.2086
  472TIP3    H122907   3.515   6.097   5.286 -1.5288  1.8648  0.4837
  472TIP3    H222908   3.666   6.106   5.289 -1.3211 -0.1144 -2.3074
  473TIP3   OH222909   3.354   3.785   5.687  0.1460 -0.4189  0.5767
  473TIP3    H122910   3.333   3.836   5.609 -0.5327 -2.2420 -0.4721
  473TIP3    H222911   3.331   3.843   5.761  0.6802  1.2702 -0.5587
  474TIP3   OH222912   6.310   0.577   1.991  0.6862  0.2817 -0.8614
  474TIP3    H122913   6.397   0.553   2.022  0.8438  0.2584 -1.3129
  474TIP3    H222914   6.267   0.618   2.066  0.8032 -0.4218 -0.4019
  475TIP3   OH222915   3.330   1.510   4.231 -0.1226  0.1462 -0.2166
  475TIP3    H122916   3.417   1.485   4.200 -0.1964 -0.5839  0.1443
  475TIP3    H222917   3.282   1.532   4.151  0.0115 -0.6917 -0.5351
  476TIP3   OH222918   0.443   3.281   6.362  0.7337  0.2511  0.0574
  476TIP3    H122919   0.529   3.287   6.403  1.1878 -1.0309 -0.6736
  476TIP3    H222920   0.429   3.368   6.324  2.0058  0.2720 -0.3876
  477TIP3   OH222921   2.774   1.219   0.688 -0.4627  0.4414 -0.1278
  477TIP3    H122922   2.863   1.194   0.663 -0.1814  1.5554 -0.2848
  477TIP3    H222923   2.752   1.160   0.759  0.4644  0.2353  0.0001
  478TIP3   OH222924   2.524   2.480   2.872 -0.1908  0.4484 -0.7137
  478TIP3    H122925   2.440   2.462   2.830 -0.2364 -0.3991 -0.2766
  478TIP3    H222926   2.553   2.563   2.833 -1.1420  0.6620 -0.9911
  479TIP3   OH222927   2.057   1.784   0.244  0.2372  0.3429 -0.2104
  479TIP3    H122928   2.027   1.704   0.287 -1.0540  0.9858  0.1068
  479TIP3    H222929   2.110   1.829   0.310  0.1698  0.2232 -0.0748
  480TIP3   OH222930   0.381   5.792   4.699  0.0063  0.0212 -0.7031
  480TIP3    H122931   0.305   5.849   4.712  0.0836 -0.6897  3.7550
  480TIP3    H222932   0.358   5.711   4.746  2.4237 -1.2134 -1.5795
  481TIP3   OH222933   0.548   0.673  17.175 -0.3497 -0.2839  0.0737
  481TIP3    H122934   0.493   0.748  17.153 -1.8601 -1.2038  0.6371
  481TIP3    H222935   0.591   0.697  17.257  1.9246  1.3803 -1.5482
  482TIP3   OH222936   4.652   5.475  16.131 -0.0668  0.5336  0.2768
  482TIP3    H122937   4.711   5.534  16.178  0.0066  1.0589 -0.4653
  482TIP3    H222938   4.702   5.447  16.054 -0.0122 -0.6973  0.7643
  483TIP3   OH222939   4.772   3.786  15.585  0.2495 -0.0409 -0.4218
  483TIP3    H122940   4.825   3.721  15.631 -0.8857 -0.4285  0.3582
  483TIP3    H222941   4.682   3.768  15.613 -0.1309  1.5812 -0.5483
  484TIP3   OH222942   2.197   4.570  14.937  0.4560 -0.5107 -0.4224
  484TIP3    H122943   2.211   4.626  14.860 -2.1477  0.5085 -0.2165
  484TIP3    H222944   2.247   4.491  14.919  0.5998  0.0878 -2.7795
  485TIP3   OH222945   6.403   0.254   2.485 -0.1223  0.1156  0.0636
  485TIP3    H122946   6.425   0.251   2.578  0.5982  0.6579 -0.0842
  485TIP3    H222947   6.412   0.164   2.455  0.3304  0.0579  0.3714
  486TIP3   OH222948   6.053   3.700  11.383  0.2250 -0.6770  0.0278
  486TIP3    H122949   6.076   3.607  11.378  0.1705 -0.6494 -1.0161
  486TIP3    H222950   6.043   3.727  11.291 -2.0425 -0.2029  0.3827
  487TIP3   OH222951   3.559   4.269  14.728  0.3950 -0.5438  0.0072
  487TIP3    H122952   3.636   4.211  14.727 -0.4944 -1.7641  1.2200
  487TIP3    H222953   3.502   4.235  14.659 -0.2054 -1.2234  0.8356
  488TIP3   OH222954   6.246   1.849   4.554 -0.2218  0.3169 -0.2089
  488TIP3    H122955   6.254   1.758   4.524  1.2986  0.2186  0.4779
  488TIP3    H222956   6.314   1.859   4.620  1.4433  2.7534 -2.2225
  489TIP3   OH222957   0.959   2.888  13.280  0.1469 -0.2394 -0.1740
  489TIP3    H122958   1.019   2.918  13.348 -0.8947  1.1041  0.1718
  489TIP3    H222959   0.961   2.792  13.286  1.1733 -0.1636  0.7633
  490TIP3   OH222960   4.330   3.115  15.390 -0.1322 -0.4334  0.8175
  490TIP3    H122961   4.391   3.053  15.429 -2.0941 -2.1195  1.3313
  490TIP3    H222962   4.261   3.124  15.456 -0.8897  0.7185 -0.1215
  491TIP3   OH222963   5.098   5.234   1.586 -0.3472 -0.3730  0.0593
  491TIP3    H122964   5.043   5.228   1.507  0.6609  1.8283 -0.8572
  491TIP3    H222965   5.075   5.319   1.624  2.6074  0.7170 -0.5084
  492TIP3   OH222966   0.279   0.505   6.449  0.1762 -0.0667  0.3613
  492TIP3    H122967   0.241   0.576   6.397  0.3589  0.2420  0.6499
  492TIP3    H222968   0.339   0.461   6.388  0.8547  0.6777  0.4820
  493TIP3   OH222969   3.489   4.223   3.272  0.2891 -0.0333 -0.0752
  493TIP3    H122970   3.423   4.250   3.209  1.0751  0.4114 -0.7202
  493TIP3    H222971   3.453   4.247   3.357 -0.1938  0.5977 -0.4537
  494TIP3   OH222972   0.995   2.270  14.293  0.0457 -0.4139  0.1607
  494TIP3    H122973   0.945   2.211  14.238  0.8493 -2.8198  1.9375
  494TIP3    H222974   0.938   2.287  14.368 -0.1484  1.0190 -0.3011
  495TIP3   OH222975   2.782   4.125   0.440 -0.5196 -0.3337 -0.0537
  495TIP3    H122976   2.703   4.093   0.484 -0.3172 -0.4610  0.2171
  495TIP3    H222977   2.815   4.194   0.498  1.5785 -2.6979  1.6966
  496TIP3   OH222978   1.105   5.043  14.678  0.5899 -0.2660  0.2648
  496TIP3    H122979   1.116   4.995  14.761  1.4346 -0.6547 -0.0691
  496TIP3    H222980   1.126   4.979  14.611 -0.3401 -0.0199 -0.2709
  497TIP3   OH222981   4.741   6.606   3.889  0.0359 -0.3800 -0.0242
  497TIP3    H122982   4.720   6.643   3.975 -0.7394 -1.5025  0.2888
  497TIP3    H222983   4.684   6.654   3.828 -0.9192 -0.9992  0.3679
  498TIP3   OH222984   2.788   2.105  15.917  0.4154 -0.0725  0.0559
  498TIP3    H122985   2.785   2.018  15.879 -0.8693 -0.7868  1.7276
  498TIP3    H222986   2.792   2.164  15.842  0.7235 -1.5389 -1.0997
  499TIP3   OH222987   1.123   1.517  14.614  0.6918 -0.2347 -0.7276
  499TIP3    H122988   1.185   1.508  14.542  0.7750 -0.9084 -0.5737
  499TIP3    H222989   1.054   1.574  14.579  1.1154  0.0588 -1.0863
  500TIP3   OH222990   1.511   2.921  11.150  0.4693  0.1100 -0.0353
  500TIP3    H122991   1.447   2.932  11.219  0.0538  0.9433 -0.5463
  500TIP3    H222992   1.586   2.879  11.193  0.5315  1.3344  1.0939
  501TIP3   OH222993   3.224   2.311  12.486  0.6190  0.3590 -0.1467
  501TIP3    H122994   3.303   2.365  12.480  0.5275  0.4710 -0.3333
  501TIP3    H222995   3.191   2.306  12.396  0.5143  0.1627 -0.0990
  502TIP3   OH222996   2.297   5.588   5.164 -0.3511 -0.2717  0.1319
  502TIP3    H122997   2.353   5.583   5.086 -0.1524 -0.1925  0.2686
  502TIP3    H222998   2.315   5.675   5.200 -0.4616 -0.2989  0.2520
  503TIP3   OH222999   0.695   0.351   0.272 -0.1416 -0.0582  0.3888
  503TIP3    H123000   0.782   0.352   0.232  0.3874  1.1583  1.5270
  503TIP3    H223001   0.667   0.260   0.267  1.7288 -0.6944  1.1138
  504TIP3   OH223002   0.877   6.238  11.334 -0.5575 -0.0795 -0.2979
  504TIP3    H123003   0.877   6.243  11.238  1.8214  0.8592 -0.2893
  504TIP3    H223004   0.925   6.158  11.354 -1.2068 -0.3699  0.1340
  505TIP3   OH223005   2.535   4.391  15.808  0.2328 -0.4130 -0.0077
  505TIP3    H123006   2.451   4.347  15.814  0.5634 -0.8671  1.2707
  505TIP3    H223007   2.549   4.402  15.714  0.0092 -2.7416 -0.3261
  506TIP3   OH223008   0.340   5.387   1.859  0.2584 -0.1517  0.1342
  506TIP3    H123009   0.254   5.427   1.845  1.3375  2.1485 -0.2197
  506TIP3    H223010   0.345   5.317   1.794 -0.5408  1.0342 -1.2458
  507TIP3   OH223011   1.747   6.271   3.370  0.0188  0.0995  0.5335
  507TIP3    H123012   1.831   6.302   3.403  0.1541  0.2118  0.0782
  507TIP3    H223013   1.760   6.177   3.357 -0.3685 -0.1476  1.8390
  508TIP3   OH223014   2.778   2.081   2.607  0.3360  0.1368  0.3865
  508TIP3    H123015   2.715   2.087   2.535 -1.5254  4.6964  2.2328
  508TIP3    H223016   2.731   2.035   2.676  1.6620 -2.9921 -0.6691
  509TIP3   OH223017   0.478   6.395   3.424  0.2071 -0.4869 -0.5439
  509TIP3    H123018   0.484   6.338   3.501 -1.4837 -0.9900 -0.7630
  509TIP3    H223019   0.556   6.375   3.373  0.3006 -1.6314  0.0349
  510TIP3   OH223020   4.124   0.169  13.303  0.3805 -0.0156 -0.2065
  510TIP3    H123021   4.110   0.119  13.222 -0.3490 -1.1964  0.6315
  510TIP3    H223022   4.216   0.194  13.301  1.4224 -3.5646  0.5457
  511TIP3   OH223023   1.378   5.845  14.289  0.1960 -0.4216 -0.3165
  511TIP3    H123024   1.442   5.913  14.269  0.3760 -0.5413 -0.1471
  511TIP3    H223025   1.293   5.889  14.281  0.2326 -0.5930 -1.8660
  512TIP3   OH223026   6.370   6.499   3.157 -0.4379  0.1288 -0.4779
  512TIP3    H123027   6.291   6.452   3.131 -0.1759 -0.7818  0.3146
  512TIP3    H223028   6.338   6.571   3.212 -1.0338  2.3978 -3.6637
  513TIP3   OH223029   5.204   1.648   3.507 -0.0325  0.0409 -0.6857
  513TIP3    H123030   5.296   1.621   3.515  0.0215  0.6120  0.9958
  513TIP3    H223031   5.155   1.572   3.538 -0.1429 -0.3496 -1.8091
  514TIP3   OH223032   3.382   2.406  16.637  0.3330  0.5523 -0.1100
  514TIP3    H123033   3.456   2.364  16.595  0.7092 -0.4972  1.5436
  514TIP3    H223034   3.305   2.364  16.598  0.6683 -0.2164  0.0512
  515TIP3   OH223035   3.643   6.674   2.757 -0.2897  0.4171  0.2753
  515TIP3    H123036   3.573   6.697   2.819 -0.5773 -0.9017  0.4604
  515TIP3    H223037   3.606   6.693   2.671 -0.2070  1.4349  0.4541
  516TIP3   OH223038   5.319   3.992  16.713 -0.2573  0.3199  0.5329
  516TIP3    H123039   5.346   4.073  16.756  0.5841  0.2523  0.1155
  516TIP3    H223040   5.386   3.975  16.647 -0.0701 -1.0709  1.0623
  517TIP3   OH223041   6.648   2.462   3.035  0.0936 -0.0197  0.1341
  517TIP3    H123042   6.680   2.397   2.973 -0.0894 -0.6442  0.6807
  517TIP3    H223043   6.654   2.419   3.120  0.8655  1.0228  0.6246
  518TIP3   OH223044   2.441   5.330  16.621  0.3701  0.2760  0.0756
  518TIP3    H123045   2.503   5.273  16.665 -1.5867 -1.5960  0.5233
  518TIP3    H223046   2.402   5.382  16.691 -0.5208 -0.5121  0.1794
  519TIP3   OH223047   1.015   2.263  13.087  0.4984 -0.1484 -0.1076
  519TIP3    H123048   0.944   2.284  13.147  0.6310  0.0378 -0.0155
  519TIP3    H223049   0.976   2.271  13.000  0.6173  0.7485 -0.0837
  520TIP3   OH223050   3.720   5.345   1.687 -0.0106  0.4081 -0.1453
  520TIP3    H123051   3.694   5.431   1.654 -0.0487  0.3539 -0.2553
  520TIP3    H223052   3.672   5.283   1.633 -1.3016  0.3398  1.0371
  521TIP3   OH223053   6.727   2.869  12.722 -0.2669  0.7264 -0.1243
  521TIP3    H123054   6.763   2.814  12.792  0.0523  0.2283 -0.6803
  521TIP3    H223055   6.644   2.902  12.758  1.3141  2.9402  1.6853
  522TIP3   OH223056   1.639   5.790   3.781  0.3338  0.0115  0.3672
  522TIP3    H123057   1.713   5.780   3.841  0.1378  1.3070  0.8191
  522TIP3    H223058   1.584   5.713   3.798  1.5706 -0.9609  0.0202
  523TIP3   OH223059   2.996   3.066   0.649  0.0027 -0.0546  0.0774
  523TIP3    H123060   3.013   2.975   0.672  1.6465  0.2955  0.3657
  523TIP3    H223061   3.017   3.072   0.556  2.3301  0.5589  0.6119
  524TIP3   OH223062   0.646   3.148   1.470 -0.0181 -0.1220 -0.1356
  524TIP3    H123063   0.572   3.203   1.445 -0.8779 -0.8236  0.8172
  524TIP3    H223064   0.625   3.061   1.435  0.4041 -0.3071  0.0625
  525TIP3   OH223065   6.314   4.463  14.688  0.0177 -0.3501 -0.3635
  525TIP3    H123066   6.347   4.545  14.651  1.7712 -1.3429 -1.0520
  525TIP3    H223067   6.220   4.479  14.701 -0.1953  0.8407 -3.0368
  526TIP3   OH223068   1.957   6.675   4.952 -0.0439 -0.1860  0.2229
  526TIP3    H123069   1.955   6.694   5.046  1.3018 -2.9376  0.8478
  526TIP3    H223070   1.993   6.587   4.946  0.8330  0.3363 -2.9623
  527TIP3   OH223071   4.012   0.206  16.272  0.2259 -0.1449  0.0788
  527TIP3    H123072   3.927   0.249  16.271 -0.0376 -0.6876 -0.3566
  527TIP3    H223073   4.015   0.154  16.192  1.1803  0.2846 -0.1748
  528TIP3   OH223074   1.794   5.048   0.576  0.3491 -0.1100 -0.5221
  528TIP3    H123075   1.804   4.963   0.533 -0.1123 -0.4733  0.0890
  528TIP3    H223076   1.850   5.042   0.654 -0.5553 -0.2631  0.1198
  529TIP3   OH223077   5.392   2.957  16.528  0.0878 -0.3176 -0.0488
  529TIP3    H123078   5.300   2.962  16.555  0.1135 -2.1050  0.4164
  529TIP3    H223079   5.388   2.956  16.433 -0.4787 -2.0124 -0.0165
  530TIP3   OH223080   6.716   2.408   4.387 -0.8905  0.2181  0.0509
  530TIP3    H123081   6.766   2.389   4.467  0.9799 -0.5856 -1.2767
  530TIP3    H223082   6.774   2.383   4.316 -2.7960  0.2944 -1.5756
  531TIP3   OH223083   5.778   6.729   3.026  0.4178  0.5775 -0.0155
  531TIP3    H123084   5.750   6.797   3.087  0.1394  0.3734  0.0871
  531TIP3    H223085   5.868   6.708   3.053  0.1401  0.1807  0.6005
  532TIP3   OH223086   2.408   5.249  11.693 -0.3252  0.0987  0.0919
  532TIP3    H123087   2.322   5.208  11.681 -0.2506  0.0503 -0.2812
  532TIP3    H223088   2.447   5.249  11.606  0.3619 -0.5578  0.4010
  533TIP3   OH223089   2.523   0.014  14.564 -0.7976  0.3724 -0.1738
  533TIP3    H123090   2.488   0.056  14.485 -1.4275  1.0420  0.4523
  533TIP3    H223091   2.491   0.068  14.636  0.7482  0.4413  0.4812
  534TIP3   OH223092   4.314   2.583  12.433  0.1769 -0.0142  0.1422
  534TIP3    H123093   4.344   2.673  12.439 -3.4167  1.6608 -3.8958
  534TIP3    H223094   4.391   2.533  12.407  1.0463  2.8987 -3.1680
  535TIP3   OH223095   4.683   4.777   3.142  0.4938  1.0159 -0.7129
  535TIP3    H123096   4.608   4.830   3.114 -0.1261  0.8845  0.6615
  535TIP3    H223097   4.712   4.819   3.223 -0.5755 -1.2778  0.9102
  536TIP3   OH223098   6.292   6.548  15.903 -0.2019 -0.0170  0.2782
  536TIP3    H123099   6.355   6.535  15.833 -1.8759  0.2663 -1.3101
  536TIP3    H223100   6.316   6.633  15.941 -0.2874  0.6056 -1.0326
  537TIP3   OH223101   0.439   5.115   3.253  0.3546  0.6833 -0.3580
  537TIP3    H123102   0.513   5.123   3.312  0.4274  1.5660 -0.5643
  537TIP3    H223103   0.385   5.192   3.271  0.3326  0.9184 -1.3793
  538TIP3   OH223104   4.984   4.276  12.431 -0.1850  0.6400  0.5987
  538TIP3    H123105   4.971   4.228  12.350 -1.9461  0.2963  1.0482
  538TIP3    H223106   4.904   4.328  12.440  0.5647  1.6639  1.4468
  539TIP3   OH223107   1.950   2.289   4.622 -0.3355 -0.7518  0.3434
  539TIP3    H123108   1.961   2.251   4.534 -0.5361  1.0709 -0.4830
  539TIP3    H223109   2.033   2.271   4.666 -0.1316 -1.4510 -0.2988
  540TIP3   OH223110   3.776   1.824   0.992  0.5131 -0.2347  0.0781
  540TIP3    H123111   3.836   1.781   1.053  0.9927  0.2854 -0.0239
  540TIP3    H223112   3.694   1.776   1.001  0.7472 -0.5134  0.7193
  541TIP3   OH223113   5.492   1.386   4.341  0.0596  0.3781  0.1766
  541TIP3    H123114   5.531   1.436   4.270 -0.6668 -0.2115 -0.6407
  541TIP3    H223115   5.523   1.296   4.326  1.4183  0.5716  1.6675
  542TIP3   OH223116   2.847   4.574  12.966 -0.4210 -0.1560  0.2404
  542TIP3    H123117   2.855   4.519  13.043 -1.5761 -0.7662 -0.0670
  542TIP3    H223118   2.858   4.664  12.999 -0.2161 -0.4566  0.9948
  543TIP3   OH223119   1.028   6.467   5.613 -0.3139  0.6528  0.2432
  543TIP3    H123120   1.032   6.426   5.527 -1.0575  1.7078 -0.3142
  543TIP3    H223121   0.943   6.511   5.614  0.1959  1.6496  1.0559
  544TIP3   OH223122   0.973   4.174  16.859  0.4726 -0.6416  0.5203
  544TIP3    H123123   0.945   4.084  16.842 -1.3397  0.2732 -1.6288
  544TIP3    H223124   1.057   4.164  16.903 -0.0203 -3.3948  0.9802
  545TIP3   OH223125   4.900   1.433   5.048 -0.3654  0.3229  0.4455
  545TIP3    H123126   4.899   1.462   5.139 -0.5039  1.3382  0.1299
  545TIP3    H223127   4.915   1.513   4.998  0.3854 -0.3334 -0.3854
  546TIP3   OH223128   2.443   1.712   0.986 -0.3725 -0.5916  0.1624
  546TIP3    H123129   2.421   1.656   0.912  0.5013 -0.5019 -0.1711
  546TIP3    H223130   2.373   1.778   0.988  0.3952  0.2990 -1.5096
  547TIP3   OH223131   4.730   4.268  13.204 -0.3156  0.2021  0.2682
  547TIP3    H123132   4.785   4.284  13.127 -0.8119  1.2973  0.1366
  547TIP3    H223133   4.753   4.180  13.232  0.9435  0.3596 -0.2538
  548TIP3   OH223134   5.071   1.256  13.374 -0.1084  0.3977  1.4442
  548TIP3    H123135   5.051   1.269  13.281 -0.5533 -0.1405  1.4638
  548TIP3    H223136   5.136   1.186  13.374 -0.4650  0.0657  1.5674
  549TIP3   OH223137   2.126   1.925  16.527 -0.6778 -0.1974  0.0110
  549TIP3    H123138   2.108   1.849  16.582  0.1888 -1.3875 -1.2962
  549TIP3    H223139   2.137   1.889  16.439  2.4753  1.0753 -0.1931
  550TIP3   OH223140   6.059   4.173   0.766  0.0019  0.2705  0.0994
  550TIP3    H123141   6.099   4.126   0.692 -0.7222 -1.1321  0.5891
  550TIP3    H223142   6.077   4.118   0.842 -1.1907  0.5985  0.6214
  551TIP3   OH223143   5.128   6.319   3.731 -0.2706  0.9437 -0.1933
  551TIP3    H123144   5.149   6.287   3.819  0.3624 -0.9685 -1.0145
  551TIP3    H223145   5.048   6.370   3.743 -1.5036 -1.1946  1.1589
  552TIP3   OH223146   2.980   4.094   3.372 -0.0857 -0.5973 -0.1586
  552TIP3    H123147   3.050   4.087   3.437  0.4853  0.7104 -0.6079
  552TIP3    H223148   3.020   4.062   3.291 -0.1252 -0.1877 -0.3374
  553TIP3   OH223149   2.889   2.047  14.513 -0.8003  0.2880 -0.2816
  553TIP3    H123150   2.839   2.129  14.517 -1.0992  0.0675  0.4839
  553TIP3    H223151   2.978   2.072  14.536 -1.0353  0.2741  0.6367
  554TIP3   OH223152   6.723   0.034  16.392 -0.0320 -0.0409  0.1832
  554TIP3    H123153   6.648   0.093  16.401  0.3568  0.1587  2.2911
  554TIP3    H223154   6.698  -0.044  16.442  0.7336 -0.4026  0.0102
  555TIP3   OH223155   6.368   2.964  16.475  0.1550 -0.0871 -0.5057
  555TIP3    H123156   6.462   2.959  16.488  0.1093  0.9853  0.2679
  555TIP3    H223157   6.330   2.924  16.553 -0.0442  1.4954  0.2361
  556TIP3   OH223158   6.453   1.821   4.161  0.0348  0.0436  0.0833
  556TIP3    H123159   6.524   1.768   4.126  1.1752  1.0353  0.8887
  556TIP3    H223160   6.480   1.841   4.251 -1.9436 -0.8395  0.9190
  557TIP3   OH223161   3.061   0.488  14.897  0.2407  0.1687  0.1216
  557TIP3    H123162   3.121   0.538  14.953 -1.0832  0.2833  1.4439
  557TIP3    H223163   2.974   0.519  14.920 -0.3292  0.2469 -2.0452
  558TIP3   OH223164   1.152   5.923   4.166 -0.1240 -0.4752  0.2507
  558TIP3    H123165   1.126   6.014   4.154  1.8198  0.3523  2.0653
  558TIP3    H223166   1.237   5.916   4.121  0.1201 -1.1644  0.8091
  559TIP3   OH223167   3.712   2.501   4.809 -0.4632  0.0901  0.2799
  559TIP3    H123168   3.631   2.550   4.820 -1.7727 -2.0707  0.4712
  559TIP3    H223169   3.722   2.491   4.714 -1.2275 -0.9347  0.3016
  560TIP3   OH223170   5.692   0.569   2.677  0.2893  0.3201 -0.4112
  560TIP3    H123171   5.714   0.636   2.741 -0.1814  0.1420 -0.0563
  560TIP3    H223172   5.766   0.567   2.617 -0.3247  2.1690 -1.2755
  561TIP3   OH223173   1.076   4.496   2.109  0.6237  0.2438  0.0970
  561TIP3    H123174   1.149   4.556   2.115  0.8598  0.0463 -0.7151
  561TIP3    H223175   1.053   4.476   2.200  0.0484  2.1409  0.3783
  562TIP3   OH223176   4.900   0.503   1.657  0.2522 -0.0660 -0.5601
  562TIP3    H123177   4.979   0.473   1.610 -0.3373  0.8387 -2.1708
  562TIP3    H223178   4.843   0.426   1.659  0.7837 -0.4559 -0.2355
  563TIP3   OH223179   5.978   4.792  11.625 -0.0627  0.0390  0.0645
  563TIP3    H123180   6.005   4.730  11.557  0.7666  1.4073 -0.8785
  563TIP3    H223181   6.006   4.877  11.593  0.0675  0.7577  1.9866
  564TIP3   OH223182   5.913   1.542   0.577  0.3293 -0.0045  0.0574
  564TIP3    H123183   5.963   1.548   0.658  1.4893  0.4935 -0.6734
  564TIP3    H223184   5.851   1.615   0.581  0.9385  0.5169  0.1391
  565TIP3   OH223185   0.177   1.135   3.613  0.0955 -0.0371 -0.6702
  565TIP3    H123186   0.129   1.217   3.603 -1.1661 -0.4365  1.5887
  565TIP3    H223187   0.268   1.162   3.625 -0.4195  1.0979  0.8466
  566TIP3   OH223188   2.744   1.995   6.502 -0.4419  0.4439 -0.4553
  566TIP3    H123189   2.792   1.912   6.513  2.1608  1.6292 -2.3008
  566TIP3    H223190   2.796   2.059   6.550 -0.0442  1.7881 -2.5877
  567TIP3   OH223191   1.407   6.340   3.340  0.6768  0.3909  0.1140
  567TIP3    H123192   1.480   6.344   3.278  1.3972 -1.3654  0.8157
  567TIP3    H223193   1.342   6.401   3.304  2.0859  1.2500 -1.0333
  568TIP3   OH223194   3.191   2.423  14.024 -0.7849 -0.6506  0.0336
  568TIP3    H123195   3.197   2.415  14.119 -0.3635 -0.6648  0.0108
  568TIP3    H223196   3.262   2.484  14.001  0.4158 -2.1943 -0.4727
  569TIP3   OH223197   1.517   1.318  12.063 -0.3810  0.5640 -0.4018
  569TIP3    H123198   1.587   1.254  12.075 -0.2716  0.8725  0.6655
  569TIP3    H223199   1.454   1.299  12.133  0.2196  2.3419  0.6687
  570TIP3   OH223200   1.562   2.377  12.560 -0.6146 -0.0087  0.4012
  570TIP3    H123201   1.570   2.451  12.500  1.0627 -0.3581  0.1845
  570TIP3    H223202   1.473   2.344  12.545 -1.1411  1.5221  0.0074
  571TIP3   OH223203   5.818   2.896  14.254  0.0832  0.1180 -0.5111
  571TIP3    H123204   5.788   2.986  14.243 -0.0367 -0.1024 -2.0814
  571TIP3    H223205   5.854   2.872  14.168  0.0078 -1.3652 -0.1412
  572TIP3   OH223206   1.438   1.712  11.720 -0.5976 -0.1708 -0.4139
  572TIP3    H123207   1.490   1.632  11.716  0.0790  0.2188  0.5774
  572TIP3    H223208   1.348   1.681  11.730 -0.1839 -0.8007  1.5676
  573TIP3   OH223209   4.451   2.585   6.374  0.6896 -0.4299 -0.4544
  573TIP3    H123210   4.467   2.674   6.341  0.8229 -0.1696  0.2974
  573TIP3    H223211   4.383   2.550   6.318  0.1566  0.3997 -0.3262
  574TIP3   OH223212   6.541   6.438   6.590  0.5875  0.0233 -0.4390
  574TIP3    H123213   6.584   6.353   6.594 -0.2614 -0.3168  1.7123
  574TIP3    H223214   6.458   6.426   6.636 -0.1642  1.6497 -1.3091
  575TIP3   OH223215   5.786   4.777  12.429 -0.1453 -1.1664  0.0278
  575TIP3    H123216   5.769   4.733  12.513 -1.6662 -2.7144 -1.0671
  575TIP3    H223217   5.708   4.830  12.414  0.1989 -0.7651 -0.3521
  576TIP3   OH223218   0.121   5.340   5.387  0.7304 -0.2280 -0.2442
  576TIP3    H123219   0.130   5.354   5.481 -1.2741 -2.0440  0.2627
  576TIP3    H223220   0.060   5.408   5.358  1.9294  0.8025 -0.3915
  577TIP3   OH223221   2.608   3.799  14.821  0.0221  0.0744  0.0487
  577TIP3    H123222   2.540   3.821  14.885 -0.6633  0.3168 -0.7627
  577TIP3    H223223   2.569   3.819  14.736  1.5133  1.2957 -0.3686
  578TIP3   OH223224   6.567   1.803  13.898  0.0386 -0.4627 -0.3889
  578TIP3    H123225   6.627   1.871  13.867  0.4021 -0.7946 -0.4124
  578TIP3    H223226   6.535   1.836  13.982  1.5356 -1.0452  0.4314
  579TIP3   OH223227   2.515   0.224   4.228  0.3576 -0.4373  0.2764
  579TIP3    H123228   2.608   0.233   4.249 -0.2860  0.4964  2.8179
  579TIP3    H223229   2.505   0.268   4.144  2.3875 -1.4013 -0.4990
  580TIP3   OH223230   5.705   3.321   2.021  0.0994 -0.4525 -0.1307
  580TIP3    H123231   5.622   3.273   2.015 -0.5017  0.4108  0.9901
  580TIP3    H223232   5.745   3.311   1.935 -0.7887 -1.5688 -0.4291
  581TIP3   OH223233   2.198   1.549   0.015  0.1796  0.1756 -0.1711
  581TIP3    H123234   2.200   1.644   0.009 -0.5581  0.1509 -0.8189
  581TIP3    H223235   2.286   1.521  -0.011  0.7637  0.7388  1.1749
  582TIP3   OH223236   0.154   0.167  14.849  0.0900  0.9796 -0.2381
  582TIP3    H123237   0.244   0.198  14.840  0.7152 -0.4987  0.6367
  582TIP3    H223238   0.127   0.196  14.936  0.0536  0.6216 -0.1291
  583TIP3   OH223239   3.967   5.317   3.827  0.3280  0.2518 -0.1053
  583TIP3    H123240   3.880   5.288   3.799 -0.2971  1.3572  0.6670
  583TIP3    H223241   4.000   5.245   3.881 -0.5342  0.2735  0.4561
  584TIP3   OH223242   4.223   3.846   0.309 -0.1614  0.2118 -0.5244
  584TIP3    H123243   4.151   3.807   0.359 -0.1437  0.5615 -0.2215
  584TIP3    H223244   4.302   3.810   0.348 -0.1392  0.6923 -0.1227
  585TIP3   OH223245   2.145   5.321   1.112 -0.4934  0.3999 -0.0713
  585TIP3    H123246   2.142   5.321   1.208 -1.0968 -0.1323 -0.0886
  585TIP3    H223247   2.074   5.262   1.086 -0.2967  0.5052 -0.8443
  586TIP3   OH223248   4.147   0.498   4.165 -0.1072  0.1082  0.2803
  586TIP3    H123249   4.234   0.533   4.146 -0.0157 -0.1845  0.1502
  586TIP3    H223250   4.125   0.445   4.088  0.0155 -0.6151  0.7385
  587TIP3   OH223251   3.794   5.965   4.614 -0.1529 -0.1426  0.3694
  587TIP3    H123252   3.865   5.955   4.677 -0.6755 -1.1531  0.8038
  587TIP3    H223253   3.769   5.875   4.591  1.5751  0.1399 -3.0381
  588TIP3   OH223254   1.453   6.112  12.657 -0.3422 -0.4897 -0.0827
  588TIP3    H123255   1.477   6.061  12.580 -0.4789 -1.1046  0.2754
  588TIP3    H223256   1.524   6.175  12.668 -0.3769 -0.3314 -0.7699
  589TIP3   OH223257   1.121   5.119  13.084  0.3636 -0.0288  0.1039
  589TIP3    H123258   1.046   5.109  13.143 -0.8259 -1.4802 -1.6236
  589TIP3    H223259   1.151   5.209  13.100 -2.5284  1.0282 -0.0715
  590TIP3   OH223260   4.520   5.361   2.812 -0.4249 -0.7504 -0.1250
  590TIP3    H123261   4.578   5.308   2.757 -0.0745 -1.5656  1.0129
  590TIP3    H223262   4.544   5.451   2.794  1.9222 -1.1068  1.1276
  591TIP3   OH223263   6.365   6.674   1.742  0.6952  0.2248 -0.5631
  591TIP3    H123264   6.341   6.763   1.769 -0.4414 -0.4639  0.8005
  591TIP3    H223265   6.301   6.652   1.675 -1.4031 -0.8909  1.7052
  592TIP3   OH223266   5.193   0.196  12.078  0.3991 -0.1384 -0.0255
  592TIP3    H123267   5.285   0.175  12.094  0.0404 -2.4709 -0.8251
  592TIP3    H223268   5.167   0.248  12.154  1.8243 -1.1937  1.2338
  593TIP3   OH223269   5.418   2.016  11.986  0.0335  0.0320 -0.1054
  593TIP3    H123270   5.386   1.967  12.061  1.6133 -0.0047  0.5598
  593TIP3    H223271   5.397   2.107  12.005 -1.5081 -0.1990 -0.6291
  594TIP3   OH223272   4.062   1.474  15.125  0.5133 -0.2265 -0.6312
  594TIP3    H123273   4.078   1.445  15.035 -0.4357 -2.9770  0.0182
  594TIP3    H223274   3.992   1.539  15.118  1.7367  0.9648 -2.0422
  595TIP3   OH223275   6.526   1.561  14.037 -0.0433  0.0929 -0.0477
  595TIP3    H123276   6.451   1.514  14.000 -0.2320  0.2706  0.1087
  595TIP3    H223277   6.532   1.641  13.984  0.4813 -0.2601 -0.5307
  596TIP3   OH223278   0.627   0.399   5.641 -0.0108  0.0329 -0.0013
  596TIP3    H123279   0.564   0.382   5.571 -1.7377 -0.6932  1.6971
  596TIP3    H223280   0.597   0.346   5.715  2.6008 -0.3366  0.8582
  597TIP3   OH223281   3.526   6.188   0.663  0.3661  0.5364 -0.7812
  597TIP3    H123282   3.621   6.178   0.675  0.3453  0.7838 -0.4199
  597TIP3    H223283   3.512   6.282   0.657  0.0136  0.5434  0.1838
  598TIP3   OH223284   4.156   0.875  12.594 -0.2211 -0.1250 -0.0423
  598TIP3    H123285   4.096   0.902  12.524 -0.5601 -0.9821 -0.0881
  598TIP3    H223286   4.225   0.827  12.549  0.6763  1.1111 -0.0249
  599TIP3   OH223287   2.369   3.618   4.224 -0.1788  0.1244 -0.6687
  599TIP3    H123288   2.345   3.710   4.224  1.7154  0.6427 -0.6024
  599TIP3    H223289   2.361   3.591   4.316  1.3241  0.7950 -0.3312
  600TIP3   OH223290   1.250   6.677  16.284 -0.9353 -0.2347  0.9985
  600TIP3    H123291   1.270   6.763  16.248 -2.4030  0.2780  1.3737
  600TIP3    H223292   1.317   6.662  16.351  1.9589 -1.3040 -2.0095
  601TIP3   OH223293   6.053   5.878  15.916 -1.0010 -0.3090  0.3949
  601TIP3    H123294   6.129   5.937  15.917 -1.4442  0.3186 -1.0662
  601TIP3    H223295   6.091   5.790  15.923 -0.1620  0.0053 -0.0867
  602TIP3   OH223296   1.098   0.248  11.848  0.1819 -0.0865 -0.1814
  602TIP3    H123297   1.050   0.281  11.924 -2.1581  0.9124 -2.0087
  602TIP3    H223298   1.059   0.162  11.830  0.2437 -0.0217 -0.6334
  603TIP3   OH223299   4.509   3.503   5.121  0.1861  0.4847  0.1936
  603TIP3    H123300   4.458   3.448   5.181 -0.7113 -1.7080 -2.4585
  603TIP3    H223301   4.480   3.592   5.139 -0.9709 -0.2590  2.1353
  604TIP3   OH223302   1.328   4.707   3.942  0.4560 -0.6847 -0.5821
  604TIP3    H123303   1.302   4.799   3.946  0.2673 -0.7350 -0.6743
  604TIP3    H223304   1.356   4.694   3.852  0.0086 -0.8481 -0.6996
  605TIP3   OH223305   5.016   4.495  16.688 -0.3821 -0.1579 -0.3632
  605TIP3    H123306   4.940   4.500  16.630 -0.0461  1.0858 -0.7113
  605TIP3    H223307   5.065   4.418  16.658 -1.2491 -0.6883 -0.4328
  606TIP3   OH223308   1.810   0.826  14.260  0.1848  0.6519  0.1912
  606TIP3    H123309   1.854   0.767  14.200  0.5358  0.7143  0.3853
  606TIP3    H223310   1.873   0.840  14.331  0.1711  1.3838  0.0653
  607TIP3   OH223311   5.426   3.194  14.765 -0.0372  0.1435  0.0976
  607TIP3    H123312   5.344   3.165  14.724  0.5924 -3.1888  1.1281
  607TIP3    H223313   5.486   3.122  14.754  1.6248  1.0564  2.7007
  608TIP3   OH223314   1.825   4.357   5.289  0.5666  0.2803 -0.1998
  608TIP3    H123315   1.747   4.307   5.314  1.2472 -1.4357 -1.4691
  608TIP3    H223316   1.898   4.306   5.323  1.2040  1.2827 -0.0477
  609TIP3   OH223317   3.136   1.677   0.893 -0.1228  0.5358  0.1337
  609TIP3    H123318   3.147   1.734   0.817 -0.6682  1.2675  0.5961
  609TIP3    H223319   3.063   1.620   0.870 -0.3052  0.7753  0.1180
  610TIP3   OH223320   3.388   6.118  12.372 -0.5012  0.8363 -0.2947
  610TIP3    H123321   3.416   6.117  12.281  1.4483  0.5176  0.2939
  610TIP3    H223322   3.374   6.026  12.394  1.3303  0.7024  0.3989
  611TIP3   OH223323   6.734   2.111  15.204  0.1706 -0.4695  0.0542
  611TIP3    H123324   6.697   2.197  15.224 -1.6160 -1.0449 -0.6989
  611TIP3    H223325   6.735   2.107  15.108  0.8224 -1.0615  0.0774
  612TIP3   OH223326   2.010   5.516  11.472 -0.0289 -0.4565  0.1312
  612TIP3    H123327   1.946   5.480  11.410 -0.0054  1.7483 -1.2311
  612TIP3    H223328   2.008   5.610  11.456  1.0562 -0.0009  2.4959
  613TIP3   OH223329   2.286   0.793   6.074  0.2225 -0.2332 -0.4129
  613TIP3    H123330   2.257   0.883   6.089 -1.8093 -1.0629  0.9748
  613TIP3    H223331   2.379   0.793   6.096 -0.2110  1.0974  1.5388
  614TIP3   OH223332   4.140   4.504   4.609 -0.1006  0.3656  0.1365
  614TIP3    H123333   4.154   4.501   4.514  1.1038  0.6747  0.2881
  614TIP3    H223334   4.137   4.413   4.636  1.1718  0.2650  0.0033
  615TIP3   OH223335   4.715   0.353   0.506  0.2047  0.2935 -0.3488
  615TIP3    H123336   4.631   0.377   0.545  0.2807  0.9585 -0.5803
  615TIP3    H223337   4.725   0.413   0.432  0.9455  0.3113 -0.2446
  616TIP3   OH223338   0.704   5.132   3.303 -0.0862 -0.0084 -0.1944
  616TIP3    H123339   0.715   5.139   3.208 -0.6039  0.2817 -0.2349
  616TIP3    H223340   0.782   5.173   3.339  1.5137 -2.6792 -0.5144
  617TIP3   OH223341   2.662   3.638   4.012  0.5552 -0.1016 -0.0908
  617TIP3    H123342   2.730   3.583   4.049 -0.2630  1.2219  3.5506
  617TIP3    H223343   2.606   3.577   3.963  0.9584 -2.1658  1.9254
  618TIP3   OH223344   2.443   4.082   4.711  0.0359 -0.7717  0.4400
  618TIP3    H123345   2.527   4.040   4.730  1.0009 -0.2618 -2.3768
  618TIP3    H223346   2.435   4.153   4.774  2.8152  0.5706 -0.6615
  619TIP3   OH223347   6.602   4.615   4.043  0.5544 -0.6219  0.6647
  619TIP3    H123348   6.519   4.573   4.066 -1.2003  1.5867 -1.3235
  619TIP3    H223349   6.616   4.592   3.951  1.3317  0.3057  0.5385
  620TIP3   OH223350   4.189   2.472   1.587  0.8017  0.8081  0.4370
  620TIP3    H123351   4.162   2.492   1.677  0.9053  2.7645  0.0543
  620TIP3    H223352   4.285   2.469   1.590  0.7958  0.6150  0.4386
  621TIP3   OH223353   4.077   0.690  15.671  0.2268  0.6629  0.3059
  621TIP3    H123354   4.166   0.724  15.671  0.6314 -0.3534 -1.0429
  621TIP3    H223355   4.023   0.764  15.640  0.5807  1.3110  1.2331
  622TIP3   OH223356   5.849   2.997   1.624  0.3734  0.3227 -0.8237
  622TIP3    H123357   5.917   2.931   1.606  0.2272 -0.6114  1.7879
  622TIP3    H223358   5.767   2.947   1.624 -0.2708  1.3458 -3.3797
  623TIP3   OH223359   1.051   5.386   5.508  0.2719 -0.9278  0.3384
  623TIP3    H123360   1.118   5.412   5.570 -0.9618 -0.3322  1.4529
  623TIP3    H223361   0.995   5.325   5.557 -1.6866  0.8314  0.3805
  624TIP3   OH223362   0.030   1.085   0.852  0.1086 -0.3155 -0.3336
  624TIP3    H123363   0.029   1.137   0.932  0.2348 -1.4620  0.4184
  624TIP3    H223364  -0.032   1.129   0.794 -1.3499 -0.4998  1.0559
  625TIP3   OH223365   0.210   4.331  10.335 -0.0534 -0.1747  0.1222
  625TIP3    H123366   0.262   4.304  10.259  0.4549 -0.5518  0.5950
  625TIP3    H223367   0.271   4.323  10.408 -0.8383 -0.7859  0.7075
  626TIP3   OH223368   2.335   5.701   4.571  0.4757  0.4898 -0.1299
  626TIP3    H123369   2.423   5.701   4.609  1.4056  2.5997 -2.2102
  626TIP3    H223370   2.349   5.708   4.477 -1.8773 -2.3059 -0.7692
  627TIP3   OH223371   0.159   6.315   4.555  0.4422 -0.1153  0.1854
  627TIP3    H123372   0.131   6.230   4.522  1.8696  0.5828 -3.0421
  627TIP3    H223373   0.080   6.369   4.552  0.0083 -0.7411  0.1774
  628TIP3   OH223374   3.879   2.717  11.353  0.1388  0.2336  0.0228
  628TIP3    H123375   3.820   2.789  11.330 -0.7600 -0.6886 -0.6033
  628TIP3    H223376   3.837   2.675  11.428  0.7375  0.4501  0.4826
  629TIP3   OH223377   5.804   4.157  16.587  0.2495  0.6805 -0.2434
  629TIP3    H123378   5.739   4.156  16.658 -0.6595 -1.1205 -1.0692
  629TIP3    H223379   5.872   4.217  16.618 -0.0822 -0.1158  2.1892
  630TIP3   OH223380   4.601   1.755   1.558  0.1221  0.0989  0.8089
  630TIP3    H123381   4.548   1.835   1.552  1.6454  1.2407  2.0122
  630TIP3    H223382   4.666   1.764   1.489 -0.7229 -0.9189 -0.1387
  631TIP3   OH223383   1.169   3.461  12.879  0.0256 -0.3069 -0.1304
  631TIP3    H123384   1.090   3.406  12.881  0.3274 -0.7228  1.2900
  631TIP3    H223385   1.145   3.535  12.824 -0.7951 -1.2768 -1.0931
  632TIP3   OH223386   5.323   2.622   4.706  0.4152 -0.2940 -0.1316
  632TIP3    H123387   5.264   2.548   4.721  0.0798 -0.5185 -2.4155
  632TIP3    H223388   5.332   2.663   4.792 -2.3771 -0.7612  0.4241
  633TIP3   OH223389   5.472   1.324  12.174 -0.1743  0.1267  0.1031
  633TIP3    H123390   5.506   1.385  12.238 -1.5389  1.1284 -0.0950
  633TIP3    H223391   5.448   1.379  12.099 -0.0903 -0.8273 -0.6372
  634TIP3   OH223392   3.381   0.102  12.052 -0.1615 -0.0689 -0.3941
  634TIP3    H123393   3.393   0.196  12.067 -2.4055  0.3163 -0.7528
  634TIP3    H223394   3.343   0.097  11.964  1.2466 -1.4209 -0.9266
  635TIP3   OH223395   6.244   1.370   3.090 -0.3294 -0.0529  0.6024
  635TIP3    H123396   6.291   1.288   3.103  0.0263 -0.1871 -1.3215
  635TIP3    H223397   6.167   1.346   3.039 -0.3702  0.7536  0.2733
  636TIP3   OH223398   6.451   6.022   6.771 -0.1741 -0.1097  0.2979
  636TIP3    H123399   6.497   6.008   6.688  1.0318 -1.6168  1.1979
  636TIP3    H223400   6.498   5.967   6.834 -2.0089 -0.1616  1.6586
  637TIP3   OH223401   1.155   5.485   1.099 -0.0902 -0.5402 -0.1294
  637TIP3    H123402   1.077   5.534   1.126 -0.6513 -2.1693  1.3022
  637TIP3    H223403   1.121   5.401   1.069  1.0352 -0.8708 -0.4829
  638TIP3   OH223404   1.530   1.985   0.639 -0.0866 -0.0601  0.3602
  638TIP3    H123405   1.439   1.982   0.611  0.0588  0.9248 -0.2486
  638TIP3    H223406   1.578   2.013   0.561  0.6281  0.2742  0.9162
  639TIP3   OH223407   2.770   5.201  14.909 -0.1279  0.3206  0.0015
  639TIP3    H123408   2.769   5.105  14.908 -1.3644  0.3370 -0.9759
  639TIP3    H223409   2.829   5.224  14.836 -0.8336  0.3149 -0.5729
  640TIP3   OH223410   0.803   4.808  13.622  0.6360  0.3094 -0.0026
  640TIP3    H123411   0.752   4.817  13.542  0.9655  3.2856  0.0438
  640TIP3    H223412   0.820   4.898  13.649  2.7829 -0.6410  1.9837
  641TIP3   OH223413   6.132   3.473  12.009  0.0133  0.0434  0.4312
  641TIP3    H123414   6.176   3.534  11.949  1.3557 -0.3980  0.9371
  641TIP3    H223415   6.108   3.527  12.084 -1.2602  0.5036 -0.2884
  642TIP3   OH223416   1.996   4.017  14.117  0.2713 -0.0054 -0.0142
  642TIP3    H123417   2.031   3.936  14.079  0.1703 -0.0939  0.0831
  642TIP3    H223418   1.924   3.988  14.174 -0.8618  0.2799 -1.2703
  643TIP3   OH223419   1.143   6.480   2.325  0.7195  0.1636  0.1068
  643TIP3    H123420   1.181   6.565   2.304 -1.2093  1.1390  0.3486
  643TIP3    H223421   1.105   6.450   2.243 -1.2810  1.0122  0.6821
  644TIP3   OH223422   5.628   3.792   3.452  0.0860 -0.1934 -0.0227
  644TIP3    H123423   5.625   3.702   3.482  0.3006 -0.0034  0.5792
  644TIP3    H223424   5.714   3.824   3.480  0.5501 -0.1949 -1.3793
  645TIP3   OH223425   0.557   1.390  10.715  0.6971  0.1760  0.2588
  645TIP3    H123426   0.471   1.359  10.741  0.9798 -0.6272  0.2565
  645TIP3    H223427   0.541   1.473  10.672 -0.1872 -0.4797 -0.6966
  646TIP3   OH223428   3.510   1.369  15.015  0.5115  0.0858 -0.4075
  646TIP3    H123429   3.451   1.307  14.973 -0.4690 -1.8792  3.6107
  646TIP3    H223430   3.597   1.329  15.006  0.5218  0.4032 -1.7803
  647TIP3   OH223431   1.862   5.715   6.704  0.2190 -0.3348 -0.2024
  647TIP3    H123432   1.872   5.802   6.743  0.8129 -0.4349 -0.1270
  647TIP3    H223433   1.934   5.708   6.642 -0.3295 -0.4433 -0.8422
  648TIP3   OH223434   2.588   1.138  13.385  0.3230  0.0240 -1.0061
  648TIP3    H123435   2.578   1.100  13.472  0.2305  2.9833  0.3439
  648TIP3    H223436   2.613   1.065  13.329  1.5655 -1.7124  1.7304
  649TIP3   OH223437   5.034   0.476  14.940  0.3272  0.0488  0.3893
  649TIP3    H123438   5.073   0.549  14.988  0.3844  1.5716 -1.9177
  649TIP3    H223439   4.940   0.491  14.944  0.2690 -0.4602  1.0050
  650TIP3   OH223440   2.766   2.254   6.346 -0.6839  0.1874  0.7546
  650TIP3    H123441   2.672   2.266   6.336 -0.3825  1.6643 -0.5422
  650TIP3    H223442   2.775   2.177   6.402 -2.6669  0.4767  1.5142
  651TIP3   OH223443   2.841   1.486   2.673  0.7165 -0.3300  0.3313
  651TIP3    H123444   2.884   1.453   2.594  0.5625  0.9406 -0.2884
  651TIP3    H223445   2.754   1.513   2.643  0.1828 -1.0707  1.1993
  652TIP3   OH223446   4.315   0.121  13.820 -0.0228 -0.4135  0.1164
  652TIP3    H123447   4.235   0.173  13.824  1.0111  1.2004 -0.1476
  652TIP3    H223448   4.332   0.096  13.911 -0.0599  0.3971  0.3454
  653TIP3   OH223449   1.766   0.983   3.347  0.1443  0.0451  0.1969
  653TIP3    H123450   1.845   0.933   3.329  0.2887  0.5857 -0.7124
  653TIP3    H223451   1.696   0.933   3.304  0.3078  0.6668 -0.8310
  654TIP3   OH223452   2.941   4.491   3.489  0.4800  0.3386 -0.2208
  654TIP3    H123453   2.910   4.429   3.424  0.8870 -0.0783 -0.0239
  654TIP3    H223454   2.870   4.553   3.500 -0.0722 -0.3020 -0.1629
  655TIP3   OH223455   3.925   1.978  11.811 -0.3498  0.1813 -0.1916
  655TIP3    H123456   3.942   1.964  11.904  1.0614  0.5803 -0.3818
  655TIP3    H223457   3.831   1.964  11.802 -0.6252  0.8674  1.4289
  656TIP3   OH223458   6.811   1.935  17.112 -0.4616 -0.2692 -0.1351
  656TIP3    H123459   6.766   1.910  17.032  0.8400  1.3096 -1.4004
  656TIP3    H223460   6.757   2.006  17.149 -0.8065 -0.6728  0.1392
  657TIP3   OH223461   1.665   0.413   5.284  0.4209 -0.0832  1.1766
  657TIP3    H123462   1.648   0.503   5.258  1.0056  0.3028  2.1170
  657TIP3    H223463   1.752   0.415   5.324  0.6690 -1.1581  0.7238
  658TIP3   OH223464   0.849   3.793  13.724 -0.2942 -0.1666 -0.6130
  658TIP3    H123465   0.870   3.700  13.728 -0.3425 -0.1418  0.1651
  658TIP3    H223466   0.924   3.837  13.765  0.6001  0.2693 -2.6259
  659TIP3   OH223467   0.202   4.563   4.244 -0.4326  0.1014  0.3936
  659TIP3    H123468   0.149   4.488   4.215  0.0694 -0.0170 -0.2333
  659TIP3    H223469   0.188   4.568   4.338  1.0775 -1.9805  0.7376
  660TIP3   OH223470   5.208   4.105   1.981  0.8110  0.0856  0.0775
  660TIP3    H123471   5.275   4.171   1.963  0.7210  0.3193  0.6030
  660TIP3    H223472   5.130   4.155   2.003  0.6477 -0.1930  0.1340
  661TIP3   OH223473   3.026   5.482  15.139 -0.0635  0.1332 -0.2618
  661TIP3    H123474   3.052   5.470  15.047 -0.9936  0.0673 -0.5256
  661TIP3    H223475   3.034   5.576  15.153 -0.0796  0.1661 -0.4626
  662TIP3   OH223476   4.253   4.741   6.123  0.3725  0.4392 -0.3431
  662TIP3    H123477   4.291   4.787   6.198 -0.6960 -0.3999  0.7175
  662TIP3    H223478   4.311   4.666   6.109 -0.3822 -0.3359  0.7011
  663TIP3   OH223479   2.566   2.924   3.068 -1.0441  0.6727 -0.0417
  663TIP3    H123480   2.604   2.959   3.149 -1.9039  1.5211  0.0051
  663TIP3    H223481   2.513   2.850   3.096  3.5398 -2.9954 -0.4939
  664TIP3   OH223482   5.021   4.149  12.846 -0.1115 -0.4880 -0.1259
  664TIP3    H123483   5.051   4.123  12.760  2.8528  1.4123  0.2875
  664TIP3    H223484   5.034   4.072  12.901  0.0868 -0.9791 -0.8656
  665TIP3   OH223485   3.806   6.533  12.350  0.1890 -0.7607  0.6900
  665TIP3    H123486   3.871   6.583  12.300 -0.0258  0.6996  1.8192
  665TIP3    H223487   3.791   6.454  12.298  1.9960 -0.5711 -0.1638
  666TIP3   OH223488   6.241   0.778   0.943  0.1408  0.1007  0.0467
  666TIP3    H123489   6.146   0.780   0.937  0.1850  0.7811 -0.5326
  666TIP3    H223490   6.263   0.848   1.004  0.3997  1.6119 -1.7499
  667TIP3   OH223491   1.626   2.360  14.563  0.6926  0.0638  0.5033
  667TIP3    H123492   1.620   2.357  14.659  0.1362  1.3469  0.5242
  667TIP3    H223493   1.539   2.335  14.533  0.5237  0.8159  0.3625
  668TIP3   OH223494   1.974   3.828   2.284  0.6658  0.3020  0.8866
  668TIP3    H123495   1.896   3.788   2.245  0.5790  1.1445  0.1823
  668TIP3    H223496   1.954   3.831   2.378  1.4665 -3.0345  1.2245
  669TIP3   OH223497   5.846   3.633   5.698 -0.6889 -0.5141  0.2637
  669TIP3    H123498   5.755   3.659   5.683 -0.5061  0.2235  0.4304
  669TIP3    H223499   5.890   3.653   5.616 -0.1640  1.4232  0.9821
  670TIP3   OH223500   3.197   0.607   2.905  0.1719  0.7289  0.8218
  670TIP3    H123501   3.106   0.616   2.929 -0.4610 -0.0071 -1.1413
  670TIP3    H223502   3.230   0.536   2.960 -1.2585 -1.0139 -0.4958
  671TIP3   OH223503   5.438   3.885  13.984  0.5843  0.1952  0.4494
  671TIP3    H123504   5.404   3.800  13.955  1.8025 -0.5523  1.1629
  671TIP3    H223505   5.415   3.945  13.913 -1.2125 -0.5073  0.4104
  672TIP3   OH223506   6.482   4.352   2.052 -0.4200  0.1552  0.2003
  672TIP3    H123507   6.552   4.292   2.029  0.1986  1.2311 -0.7953
  672TIP3    H223508   6.497   4.373   2.144  0.6311  0.4506 -0.0342
  673TIP3   OH223509   3.617   4.140   1.517 -0.3542 -0.3002  0.2172
  673TIP3    H123510   3.646   4.088   1.591  0.6734 -0.1173 -0.0574
  673TIP3    H223511   3.686   4.204   1.503 -1.6926  1.2791  0.6721
  674TIP3   OH223512   5.054   6.807  12.285 -0.0251 -0.2704 -0.0608
  674TIP3    H123513   5.009   6.882  12.247 -0.4284  0.2563  1.3996
  674TIP3    H223514   5.012   6.795  12.370  0.3487 -1.8654 -0.0792
  675TIP3   OH223515   0.118   5.938  12.128 -0.2194  0.2708  0.4130
  675TIP3    H123516   0.028   5.951  12.097  0.5058  0.5242 -1.6549
  675TIP3    H223517   0.148   6.026  12.151  0.3854  0.5803 -1.4659
  676TIP3   OH223518   3.439   2.469  13.177  0.2582  0.5683  0.5084
  676TIP3    H123519   3.517   2.442  13.224 -0.5006 -1.0842  0.8362
  676TIP3    H223520   3.367   2.424  13.221 -1.0515  3.0931  1.0544
  677TIP3   OH223521   2.387   5.080   0.115  0.2655  0.2795 -0.2489
  677TIP3    H123522   2.321   5.022   0.075 -0.8409  0.6463  1.0285
  677TIP3    H223523   2.471   5.039   0.092 -0.4820 -1.5769  0.2102
  678TIP3   OH223524   0.684   3.608  13.259  0.2046 -0.0975 -0.0439
  678TIP3    H123525   0.665   3.575  13.347 -0.8347 -0.3062 -0.3378
  678TIP3    H223526   0.733   3.689  13.273 -1.9864  1.1133  0.7685
  679TIP3   OH223527   1.995   2.620   5.603 -0.3685 -0.3821 -0.6090
  679TIP3    H123528   2.059   2.661   5.661 -0.5502 -1.7192  0.5777
  679TIP3    H223529   1.947   2.693   5.564  1.5613  0.6184 -1.1519
  680TIP3   OH223530   1.102   5.562  16.071 -0.1382  0.0079  0.4253
  680TIP3    H123531   1.046   5.486  16.088 -0.6387 -0.1059 -1.5049
  680TIP3    H223532   1.177   5.526  16.023 -1.3180  0.9558 -2.2203
  681TIP3   OH223533   1.033   6.213   2.943  0.2041  0.0602 -0.2279
  681TIP3    H123534   0.995   6.259   3.018  0.1100  1.8225 -1.3262
  681TIP3    H223535   1.059   6.283   2.883  2.2679 -1.2273 -0.8891
  682TIP3   OH223536   5.499   1.717   0.341  0.3608 -0.2946  0.0390
  682TIP3    H123537   5.559   1.757   0.404  3.3650 -0.6787 -2.4445
  682TIP3    H223538   5.544   1.637   0.313 -1.6029 -0.9169 -1.4689
  683TIP3   OH223539   1.323   5.286  15.221  0.6801  0.8158  0.3686
  683TIP3    H123540   1.328   5.349  15.149  0.1308 -0.6534 -0.9596
  683TIP3    H223541   1.411   5.250  15.228  0.4171  0.0011 -0.4420
  684TIP3   OH223542   6.302   6.784   0.347 -0.0980 -0.5945 -0.4619
  684TIP3    H123543   6.255   6.864   0.324 -0.0868 -0.0299  1.4014
  684TIP3    H223544   6.292   6.727   0.271 -0.8368  0.8478 -1.4588
  685TIP3   OH223545   6.391   1.512   5.155  0.3163  0.4892  0.7386
  685TIP3    H123546   6.364   1.567   5.229 -0.9858  2.6309 -1.2751
  685TIP3    H223547   6.309   1.474   5.123  1.1680 -2.6083  2.0038
  686TIP3   OH223548   4.677   2.117  14.423 -0.5495 -0.4081  0.2706
  686TIP3    H123549   4.717   2.088  14.342  0.9225 -0.2814  0.9395
  686TIP3    H223550   4.728   2.073  14.492 -1.9893 -0.7953  1.1233
  687TIP3   OH223551   5.883   3.198  16.400 -0.6434  0.1584  0.1448
  687TIP3    H123552   5.934   3.215  16.321 -0.1995  0.7928  0.5611
  687TIP3    H223553   5.840   3.281  16.420 -0.8449 -0.0290  0.5006
  688TIP3   OH223554   1.124   3.430  12.496 -0.2699 -0.6787  0.2808
  688TIP3    H123555   1.157   3.519  12.489  0.5095 -0.8596  1.5150
  688TIP3    H223556   1.202   3.375  12.482 -0.5889 -1.1501  0.3711
  689TIP3   OH223557   4.726   3.275   0.812  0.1553  0.2142 -0.8166
  689TIP3    H123558   4.809   3.257   0.768  0.8114 -0.0432  0.5018
  689TIP3    H223559   4.700   3.362   0.780  0.2668 -0.2598 -2.2171
  690TIP3   OH223560   1.229   3.042  16.360  0.1807  0.3204 -0.2156
  690TIP3    H123561   1.230   2.962  16.308  0.2825  0.7864 -0.9353
  690TIP3    H223562   1.148   3.036  16.411 -0.2359  0.1595 -0.8896
  691TIP3   OH223563   4.424   4.088  12.939  0.2994  0.3647 -0.3885
  691TIP3    H123564   4.450   4.017  12.997 -0.1171  0.5761  0.0690
  691TIP3    H223565   4.332   4.071  12.919  1.1835 -1.2774 -3.3188
  692TIP3   OH223566   5.326   2.121   1.195  0.2180 -0.4964 -0.1843
  692TIP3    H123567   5.276   2.201   1.212  0.0665 -0.8623  1.1652
  692TIP3    H223568   5.292   2.089   1.111 -0.5659  0.2085 -0.1478
  693TIP3   OH223569   4.532   2.401   2.189 -0.0289  0.5969  0.0359
  693TIP3    H123570   4.555   2.427   2.278  0.9925  1.1218 -0.3794
  693TIP3    H223571   4.555   2.476   2.135 -1.8301  0.7749 -0.5281
  694TIP3   OH223572   0.256   6.091  15.698  0.1203  0.1974 -0.2469
  694TIP3    H123573   0.340   6.060  15.731  0.7078  0.6507 -1.2970
  694TIP3    H223574   0.265   6.088  15.603 -0.8008  0.9044 -0.3638
  695TIP3   OH223575   4.824   1.800   6.155 -0.1392  0.4240 -0.6783
  695TIP3    H123576   4.912   1.762   6.157 -0.5042 -0.4369 -0.6319
  695TIP3    H223577   4.787   1.778   6.241 -0.7605 -0.0906 -1.0763
  696TIP3   OH223578   6.234   5.534  15.064 -0.2043  0.1780 -0.3302
  696TIP3    H123579   6.207   5.619  15.030 -1.0842  0.3923  0.8808
  696TIP3    H223580   6.174   5.517  15.137  0.4510 -1.1283 -0.0840
  697TIP3   OH223581   2.274   4.536  12.019 -0.2784 -0.4280 -0.4268
  697TIP3    H123582   2.265   4.586  11.938 -0.7281  1.1959  0.5937
  697TIP3    H223583   2.185   4.516  12.045 -0.1734 -0.1524  0.1456
  698TIP3   OH223584   5.604   0.307   2.746  0.3670 -0.1970 -0.2226
  698TIP3    H123585   5.581   0.294   2.654 -1.5999  0.0972  0.1936
  698TIP3    H223586   5.626   0.400   2.753  1.5429 -0.4367 -0.5829
  699TIP3   OH223587   6.021   3.196   4.128 -0.0830  0.7923  0.6660
  699TIP3    H123588   6.039   3.184   4.034  1.2053 -0.3276  1.0313
  699TIP3    H223589   6.004   3.289   4.138  1.1555  1.1620 -0.4799
  700TIP3   OH223590   2.817   0.996  13.558 -0.0440  0.9212 -0.2441
  700TIP3    H123591   2.811   0.936  13.632 -1.1933  1.4849  0.1428
  700TIP3    H223592   2.854   0.944  13.487 -0.3276 -0.0374  0.3094
  701TIP3   OH223593   5.142   2.414  12.763  0.4329  0.3328  0.2952
  701TIP3    H123594   5.214   2.423  12.827  0.0011  0.8064  0.7239
  701TIP3    H223595   5.151   2.326  12.729  2.4673  1.0568 -1.1517
  702TIP3   OH223596   3.767   6.112   3.195 -0.1430 -0.3146  0.1066
  702TIP3    H123597   3.818   6.193   3.194 -1.8890  0.8443 -1.7939
  702TIP3    H223598   3.750   6.095   3.287  2.6930 -0.1164  0.6834
  703TIP3   OH223599   0.165   4.344  12.220 -0.0235 -0.2942 -0.1357
  703TIP3    H123600   0.222   4.389  12.281  2.0389  0.1271 -2.2880
  703TIP3    H223601   0.077   4.350  12.259  0.8609  2.0106  1.5649
  704TIP3   OH223602   5.305   3.625   1.163 -0.1643 -0.1733  0.5320
  704TIP3    H123603   5.397   3.626   1.191  0.3037  1.0207 -0.9826
  704TIP3    H223604   5.307   3.586   1.076 -1.3362 -1.8629  1.2529
  705TIP3   OH223605   1.501   0.560   0.448  0.2944 -0.2056  0.0189
  705TIP3    H123606   1.578   0.616   0.452 -0.2427  0.5747 -0.3541
  705TIP3    H223607   1.467   0.573   0.360  1.5070 -2.9646 -0.8894
  706TIP3   OH223608   6.233   0.006   3.499 -0.4120 -0.1580  0.0780
  706TIP3    H123609   6.143   0.024   3.524  0.2337 -0.1584  2.5198
  706TIP3    H223610   6.265  -0.055   3.566  2.3200  2.2293  1.0406
  707TIP3   OH223611   5.849   5.971   1.972 -0.3061  0.6359  0.2071
  707TIP3    H123612   5.855   6.061   2.003  1.8042  0.9891 -1.0619
  707TIP3    H223613   5.851   5.979   1.876 -0.7722 -0.7198  0.0777
  708TIP3   OH223614   0.355   4.820   6.149 -0.2011  0.2401 -0.7747
  708TIP3    H123615   0.261   4.803   6.144 -0.0711  0.1066 -2.9455
  708TIP3    H223616   0.394   4.762   6.084  1.4752 -0.1987  0.5594
  709TIP3   OH223617   2.635   0.709  11.160  1.2062  0.0630  0.1701
  709TIP3    H123618   2.623   0.741  11.071 -1.9961 -0.2051  0.4364
  709TIP3    H223619   2.723   0.738  11.185  0.5103  3.8619 -1.5320
  710TIP3   OH223620   1.026   5.911  13.502 -0.3024 -0.6239 -0.4387
  710TIP3    H123621   1.030   5.875  13.413 -0.8836  0.7512 -1.0478
  710TIP3    H223622   1.086   5.985  13.500  0.1818 -0.9840  0.5243
  711TIP3   OH223623   5.125   3.880  11.594  0.0886 -0.5698 -0.1889
  711TIP3    H123624   5.059   3.899  11.527 -1.2779 -0.1551  1.2671
  711TIP3    H223625   5.153   3.791  11.575 -1.8228 -1.2143 -0.0492
  712TIP3   OH223626   6.086   3.283   2.754 -0.1880 -0.2362  0.6611
  712TIP3    H123627   6.097   3.316   2.843 -0.1370  0.4519  0.4047
  712TIP3    H223628   6.056   3.359   2.704  3.3311  0.3715 -0.6875
  713TIP3   OH223629   6.759   3.563   3.461  0.4288  0.2574  0.2184
  713TIP3    H123630   6.824   3.535   3.398 -0.4749 -0.2507 -0.5038
  713TIP3    H223631   6.729   3.482   3.503  0.0755  0.4514  0.3497
  714TIP3   OH223632   1.430   2.187   2.496 -0.5470 -0.3997 -0.1506
  714TIP3    H123633   1.399   2.156   2.582  0.2135 -0.0310  0.2661
  714TIP3    H223634   1.415   2.282   2.499 -0.4804 -0.3823 -0.4143
  715TIP3   OH223635   5.767   5.278   1.331  0.0829  0.5642  0.2298
  715TIP3    H123636   5.861   5.294   1.330  0.0095  1.0052  0.3245
  715TIP3    H223637   5.759   5.182   1.331  0.5327  0.5264  0.7452
  716TIP3   OH223638   1.913   2.475  13.452 -0.7202  0.3193 -0.0782
  716TIP3    H123639   1.864   2.425  13.386  0.5233 -0.0174 -0.7775
  716TIP3    H223640   1.971   2.531  13.401 -0.7916  1.1387  0.7285
  717TIP3   OH223641   0.063   0.157   1.052 -0.8624  0.1092  0.5133
  717TIP3    H123642  -0.021   0.119   1.078  0.5573 -3.3551  0.2408
  717TIP3    H223643   0.089   0.106   0.975  0.8961  2.0221 -0.1934
  718TIP3   OH223644   2.792   0.917   0.939  0.2400 -0.0725  0.7737
  718TIP3    H123645   2.861   0.869   0.895  0.1747 -0.0359  0.6298
  718TIP3    H223646   2.738   0.849   0.980 -0.6715 -0.2204 -0.6214
  719TIP3   OH223647   2.751   0.456   2.652  0.3952 -0.8363 -0.2098
  719TIP3    H123648   2.846   0.466   2.643  0.0536  0.7942 -2.5361
  719TIP3    H223649   2.733   0.368   2.621  0.9993 -0.6710 -1.0305
  720TIP3   OH223650   6.444   0.006  13.411  0.1509 -0.0204 -0.4798
  720TIP3    H123651   6.510  -0.052  13.449 -0.8210 -1.1589 -0.4916
  720TIP3    H223652   6.391   0.034  13.486  0.3587  0.5326 -0.5338
  721TIP3   OH223653   6.605   6.521  12.176 -0.2458 -0.2382 -0.5341
  721TIP3    H123654   6.641   6.608  12.159  1.1466 -0.6446  0.1676
  721TIP3    H223655   6.529   6.514  12.119  0.3286  0.9895 -1.4794
  722TIP3   OH223656   6.173   1.631  11.244 -0.1332 -0.4674  0.6817
  722TIP3    H123657   6.138   1.718  11.225  1.5842  0.2929  0.8433
  722TIP3    H223658   6.256   1.648  11.288  0.0955 -2.1992  0.9684
  723TIP3   OH223659   2.161   2.165   2.437 -0.2082  0.5902 -0.5419
  723TIP3    H123660   2.212   2.120   2.370 -1.2512 -0.0546 -0.9204
  723TIP3    H223661   2.090   2.208   2.390 -1.1534 -0.1582  0.1709
  724TIP3   OH223662   3.318   4.820  11.238 -0.0920  0.2601 -0.1710
  724TIP3    H123663   3.303   4.738  11.191 -1.9321  1.2346 -1.3658
  724TIP3    H223664   3.342   4.883  11.170  0.1605  0.9782  0.5761
  725TIP3   OH223665   0.604   5.999  12.123  0.1283  0.6909  0.3681
  725TIP3    H123666   0.536   6.016  12.188  0.0480  0.3788  0.3648
  725TIP3    H223667   0.620   6.084  12.082  0.0140  0.8415  0.6344
  726TIP3   OH223668   3.626   6.707   3.547 -0.3952  0.0857 -0.0751
  726TIP3    H123669   3.596   6.794   3.576  1.0931  0.4237  0.5403
  726TIP3    H223670   3.665   6.723   3.461 -1.3737 -0.2309 -0.5807
  727TIP3   OH223671   5.369   1.823  13.316  0.0525 -0.8748  0.2670
  727TIP3    H123672   5.334   1.746  13.362  0.9951 -0.2273  2.0855
  727TIP3    H223673   5.443   1.789  13.267  1.0716 -0.9722  1.8354
  728TIP3   OH223674   1.815   0.291  15.871  0.7138  0.0113  0.5640
  728TIP3    H123675   1.896   0.339  15.855  1.1436 -1.2552 -1.3435
  728TIP3    H223676   1.839   0.225  15.936  1.4574 -0.9218 -0.6383
  729TIP3   OH223677   4.514   1.701  16.058 -0.7629 -0.5160  0.8336
  729TIP3    H123678   4.501   1.611  16.089 -1.6724 -1.2033 -1.4135
  729TIP3    H223679   4.432   1.724  16.016  0.5268  0.2032 -1.3842
  730TIP3   OH223680   1.982   2.948   4.184  0.0357 -0.1447  0.0474
  730TIP3    H123681   1.961   3.031   4.227 -0.2048 -0.6758  0.9620
  730TIP3    H223682   1.962   2.881   4.250 -0.9533 -1.0080 -1.1070
  731TIP3   OH223683   5.302   1.665  15.078 -0.4196 -0.3936  0.1709
  731TIP3    H123684   5.208   1.679  15.080 -0.6060 -1.6290  3.0613
  731TIP3    H223685   5.338   1.730  15.138  0.0361 -2.8493  2.7004
  732TIP3   OH223686   1.868   1.631  13.309 -0.4177 -0.4398 -0.2652
  732TIP3    H123687   1.960   1.629  13.285 -0.4151  0.9865 -0.3985
  732TIP3    H223688   1.867   1.627  13.405 -0.2046 -0.0715 -0.2494
  733TIP3   OH223689   4.304   6.419  13.350  0.1991 -0.1644 -0.4038
  733TIP3    H123690   4.360   6.432  13.427 -1.3630 -0.8959  0.8854
  733TIP3    H223691   4.253   6.341  13.370 -0.1364 -0.4533 -2.2640
  734TIP3   OH223692   0.761   1.413  11.899  0.5747 -0.4465  0.4764
  734TIP3    H123693   0.771   1.344  11.833  0.4444  0.1784 -0.1974
  734TIP3    H223694   0.710   1.481  11.856 -2.2874 -1.3993  2.2292
  735TIP3   OH223695   4.993   2.072   4.802  0.4404 -0.1107  0.2380
  735TIP3    H123696   5.036   2.029   4.876  1.0898  1.6397  0.9077
  735TIP3    H223697   4.948   2.147   4.841  0.1127  0.3497 -1.0177
  736TIP3   OH223698   6.513   2.083  16.010 -0.9099 -0.3331 -0.3839
  736TIP3    H123699   6.478   1.999  15.981 -0.2591 -1.0227  0.7830
  736TIP3    H223700   6.605   2.081  15.985 -0.2321 -1.1112  1.9871
  737TIP3   OH223701   4.154   2.148   5.668 -0.5798 -0.1408 -0.8704
  737TIP3    H123702   4.063   2.156   5.640 -1.3910 -0.6779  1.5336
  737TIP3    H223703   4.155   2.071   5.725  0.8223  1.4099  1.2658
  738TIP3   OH223704   6.049   2.024   4.552  0.4635  0.3438  0.9848
  738TIP3    H123705   6.134   1.986   4.531  0.2428 -0.6390  1.8233
  738TIP3    H223706   6.069   2.108   4.592  0.9897  0.7370 -0.0871
  739TIP3   OH223707   6.125   2.694  11.774 -0.0033 -0.3739 -0.7079
  739TIP3    H123708   6.118   2.599  11.785  0.2804 -0.1353  1.7917
  739TIP3    H223709   6.035   2.726  11.784  0.2442 -0.1656  1.0790
  740TIP3   OH223710   5.395   3.705  16.807  0.0189 -0.4464 -0.4182
  740TIP3    H123711   5.381   3.780  16.749  3.5132  0.8609  0.2977
  740TIP3    H223712   5.411   3.744  16.893 -0.1308 -2.1282  0.3845
  741TIP3   OH223713   0.901   3.142  16.989  0.0958  0.1312  0.1871
  741TIP3    H123714   0.856   3.162  17.071 -1.0372  1.6711 -0.7922
  741TIP3    H223715   0.977   3.201  16.989 -1.3647  2.0479 -1.0958
  742TIP3   OH223716   0.718   3.758  10.434 -0.6826 -0.0348 -0.0690
  742TIP3    H123717   0.653   3.771  10.365  0.2867  0.9715 -0.8159
  742TIP3    H223718   0.685   3.808  10.508 -0.7223  0.5588 -0.4817
  743TIP3   OH223719   3.147   4.299   2.826  0.1018  0.2993  0.0708
  743TIP3    H123720   3.159   4.220   2.774 -0.1670  0.1162  0.2844
  743TIP3    H223721   3.115   4.364   2.763 -0.8581 -0.1069  0.1296
  744TIP3   OH223722   4.945   6.792  14.844 -0.4367  0.3993 -0.0821
  744TIP3    H123723   4.882   6.830  14.906 -0.5932  1.9421 -1.1688
  744TIP3    H223724   5.015   6.857  14.839  0.6274 -0.7150  0.1083
  745TIP3   OH223725   0.385   1.306   5.882  0.2553  0.0053  0.1971
  745TIP3    H123726   0.325   1.380   5.891 -1.4931 -1.3528 -0.0267
  745TIP3    H223727   0.421   1.295   5.970  1.6546  2.0110 -0.0816
  746TIP3   OH223728   6.494   4.431   2.306  0.2143 -0.0079 -0.0493
  746TIP3    H123729   6.576   4.415   2.353  0.9700  1.1481 -0.9668
  746TIP3    H223730   6.467   4.518   2.334 -1.8864 -1.2476  1.9553
  747TIP3   OH223731   5.182   5.894   2.127 -0.3541 -0.1995  0.1882
  747TIP3    H123732   5.110   5.927   2.181 -1.4391  0.1081 -1.4373
  747TIP3    H223733   5.253   5.957   2.142 -1.7826  1.8537 -1.4021
  748TIP3   OH223734   3.777   2.918   2.739 -0.1187 -0.1871  0.8593
  748TIP3    H123735   3.825   3.001   2.744 -1.6988  0.7631  0.6734
  748TIP3    H223736   3.813   2.865   2.810 -0.4626  1.4140  2.2740
  749TIP3   OH223737   5.728   4.136  12.102 -0.2651 -0.1712  0.1168
  749TIP3    H123738   5.665   4.082  12.054  0.9032 -0.2080 -1.3925
  749TIP3    H223739   5.673   4.197  12.153 -1.5664 -1.9973  0.9717
  750TIP3   OH223740   4.257   3.709   0.775 -0.3117 -0.4135  0.0575
  750TIP3    H123741   4.209   3.627   0.790  0.5783 -1.1337 -0.8938
  750TIP3    H223742   4.189   3.772   0.751 -0.7494 -1.6132 -2.0329
  751TIP3   OH223743   4.970   4.090   5.633 -0.0524  0.7652  0.5501
  751TIP3    H123744   4.905   4.116   5.568  0.3320  1.9922  0.6422
  751TIP3    H223745   5.053   4.122   5.598  0.5869 -1.2649  0.1801
  752TIP3   OH223746   2.422   6.046  13.549 -0.3566  0.4941 -0.2244
  752TIP3    H123747   2.440   5.977  13.613  0.2222  1.9058  1.1836
  752TIP3    H223748   2.411   6.000  13.466  0.2227 -1.2582  0.6440
  753TIP3   OH223749   5.598   6.266  11.233 -0.3480  0.1932 -0.5159
  753TIP3    H123750   5.604   6.292  11.141 -0.7125 -0.5310 -0.7517
  753TIP3    H223751   5.591   6.348  11.282 -1.2911  0.5333 -1.2222
  754TIP3   OH223752   3.880   5.633  12.323 -0.2308  0.4024 -0.2863
  754TIP3    H123753   3.947   5.634  12.391 -1.9644  1.0923  1.4747
  754TIP3    H223754   3.815   5.570  12.354 -0.9937  0.6324 -1.3643
  755TIP3   OH223755   2.362   2.396   3.157  0.6801  0.2864 -0.3283
  755TIP3    H123756   2.296   2.443   3.105  0.4775  0.2672 -0.0907
  755TIP3    H223757   2.434   2.381   3.096  0.8778  1.1813 -0.3170
  756TIP3   OH223758   4.854   0.621   1.922  0.0276 -0.2360  0.4717
  756TIP3    H123759   4.877   0.581   1.839 -1.7509 -3.8208  1.6161
  756TIP3    H223760   4.772   0.667   1.905 -0.5751 -1.3536  0.3538
  757TIP3   OH223761   2.236   0.778   0.389  0.6419  0.4110  0.0301
  757TIP3    H123762   2.267   0.819   0.470  1.3280  2.6025 -1.3002
  757TIP3    H223763   2.154   0.824   0.369 -0.4216 -1.2927  0.3629
  758TIP3   OH223764   4.030   4.205   4.194  0.3617 -0.3253 -0.6769
  758TIP3    H123765   4.052   4.274   4.132 -0.7452 -0.0713 -0.7984
  758TIP3    H223766   4.111   4.154   4.204  1.1460  0.8989 -0.6924
  759TIP3   OH223767   3.751   2.877  14.702  0.6656 -0.2239 -0.7517
  759TIP3    H123768   3.677   2.903  14.647  0.1201 -0.1856 -0.0062
  759TIP3    H223769   3.819   2.851  14.640  0.8729  2.0056 -1.5150
  760TIP3   OH223770   6.502   2.395  13.312 -0.2362  0.2001  0.2895
  760TIP3    H123771   6.512   2.438  13.397  1.7403 -1.7645  1.0955
  760TIP3    H223772   6.587   2.404  13.270 -0.1790 -1.7597 -0.0685
  761TIP3   OH223773   0.603   6.386  16.833 -0.5400  0.0110 -0.0952
  761TIP3    H123774   0.632   6.327  16.902  0.2216  0.2827 -0.1763
  761TIP3    H223775   0.583   6.468  16.879  0.4020  0.3330 -0.2526
  762TIP3   OH223776   0.069   5.395  14.585  0.4422 -0.7610  0.1510
  762TIP3    H123777   0.031   5.308  14.590  0.0111 -0.4584  2.4429
  762TIP3    H223778   0.156   5.387  14.623  0.1043 -0.0335  1.0948
  763TIP3   OH223779   0.938   5.332  16.130 -0.0039  0.4063 -0.0245
  763TIP3    H123780   0.900   5.396  16.191 -0.7795  1.8213 -1.9552
  763TIP3    H223781   0.874   5.325  16.060  1.7929  0.3161 -1.6867
  764TIP3   OH223782   3.922   4.216   3.816 -0.2075 -0.1690  0.4777
  764TIP3    H123783   4.011   4.240   3.845 -0.2972  1.1175 -0.2456
  764TIP3    H223784   3.906   4.131   3.856  1.6830 -0.8104 -0.0651
  765TIP3   OH223785   2.198   4.681  14.687 -0.4295 -0.2252  1.0160
  765TIP3    H123786   2.174   4.644  14.602  0.2160 -0.8581  1.1072
  765TIP3    H223787   2.177   4.774  14.679 -0.2017 -0.2440  0.1079
  766TIP3   OH223788   6.733   5.495   0.535  0.2473 -1.2179  0.5079
  766TIP3    H123789   6.684   5.561   0.583  0.9369 -0.7365  0.5554
  766TIP3    H223790   6.824   5.525   0.539  0.2252 -0.8041 -1.6966
  767TIP3   OH223791   1.496   0.278   1.246 -0.1956 -0.0093 -0.2457
  767TIP3    H123792   1.581   0.257   1.208 -0.3559 -0.3600 -0.4108
  767TIP3    H223793   1.476   0.204   1.302 -0.9381 -0.4875 -1.1286
  768TIP3   OH223794   2.171   6.690   2.115 -0.4229 -0.1150  0.1722
  768TIP3    H123795   2.170   6.757   2.047  0.2355  0.1941  0.4625
  768TIP3    H223796   2.204   6.735   2.193  1.0294 -1.0200  0.0948
  769TIP3   OH223797   4.860   2.912  12.475 -0.6085  0.7360 -0.2442
  769TIP3    H123798   4.797   2.961  12.422 -2.3364 -3.2909 -2.1428
  769TIP3    H223799   4.932   2.892  12.415 -1.6608 -2.1603 -0.6246
  770TIP3   OH223800   4.606   1.326   1.631  0.0373  0.5909  0.3385
  770TIP3    H123801   4.602   1.317   1.726  0.1335  0.9257  0.3750
  770TIP3    H223802   4.554   1.254   1.598  1.1222 -0.3381  0.6232
  771TIP3   OH223803   1.083   1.640  15.288 -0.1794 -0.1340 -0.0330
  771TIP3    H123804   1.123   1.553  15.294 -0.1790 -0.1790 -0.6515
  771TIP3    H223805   1.124   1.680  15.211  1.6705  1.3765  1.6709
  772TIP3   OH223806   6.158   1.576  15.300 -0.2211 -0.5527 -0.2838
  772TIP3    H123807   6.140   1.593  15.393  0.2042 -1.4288 -0.0371
  772TIP3    H223808   6.168   1.663  15.261 -1.4572 -0.1435  0.2739
  773TIP3   OH223809   2.153   0.588  13.699  0.0332 -0.3894 -0.3975
  773TIP3    H123810   2.118   0.663  13.651 -0.7710 -1.3082 -1.2688
  773TIP3    H223811   2.083   0.524  13.698  0.6216 -1.0587  0.5702
  774TIP3   OH223812   2.146   5.152  13.613 -0.4274 -0.6960 -0.0510
  774TIP3    H123813   2.159   5.148  13.518 -0.2241 -0.1740 -0.0439
  774TIP3    H223814   2.075   5.215  13.625 -0.4912 -0.8050  0.1392
  775TIP3   OH223815   3.480   4.972   5.103  0.7868  0.1690 -0.0574
  775TIP3    H123816   3.414   4.902   5.109  0.3285  0.5297 -0.8963
  775TIP3    H223817   3.563   4.927   5.121  0.2309 -0.1179  1.9303
  776TIP3   OH223818   4.252   5.300   5.135 -0.5048  0.1250  0.4080
  776TIP3    H123819   4.238   5.206   5.122  1.7368 -0.0681 -0.8731
  776TIP3    H223820   4.242   5.338   5.047 -0.6018  0.9844  0.7846
  777TIP3   OH223821   1.924   5.785  11.955 -0.2146 -0.0518 -0.1360
  777TIP3    H123822   1.962   5.734  12.026 -0.1349  0.2311  0.0254
  777TIP3    H223823   1.832   5.759  11.954 -0.3593  0.4170  0.4942
  778TIP3   OH223824   2.456   2.929   5.835 -0.1580  0.2312  0.2664
  778TIP3    H123825   2.468   2.898   5.745  0.0536 -0.9157  0.6911
  778TIP3    H223826   2.545   2.941   5.868 -0.1872 -1.7547  1.1458
  779TIP3   OH223827   1.119   2.437  11.422 -0.2815 -0.0476 -0.1861
  779TIP3    H123828   1.086   2.485  11.498  0.8713 -0.1344  0.3866
  779TIP3    H223829   1.209   2.415  11.445  0.5287  1.1159 -2.1556
  780TIP3   OH223830   3.650   2.671  17.126 -0.2684 -0.1730 -0.6032
  780TIP3    H123831   3.666   2.620  17.205 -1.5820 -0.0297 -0.2217
  780TIP3    H223832   3.605   2.750  17.157  1.4925  1.1088 -1.2138
  781TIP3   OH223833   5.772   4.899  12.867  0.4885  0.1646 -0.4738
  781TIP3    H123834   5.730   4.960  12.928 -0.7400 -1.7034  0.6070
  781TIP3    H223835   5.733   4.919  12.782 -0.8169  0.1123  0.0894
  782TIP3   OH223836   0.955   2.558   0.369 -0.7489  0.2707  0.1327
  782TIP3    H123837   0.859   2.561   0.366 -0.8465 -0.0719  2.1019
  782TIP3    H223838   0.981   2.647   0.392 -0.8264 -0.4294  3.2328
  783TIP3   OH223839   5.737   2.995  12.627  0.0633 -0.0270 -0.1343
  783TIP3    H123840   5.655   3.035  12.655  0.1043  0.0558 -0.1323
  783TIP3    H223841   5.713   2.937  12.555  0.2218  1.1933 -1.1906
  784TIP3   OH223842   3.824   0.079  12.651 -0.3026 -0.4117 -0.9292
  784TIP3    H123843   3.886   0.023  12.699 -0.6786  0.9474  1.2332
  784TIP3    H223844   3.876   0.152  12.619 -0.9021  1.3965  1.9783
  785TIP3   OH223845   3.312   6.130   0.810  0.4592  0.3710  0.1434
  785TIP3    H123846   3.390   6.140   0.756  0.1194  1.2536 -0.1921
  785TIP3    H223847   3.287   6.038   0.798 -0.6585  0.9872 -2.6833
  786TIP3   OH223848   4.014   2.257  16.347  0.4015 -0.1865 -0.2975
  786TIP3    H123849   3.919   2.252  16.343  0.4230  0.6198 -2.6939
  786TIP3    H223850   4.034   2.270  16.439 -1.8561  0.5053  0.1225
  787TIP3   OH223851   2.506   2.389   5.207 -0.1494 -0.5536 -0.3922
  787TIP3    H123852   2.567   2.447   5.161  0.8645 -0.2522  1.3006
  787TIP3    H223853   2.420   2.415   5.176  0.4736  0.1751 -1.5275
  788TIP3   OH223854   4.796   4.135  10.215 -0.0467 -0.1703 -0.2426
  788TIP3    H123855   4.796   4.045  10.245  1.0776  0.0645  0.5073
  788TIP3    H223856   4.705   4.154  10.193 -0.3573 -1.3388  0.0318
  789TIP3   OH223857   4.481   4.678  15.729  0.6564 -0.4737 -0.2643
  789TIP3    H123858   4.518   4.740  15.793  0.4750 -0.0860 -0.5363
  789TIP3    H223859   4.387   4.697  15.729  0.7333 -0.0835 -1.0718
  790TIP3   OH223860   6.567   2.846   3.456 -0.5459 -0.2274 -0.1927
  790TIP3    H123861   6.580   2.782   3.526  1.3423 -0.4705 -0.7511
  790TIP3    H223862   6.481   2.824   3.419 -0.9458 -0.9511  1.1534
  791TIP3   OH223863   1.104   4.351  11.829 -0.4926  0.1293  0.2455
  791TIP3    H123864   1.010   4.331  11.821 -0.6267  0.5017  0.8905
  791TIP3    H223865   1.142   4.315  11.749 -1.0100 -1.0391  0.5097
  792TIP3   OH223866   3.994   6.814  17.002 -0.4360  0.5729 -0.0506
  792TIP3    H123867   4.039   6.867  16.936  1.7113 -0.8943  0.1911
  792TIP3    H223868   4.020   6.853  17.086  0.6230 -0.4285  0.0980
  793TIP3   OH223869   4.843   4.722  11.169  0.0673 -0.0472  0.2145
  793TIP3    H123870   4.814   4.723  11.078  2.1206  1.7907 -0.4675
  793TIP3    H223871   4.836   4.812  11.198  2.0125 -0.1179  0.9892
  794TIP3   OH223872   0.630   6.353   5.507  1.1248 -0.5161  0.2385
  794TIP3    H123873   0.659   6.307   5.586  1.1010  0.4796  0.8277
  794TIP3    H223874   0.711   6.385   5.467  0.9924  0.5156  0.8039
  795TIP3   OH223875   6.395   2.062   0.387  0.4365  0.3778  0.1586
  795TIP3    H123876   6.438   1.977   0.375 -0.6340 -0.0601 -0.6940
  795TIP3    H223877   6.373   2.065   0.480 -1.7336 -1.3711 -0.2721
  796TIP3   OH223878   4.392   3.103   3.661  0.2128 -0.7754 -0.4519
  796TIP3    H123879   4.451   3.057   3.720  0.1886 -1.7711 -1.1946
  796TIP3    H223880   4.438   3.103   3.576 -0.4023 -0.6651 -0.7883
  797TIP3   OH223881   2.775   4.672   3.908  0.3570 -0.7409  0.4633
  797TIP3    H123882   2.786   4.694   4.000  0.0421 -3.4040  1.1855
  797TIP3    H223883   2.830   4.735   3.861  1.4108 -0.0753  2.5563
  798TIP3   OH223884   5.823   1.863   5.868 -0.3642 -0.6065 -0.2321
  798TIP3    H123885   5.897   1.873   5.808 -0.2565 -3.0232 -0.5543
  798TIP3    H223886   5.857   1.892   5.952  0.6496 -0.7625 -0.5784
  799TIP3   OH223887   2.734   2.155  16.310 -0.4066  0.1291  0.1304
  799TIP3    H123888   2.638   2.148  16.312 -0.3220 -1.3715 -0.3238
  799TIP3    H223889   2.753   2.230  16.365 -1.7008 -1.1802  2.4757
  800TIP3   OH223890   5.364   0.366  13.257 -0.7306  0.2999 -0.0821
  800TIP3    H123891   5.413   0.288  13.231  0.8943  1.4551 -0.5762
  800TIP3    H223892   5.363   0.362  13.353 -0.4418 -0.1936 -0.0934
  801TIP3   OH223893   5.174   3.373   5.384  0.5779  0.4380  0.1361
  801TIP3    H123894   5.203   3.286   5.356  1.2584  0.5402  0.5088
  801TIP3    H223895   5.089   3.386   5.341  0.7500 -0.1684 -0.3803
  802TIP3   OH223896   2.540   3.204  16.406 -0.3162  0.3923  0.7478
  802TIP3    H123897   2.599   3.173  16.474  0.2523  0.1789  0.1558
  802TIP3    H223898   2.467   3.243  16.454 -1.0203 -1.7703  1.5165
  803TIP3   OH223899   5.378   4.613  11.042  0.1613 -0.4128 -0.6461
  803TIP3    H123900   5.372   4.618  10.946  0.2635 -0.3929 -0.6517
  803TIP3    H223901   5.303   4.559  11.068 -0.5653  0.5803 -0.6483
  804TIP3   OH223902   0.728   1.228   3.218  0.1294 -0.2657  0.1563
  804TIP3    H123903   0.739   1.135   3.237  1.8468  0.3130  2.0960
  804TIP3    H223904   0.773   1.273   3.289 -3.6002  2.1195  1.1106
  805TIP3   OH223905   5.859   0.774  15.134 -0.2833  0.4158 -0.8043
  805TIP3    H123906   5.861   0.691  15.086  0.6849 -1.3238  2.0828
  805TIP3    H223907   5.766   0.799  15.136 -0.7446 -1.2398 -0.7323
  806TIP3   OH223908   2.468   6.581  15.721 -0.5718 -0.4480 -0.2939
  806TIP3    H123909   2.380   6.590  15.684 -0.3876 -1.3282 -0.9592
  806TIP3    H223910   2.455   6.589  15.816 -1.3907 -0.8046 -0.3713
  807TIP3   OH223911   4.782   3.743  14.192  0.1911  0.3003 -0.5542
  807TIP3    H123912   4.698   3.782  14.214 -0.1205 -0.5853 -0.1054
  807TIP3    H223913   4.760   3.663  14.145  0.6902 -1.0392  1.3906
  808TIP3   OH223914   1.586   1.707   1.569  0.7280 -0.1945 -0.1679
  808TIP3    H123915   1.536   1.665   1.500  0.7206 -0.0876 -0.2276
  808TIP3    H223916   1.658   1.751   1.524 -0.1009  1.1035 -0.2626
  809TIP3   OH223917   4.549   4.852  11.836  0.4198  0.5134  0.1326
  809TIP3    H123918   4.526   4.775  11.784  0.5798 -0.0442  0.8760
  809TIP3    H223919   4.637   4.876  11.807  0.3777  0.4085 -0.0832
  810TIP3   OH223920   1.486   2.198   1.036 -0.1608  0.6466 -0.2432
  810TIP3    H123921   1.462   2.153   1.117 -1.4690  1.0452 -0.3988
  810TIP3    H223922   1.424   2.270   1.029  0.7029  1.3332 -0.9870
  811TIP3   OH223923   0.300   3.908  12.798 -0.5781  0.1072  0.0776
  811TIP3    H123924   0.205   3.915  12.791 -0.5648 -0.3415 -0.5698
  811TIP3    H223925   0.317   3.814  12.800 -0.2694  0.1732  1.9704
  812TIP3   OH223926   2.009   2.722   0.960 -0.0720  0.0274  0.8198
  812TIP3    H123927   2.031   2.653   1.022 -1.8967 -2.2398 -1.0048
  812TIP3    H223928   1.933   2.765   0.998  0.7946  0.7940  1.7308
  813TIP3   OH223929   1.552   3.767  13.786 -0.7210  0.0184 -0.0022
  813TIP3    H123930   1.519   3.678  13.799 -0.7736 -0.1509 -1.2011
  813TIP3    H223931   1.647   3.756  13.779 -0.6142  0.2131  1.0699
  814TIP3   OH223932   2.670   4.112  13.047 -0.1741  0.1628  0.3589
  814TIP3    H123933   2.606   4.087  12.981  0.3885 -1.1361  0.2977
  814TIP3    H223934   2.637   4.195  13.082 -0.6014  0.7548 -1.3875
  815TIP3   OH223935   2.515   3.522  16.854  0.6184 -0.3659 -0.0378
  815TIP3    H123936   2.425   3.511  16.886  0.6690  1.1219  0.6529
  815TIP3    H223937   2.561   3.562  16.928  1.5370  0.1030 -0.8715
  816TIP3   OH223938   4.148   3.128  11.993  0.0957  0.6530  0.1792
  816TIP3    H123939   4.147   3.135  11.897 -2.1873 -0.1400  0.1239
  816TIP3    H223940   4.234   3.091  12.013  0.3173  0.1445 -1.6153
  817TIP3   OH223941   4.711   3.894   6.305  0.0040  0.1710  0.0008
  817TIP3    H123942   4.716   3.801   6.328  1.6962 -0.0626 -1.2065
  817TIP3    H223943   4.623   3.921   6.332 -0.5725 -1.8286  0.1829
  818TIP3   OH223944   4.974   2.956   4.709 -0.3091 -0.3734 -0.4175
  818TIP3    H123945   4.981   2.890   4.779  0.1522  0.1351  0.0220
  818TIP3    H223946   4.943   3.035   4.754  2.3930  0.6900 -0.3036
  819TIP3   OH223947   0.532   5.434  11.996  0.4528  0.3207  0.4876
  819TIP3    H123948   0.510   5.445  11.903  2.1314 -1.3701 -0.1325
  819TIP3    H223949   0.472   5.365  12.026 -0.5976  1.3766  0.8810
  820TIP3   OH223950   2.409   1.568  12.577 -0.5083 -0.6484 -0.0271
  820TIP3    H123951   2.466   1.632  12.535 -2.0774  0.6999 -0.1604
  820TIP3    H223952   2.418   1.587  12.670 -1.6284  0.3559 -0.1130
  821TIP3   OH223953   4.955   4.810   5.736  0.0503 -0.3094 -0.3299
  821TIP3    H123954   4.915   4.835   5.819  0.5882 -1.3078  0.2418
  821TIP3    H223955   4.970   4.893   5.690 -2.1906  0.1123 -0.3514
  822TIP3   OH223956   5.431   0.243  16.704 -0.4617 -0.2818  0.2378
  822TIP3    H123957   5.342   0.229  16.671 -1.1116  0.6376  1.5602
  822TIP3    H223958   5.421   0.309  16.772  0.9236 -1.7111  1.8835
  823TIP3   OH223959   6.378   2.916  12.766 -0.1651  0.1661  0.1311
  823TIP3    H123960   6.297   2.916  12.817  1.1783  0.0759  2.3578
  823TIP3    H223961   6.442   2.960  12.823  1.6319 -0.7807 -1.0883
  824TIP3   OH223962   4.206   1.082   4.067 -0.4604  0.0973  0.4850
  824TIP3    H123963   4.274   1.081   4.134 -0.3238  0.6758  0.3640
  824TIP3    H223964   4.164   1.167   4.077  0.1860  0.5934 -0.7759
  825TIP3   OH223965   0.890   0.785  11.547 -0.2436 -0.4228 -0.2682
  825TIP3    H123966   0.902   0.692  11.528 -1.5007 -0.7829  0.6625
  825TIP3    H223967   0.802   0.805  11.514 -0.5125  0.1109  0.7655
  826TIP3   OH223968   0.945   4.410   1.517 -0.2258  0.0962  0.1705
  826TIP3    H123969   0.875   4.464   1.554 -0.4348 -2.6108  3.9506
  826TIP3    H223970   1.025   4.454   1.544 -0.4288 -0.0891  1.1064
  827TIP3   OH223971   0.107   5.799   4.988  0.0804 -0.6576 -0.1395
  827TIP3    H123972   0.021   5.758   4.974 -1.0134  2.0676 -1.8563
  827TIP3    H223973   0.094   5.857   5.063  0.0630  0.6079 -1.0960
  828TIP3   OH223974   1.439   3.005  10.778 -0.7325  0.1347  0.2019
  828TIP3    H123975   1.399   2.919  10.764  1.4484 -0.7333 -0.8945
  828TIP3    H223976   1.437   3.046  10.692 -0.2583  0.5155  0.3715
  829TIP3   OH223977   1.921   3.620  16.094 -0.6092  0.1553 -0.3060
  829TIP3    H123978   1.847   3.610  16.154  1.1768 -1.5024  1.6756
  829TIP3    H223979   1.995   3.579  16.139  1.4216  1.3015 -2.4692
  830TIP3   OH223980   4.130   6.564  13.848  0.6347  0.2778  0.0619
  830TIP3    H123981   4.040   6.535  13.865  1.2519 -1.5459  0.3478
  830TIP3    H223982   4.133   6.578  13.754  0.1098  0.1330  0.0206
  831TIP3   OH223983   4.385   6.373   0.176 -0.2291  0.0049 -0.4720
  831TIP3    H123984   4.468   6.413   0.150 -0.5947  0.9489 -0.2157
  831TIP3    H223985   4.407   6.324   0.255  0.1094  0.1735 -0.4565
  832TIP3   OH223986   2.292   4.931  15.458  0.0514 -0.5415  0.1410
  832TIP3    H123987   2.331   4.846  15.481  0.1211 -1.2919 -2.5832
  832TIP3    H223988   2.351   4.967  15.392 -0.2703  1.4238  0.8981
  833TIP3   OH223989   2.898   3.184   5.312 -0.1139  0.1240  0.1701
  833TIP3    H123990   2.814   3.228   5.325  0.1380  0.0317  2.2706
  833TIP3    H223991   2.907   3.126   5.387  1.7536  0.0276 -0.0985
  834TIP3   OH223992   0.312   1.336  10.855 -0.0752  0.3796  0.2973
  834TIP3    H123993   0.273   1.393  10.788 -0.3622 -3.5588 -3.0796
  834TIP3    H223994   0.267   1.252  10.844  4.8335 -2.4568  0.5526
  835TIP3   OH223995   4.072   0.533  15.089  0.2531 -0.2903  0.2540
  835TIP3    H123996   4.041   0.507  15.176 -0.9011 -2.8864 -0.8881
  835TIP3    H223997   4.159   0.493  15.082 -0.4807 -1.7660 -0.5370
  836TIP3   OH223998   4.215   5.441  13.829  0.5595  0.3566 -0.2191
  836TIP3    H123999   4.304   5.448  13.794  0.5150 -3.8448 -1.5132
  836TIP3    H224000   4.164   5.503  13.778  2.7482  3.1433  0.8238
  837TIP3   OH224001   0.898   0.659   5.023  0.0163  0.1887  0.1029
  837TIP3    H124002   0.904   0.657   5.119  1.5043 -0.8486  0.0047
  837TIP3    H224003   0.821   0.606   5.002  0.1018 -0.1760  0.7000
  838TIP3   OH224004   5.275   2.668  14.016  0.3684  0.9015 -0.4672
  838TIP3    H124005   5.277   2.629  14.103  0.4339  2.0610  0.0618
  838TIP3    H224006   5.357   2.639  13.975  1.6465  2.5419  0.8533
  839TIP3   OH224007   4.268   0.890  16.444 -0.4236  0.5675  0.2785
  839TIP3    H124008   4.204   0.858  16.508 -0.1998  0.5800  0.5112
  839TIP3    H224009   4.243   0.980  16.428 -0.2852  0.6640  0.5987
  840TIP3   OH224010   4.651   4.193  14.089  0.0508  0.0950  0.5412
  840TIP3    H124011   4.606   4.277  14.095 -0.1408 -0.0992  2.0546
  840TIP3    H224012   4.740   4.211  14.119  0.3191 -0.0103 -0.1916
  841TIP3   OH224013   3.158   5.757  15.137 -0.2119 -0.0988  0.1341
  841TIP3    H124014   3.135   5.848  15.117 -4.2016 -1.0623 -0.2126
  841TIP3    H224015   3.222   5.732  15.070 -2.5434  1.0999 -2.6500
  842TIP3   OH224016   0.657   0.956   6.978  0.3960 -0.3166 -0.2698
  842TIP3    H124017   0.651   0.966   6.883  0.0630  3.0025  0.0399
  842TIP3    H224018   0.588   1.011   7.012  1.7155  0.0069  1.9496
  843TIP3   OH224019   5.807   5.864   1.330  0.0176 -0.4501 -0.3081
  843TIP3    H124020   5.754   5.786   1.347 -0.8308  0.2284  0.2388
  843TIP3    H224021   5.806   5.872   1.235 -0.8233 -0.4910 -0.3139
  844TIP3   OH224022   2.174   0.288  13.334  0.5748  0.1011 -1.0177
  844TIP3    H124023   2.206   0.353  13.396  0.3007 -0.6327 -0.0972
  844TIP3    H224024   2.212   0.205  13.365  0.1696 -0.3143 -1.6331
  845TIP3   OH224025   5.298   2.781  11.495  0.2878 -0.3423  0.2527
  845TIP3    H124026   5.282   2.722  11.422  1.7488  0.4605 -0.7481
  845TIP3    H224027   5.355   2.732  11.554  0.0269 -0.5882  0.2993
  846TIP3   OH224028   0.006   0.406   5.046 -0.3342  0.2388 -0.0372
  846TIP3    H124029   0.029   0.411   4.954 -0.1546  0.3527  0.0143
  846TIP3    H224030   0.014   0.313   5.068 -3.2110 -0.2423 -0.8646
  847TIP3   OH224031   3.085   3.272   2.507  0.0549 -0.7274  0.2909
  847TIP3    H124032   2.995   3.272   2.540  0.3039  1.1330  1.0397
  847TIP3    H224033   3.097   3.185   2.468 -2.8894 -0.0892 -2.1431
  848TIP3   OH224034   3.522   4.743  15.974  0.4205  0.4016 -0.0057
  848TIP3    H124035   3.548   4.835  15.982 -0.6519  0.7450 -0.3718
  848TIP3    H224036   3.593   4.695  16.017 -0.3146  1.5585  2.5989
  849TIP3   OH224037   6.257   2.772  14.922 -0.0454  0.0956  0.3692
  849TIP3    H124038   6.292   2.774  14.833 -1.2470 -2.1836 -0.1930
  849TIP3    H224039   6.331   2.747  14.976  0.7269  1.6161  0.0486
  850TIP3   OH224040   0.199   3.732   3.080  0.0951  0.1747  0.3093
  850TIP3    H124041   0.125   3.707   3.134 -0.2472 -0.6476 -0.5483
  850TIP3    H224042   0.262   3.661   3.091 -0.3096 -0.4002 -1.0147
  851TIP3   OH224043   0.696   6.127   3.730  0.0436  0.2765  0.0973
  851TIP3    H124044   0.747   6.150   3.652  1.9415 -0.3024  1.1255
  851TIP3    H224045   0.661   6.210   3.762  1.5208  0.8945  0.1538
  852TIP3   OH224046   1.761   5.488   0.657 -0.3778  0.4370 -0.1166
  852TIP3    H124047   1.671   5.513   0.678 -0.5317 -0.8429  0.8391
  852TIP3    H224048   1.753   5.433   0.579 -0.5760 -0.6729  0.6651
  853TIP3   OH224049   1.376   6.212  17.122  0.2839 -0.1709 -0.6064
  853TIP3    H124050   1.335   6.132  17.157  1.2579 -0.5997 -0.4278
  853TIP3    H224051   1.416   6.253  17.198 -0.8363  0.8770 -0.5704
  854TIP3   OH224052   6.069   4.564  14.340 -0.5111 -0.7632 -0.2890
  854TIP3    H124053   6.156   4.590  14.308 -0.0588 -0.9901  0.7529
  854TIP3    H224054   6.027   4.646  14.365 -0.7403 -0.6158 -1.1332
  855TIP3   OH224055   1.565   4.978   2.240  0.1532  0.4962  0.1997
  855TIP3    H124056   1.569   4.935   2.154 -1.0629  0.8074 -0.0224
  855TIP3    H224057   1.510   4.920   2.293 -1.1523  1.5376  0.0228
  856TIP3   OH224058   6.424   0.999  15.101 -0.0144 -0.6202 -0.3576
  856TIP3    H124059   6.470   0.965  15.025  2.0565 -0.1869  0.6737
  856TIP3    H224060   6.371   1.071  15.066 -0.0277 -1.2089 -1.5792
  857TIP3   OH224061   2.511   5.334   3.260  0.0207  0.3982  0.1064
  857TIP3    H124062   2.426   5.359   3.223  0.9852  2.5724 -0.7268
  857TIP3    H224063   2.543   5.265   3.203 -1.3503 -0.7383  0.6709
  858TIP3   OH224064   3.023   5.390  11.745  0.3618 -0.1806 -0.1948
  858TIP3    H124065   3.106   5.386  11.793 -0.0186 -0.9835  0.4161
  858TIP3    H224066   2.983   5.473  11.772  1.5922  0.8653 -1.5552
  859TIP3   OH224067   1.256   4.566  12.559 -0.5127  0.0802 -0.1095
  859TIP3    H124068   1.187   4.531  12.616  0.4807 -0.6740  0.6471
  859TIP3    H224069   1.309   4.490  12.536  0.9585  0.8923  0.5558
  860TIP3   OH224070   5.290   3.194  12.946 -1.0523  0.1443 -0.0660
  860TIP3    H124071   5.233   3.131  12.901 -0.2817  0.2152 -1.1602
  860TIP3    H224072   5.297   3.268  12.884 -0.6993  0.6326  0.5537
  861TIP3   OH224073   0.205   5.053  12.899 -0.2641 -0.6636  0.1897
  861TIP3    H124074   0.260   5.054  12.978 -2.1995 -1.4394  1.5805
  861TIP3    H224075   0.260   5.014  12.832  0.9467 -1.2719  1.5182
  862TIP3   OH224076   2.895   6.270  15.414 -0.0171  0.3374 -0.3276
  862TIP3    H124077   2.976   6.239  15.373  0.0956 -0.8536  0.7514
  862TIP3    H224078   2.827   6.212  15.380 -0.1553  0.2773  0.0502
  863TIP3   OH224079   3.072   5.972   2.158  0.4442 -0.2536  0.2037
  863TIP3    H124080   3.014   6.000   2.229 -0.7532  1.1314 -1.2900
  863TIP3    H224081   3.015   5.927   2.096  1.6975 -2.5801  0.6714
  864TIP3   OH224082   2.530   0.940  15.126 -0.4970 -0.0454  0.4672
  864TIP3    H124083   2.581   1.013  15.161  1.2168 -1.1149  0.2811
  864TIP3    H224084   2.569   0.862  15.167 -1.5386 -0.9442 -0.2124
  865TIP3   OH224085   4.306   1.321   4.309  0.3191  0.7330  0.5218
  865TIP3    H124086   4.218   1.331   4.345 -0.2980 -0.5118 -0.5988
  865TIP3    H224087   4.363   1.366   4.371 -1.1800  2.0814  0.9303
  866TIP3   OH224088   1.503   0.333  16.923 -0.4938  0.2151  0.4774
  866TIP3    H124089   1.450   0.287  16.858 -1.3911  0.4266  1.0447
  866TIP3    H224090   1.464   0.307  17.007  1.7557 -1.4659  1.0399
  867TIP3   OH224091   1.842   2.731  14.223  0.0692 -0.0814  0.4784
  867TIP3    H124092   1.888   2.675  14.286 -0.6870 -1.8112 -0.4546
  867TIP3    H224093   1.772   2.772  14.274 -0.6500 -1.6069  0.7460
  868TIP3   OH224094   5.217   3.214   4.466  0.5419  0.2919 -0.1973
  868TIP3    H124095   5.259   3.146   4.412 -1.0519 -0.8256 -0.0589
  868TIP3    H224096   5.150   3.252   4.409  0.1622  0.4547  0.3568
  869TIP3   OH224097   6.812   4.035  13.095 -0.1012  0.1936 -0.2271
  869TIP3    H124098   6.860   3.953  13.083 -0.1287  0.4570 -2.2485
  869TIP3    H224099   6.720   4.009  13.090 -0.1613  0.0797  1.1004
  870TIP3   OH224100   2.289   4.319   3.106 -0.7742 -0.3555  0.2806
  870TIP3    H124101   2.225   4.372   3.153 -0.0631  0.1286  0.7268
  870TIP3    H224102   2.373   4.340   3.148  0.3071  2.1680 -2.9665
  871TIP3   OH224103   3.331   5.087  13.270  0.0431  0.3089 -0.1758
  871TIP3    H124104   3.380   5.169  13.264 -0.4156  0.6083  0.1152
  871TIP3    H224105   3.239   5.113  13.266 -0.0838 -0.3325 -1.6668
  872TIP3   OH224106   0.520   0.975  13.864 -0.1188  0.5752  0.1802
  872TIP3    H124107   0.547   0.888  13.892 -1.1164 -0.0048 -0.6199
  872TIP3    H224108   0.602   1.024  13.854  0.3894  0.0967  1.7554
  873TIP3   OH224109   0.319   0.134   5.792  0.5261  0.0025 -0.0225
  873TIP3    H124110   0.321   0.146   5.697  1.2858 -1.1970 -0.1581
  873TIP3    H224111   0.410   0.138   5.818  0.2947  0.5993  0.6983
  874TIP3   OH224112   5.725   4.053   4.084 -0.1947 -0.2288  0.7463
  874TIP3    H124113   5.685   3.974   4.048  0.8526 -0.1804 -0.5549
  874TIP3    H224114   5.660   4.086   4.146 -0.6595 -2.0852  1.2888
  875TIP3   OH224115   0.035   6.782  14.698 -0.1380 -0.3930 -0.2556
  875TIP3    H124116   0.063   6.863  14.740 -0.9129 -0.5069  0.4704
  875TIP3    H224117  -0.041   6.753  14.748 -0.5028 -1.0170 -1.1612
  876TIP3   OH224118   0.857   2.085  11.519 -0.1239  0.3506 -0.2455
  876TIP3    H124119   0.875   2.001  11.559 -0.6065  1.0925  1.5745
  876TIP3    H224120   0.807   2.133  11.585 -2.0001  1.1691 -2.1855
  877TIP3   OH224121   6.628   1.797  11.243  0.4029 -0.0318  0.3774
  877TIP3    H124122   6.669   1.711  11.232  0.7908 -0.0504  1.8645
  877TIP3    H224123   6.701   1.857  11.256  0.0151 -0.1789  3.7898
  878TIP3   OH224124   4.991   4.227  17.098 -0.3908  0.0756 -0.0326
  878TIP3    H124125   4.933   4.176  17.154  0.5299 -2.3559 -1.2312
  878TIP3    H224126   5.028   4.294  17.156  0.5836 -2.3787  2.3229
  879TIP3   OH224127   4.050   0.616  11.120 -0.3195  0.4042 -0.2542
  879TIP3    H124128   4.080   0.525  11.115  2.2343  1.0342  1.9238
  879TIP3    H224129   3.959   0.609  11.149  0.6465 -1.4553  2.5956
  880TIP3   OH224130   1.856   3.688   3.826  0.9231 -0.2804  0.6814
  880TIP3    H124131   1.939   3.685   3.873  1.2849  0.0551  0.0623
  880TIP3    H224132   1.830   3.596   3.817  2.1268 -0.5013 -0.7139
  881TIP3   OH224133   4.337   0.069  17.012 -0.7776 -0.0290  0.4131
  881TIP3    H124134   4.255   0.112  16.989  0.0628 -0.0930 -2.8358
  881TIP3    H224135   4.390   0.137  17.054 -1.7199  0.5288  0.7060
  882TIP3   OH224136   4.739   3.150   3.762 -0.8207  0.2743  0.2980
  882TIP3    H124137   4.693   3.075   3.800  0.2756 -1.6518 -2.0237
  882TIP3    H224138   4.713   3.225   3.816 -2.5366 -1.6481  2.2024
  883TIP3   OH224139   3.058   1.672  11.323 -0.1194  0.3827  0.2773
  883TIP3    H124140   3.106   1.754  11.317 -0.1260  0.4813  1.6332
  883TIP3    H224141   2.968   1.697  11.345  0.1640 -0.0618  1.9512
  884TIP3   OH224142   4.636   4.749  15.526 -0.4362  0.4262  0.1504
  884TIP3    H124143   4.584   4.718  15.451 -0.4903 -0.5477  0.5782
  884TIP3    H224144   4.584   4.723  15.603  0.2086  0.3251  0.5500
  885TIP3   OH224145   2.743   4.308   2.749 -0.4711  0.2437  0.0218
  885TIP3    H124146   2.672   4.273   2.696  0.2290 -0.8331 -0.2151
  885TIP3    H224147   2.808   4.238   2.753 -0.5619  0.2340  2.3992
  886TIP3   OH224148   1.974   3.890  10.892 -0.0229 -0.4263 -0.1090
  886TIP3    H124149   1.909   3.953  10.861 -0.6304  0.1012  2.1586
  886TIP3    H224150   1.939   3.805  10.865  0.3946  0.1082 -2.4520
  887TIP3   OH224151   1.660   0.890   1.011  0.1249 -0.0414  0.3917
  887TIP3    H124152   1.687   0.951   1.080 -0.8288 -0.3610  1.0665
  887TIP3    H224153   1.590   0.839   1.051 -0.4343 -0.2409 -0.8127
  888TIP3   OH224154   3.496   6.668  11.926 -0.2310  0.3143 -0.1319
  888TIP3    H124155   3.431   6.738  11.940 -0.8495 -0.5447  1.4506
  888TIP3    H224156   3.570   6.712  11.885 -1.8053  1.3273 -1.9930
  889TIP3   OH224157   3.530   2.393  15.949  0.1428 -0.0807 -0.5160
  889TIP3    H124158   3.436   2.404  15.962  0.2779  0.2939  0.2175
  889TIP3    H224159   3.553   2.454  15.879 -0.0524  0.3160 -0.2348
  890TIP3   OH224160   3.850   6.218  16.142 -0.3582  0.4408 -0.5176
  890TIP3    H124161   3.778   6.241  16.200  0.1680  0.2273  0.2190
  890TIP3    H224162   3.809   6.162  16.076 -0.6646 -0.6218  0.5505
  891TIP3   OH224163   6.346   2.097   2.972 -0.4627  0.0217  0.0462
  891TIP3    H124164   6.362   2.192   2.975 -0.4796 -0.0061  2.5466
  891TIP3    H224165   6.276   2.086   2.909 -0.4428  1.6915 -0.2926
  892TIP3   OH224166   3.646   6.168   4.313  0.3759  0.5044  0.0139
  892TIP3    H124167   3.603   6.198   4.393 -0.4528  1.4881 -0.7797
  892TIP3    H224168   3.679   6.081   4.334 -2.2408 -0.3810  0.5845
  893TIP3   OH224169   3.053   1.331   2.863  0.2802 -0.3061  0.0611
  893TIP3    H124170   2.975   1.284   2.891 -1.0637  1.8927  0.1422
  893TIP3    H224171   3.025   1.381   2.787  1.9141 -0.3287 -0.5693
  894TIP3   OH224172   3.554   1.168   0.305 -0.4314  0.5017 -0.0550
  894TIP3    H124173   3.582   1.249   0.348  0.9455  0.6457 -1.1917
  894TIP3    H224174   3.475   1.142   0.353 -0.0236  1.6825  1.3046
  895TIP3   OH224175   2.856   4.126  14.569 -0.6117 -0.0040  0.8276
  895TIP3    H124176   2.772   4.157  14.534 -0.3159 -0.2239 -0.0739
  895TIP3    H224177   2.914   4.124  14.494  0.4073  0.8010  1.5739
  896TIP3   OH224178   1.387   2.395  16.467 -0.0390  0.0302 -0.3059
  896TIP3    H124179   1.379   2.425  16.377 -0.2705 -0.4089 -0.4321
  896TIP3    H224180   1.470   2.431  16.497  0.4315 -0.5005 -0.9589
  897TIP3   OH224181   6.423   2.213   5.823  0.2176 -0.1039 -0.2321
  897TIP3    H124182   6.351   2.154   5.842 -0.3918  0.6773 -0.0788
  897TIP3    H224183   6.492   2.157   5.787  0.0009 -1.0328  0.7800
  898TIP3   OH224184   6.764   1.272  14.906  0.1064  0.0972 -0.1156
  898TIP3    H124185   6.668   1.264  14.902 -0.1348  1.8511  1.1732
  898TIP3    H224186   6.797   1.190  14.870 -1.8952 -1.1728  0.8571
  899TIP3   OH224187   0.663   2.402  13.669 -0.3179 -0.4368 -0.3782
  899TIP3    H124188   0.750   2.373  13.697  0.9081  1.8701 -1.5580
  899TIP3    H224189   0.636   2.465  13.736 -0.5662 -0.3006 -0.6043
  900TIP3   OH224190   0.481   5.958  15.797 -0.1003  0.3076 -0.8644
  900TIP3    H124191   0.492   5.890  15.730 -0.5975  0.3781 -1.0192
  900TIP3    H224192   0.455   5.910  15.875 -0.1176  0.2879 -0.8823
  901TIP3   OH224193   0.100   5.983  13.891 -0.2284  0.0022  0.1133
  901TIP3    H124194   0.006   5.964  13.883 -0.0818 -0.7859  0.2648
  901TIP3    H224195   0.103   6.076  13.912 -0.8797  0.6624 -2.5007
  902TIP3   OH224196   4.569   2.535   0.296 -0.0345 -0.0778  0.3251
  902TIP3    H124197   4.511   2.522   0.221  1.4842  0.1202 -0.9210
  902TIP3    H224198   4.609   2.450   0.311 -0.1482 -0.0574  0.7530
  903TIP3   OH224199   6.083   0.742  15.869 -0.2619 -0.3092 -0.4065
  903TIP3    H124200   6.137   0.793  15.809 -1.1846 -0.2720 -1.2147
  903TIP3    H224201   6.020   0.804  15.904 -0.2643 -0.5153 -0.0386
  904TIP3   OH224202   4.597   1.641   1.807  0.1090  0.3474  0.5093
  904TIP3    H124203   4.581   1.682   1.723  1.1577  0.3603  0.3075
  904TIP3    H224204   4.525   1.669   1.863 -0.3790  0.6371 -0.2786
  905TIP3   OH224205   0.745   4.212  11.128 -0.4811  0.5325  0.1259
  905TIP3    H124206   0.679   4.155  11.088  0.8182 -1.2521  0.4441
  905TIP3    H224207   0.828   4.167  11.114  0.4595  1.8047  1.3789
  906TIP3   OH224208   4.334   4.540   0.459 -0.0065  0.6785 -0.0726
  906TIP3    H124209   4.335   4.450   0.426  0.6262 -0.1997  2.2599
  906TIP3    H224210   4.286   4.534   0.542 -2.0294  2.9242 -1.0235
  907TIP3   OH224211   3.109   4.082   4.274  0.1368  0.5116  0.4333
  907TIP3    H124212   3.167   4.072   4.198 -0.1820  0.8633  0.1384
  907TIP3    H224213   3.036   4.133   4.241 -0.2970  0.1498  0.8302
  908TIP3   OH224214   5.630   2.730  12.109 -0.4761  0.8045 -0.0233
  908TIP3    H124215   5.565   2.724  12.179  1.5364 -1.7337  1.7213
  908TIP3    H224216   5.710   2.757  12.153  1.1100 -1.9270 -1.0750
  909TIP3   OH224217   0.596   1.825  14.976  0.0454  0.9370 -0.2651
  909TIP3    H124218   0.605   1.919  14.966 -3.2178  1.1285 -1.9772
  909TIP3    H224219   0.512   1.813  15.021 -0.4868 -1.1928 -1.7571
  910TIP3   OH224220   6.804   0.841  11.925  0.6481  0.4685 -0.3910
  910TIP3    H124221   6.745   0.821  11.852 -0.1474  1.2997  0.0096
  910TIP3    H224222   6.749   0.831  12.003  0.3680  3.4697 -0.1302
  911TIP3   OH224223   4.928   5.212  10.250  0.2846 -0.7080 -0.0981
  911TIP3    H124224   4.835   5.230  10.236  0.0856 -0.6971  1.1566
  911TIP3    H224225   4.973   5.260  10.181 -0.5579  0.4650  0.1566
  912TIP3   OH224226   6.457   1.986   4.813  0.5173  0.8470 -0.2512
  912TIP3    H124227   6.511   2.013   4.739  0.0062  2.0474 -0.1945
  912TIP3    H224228   6.519   1.945   4.874  1.0158  0.2871 -1.1221
  913TIP3   OH224229   0.160   4.124  11.695 -0.1325  0.8926 -0.4285
  913TIP3    H124230   0.209   4.171  11.627  0.2548  1.3913  0.1993
  913TIP3    H224231   0.173   4.175  11.774 -0.8358  0.4694 -0.0346
  914TIP3   OH224232   2.938   2.757  10.826 -0.3207  0.0549  0.2764
  914TIP3    H124233   2.881   2.681  10.835 -0.1773 -0.1518 -0.5365
  914TIP3    H224234   2.921   2.809  10.906  1.7316 -2.2484  2.2816
  915TIP3   OH224235   6.150   4.830   2.487 -0.2717 -0.2357 -0.0005
  915TIP3    H124236   6.082   4.884   2.527  0.1414 -0.0461  0.4498
  915TIP3    H224237   6.103   4.769   2.430 -0.8138 -0.1006  0.3077
  916TIP3   OH224238   1.192   5.136   6.350  0.2939  0.1816  0.3636
  916TIP3    H124239   1.217   5.125   6.442 -1.0661  0.7630  0.8182
  916TIP3    H224240   1.243   5.211   6.320  0.4768  0.2146  0.7542
  917TIP3   OH224241   3.256   5.420   0.331 -0.2185 -0.1536  0.0124
  917TIP3    H124242   3.205   5.440   0.253  1.2627 -0.3675 -1.0289
  917TIP3    H224243   3.239   5.493   0.390 -0.9818  0.2424 -0.6862
  918TIP3   OH224244   0.833   2.290  16.058  0.0549 -0.2866  0.3901
  918TIP3    H124245   0.830   2.224  15.989 -1.0958 -0.4740  0.6235
  918TIP3    H224246   0.921   2.281  16.096 -0.3472 -2.1487  0.8891
  919TIP3   OH224247   0.282   4.268  15.898 -0.4926  0.1369  0.0652
  919TIP3    H124248   0.346   4.326  15.858  0.1729 -1.5530 -1.3846
  919TIP3    H224249   0.198   4.299  15.865 -0.2548  1.0191  0.2669
  920TIP3   OH224250   5.145   0.300  13.114 -0.7743  0.0286 -0.0206
  920TIP3    H124251   5.212   0.329  13.176 -1.7023 -0.0287  1.0294
  920TIP3    H224252   5.172   0.336  13.030  0.7939 -0.3353  0.3164
  921TIP3   OH224253   2.576   0.283  15.600  0.2232 -0.3938 -0.3834
  921TIP3    H124254   2.631   0.272  15.677  1.5184  0.5514 -1.1541
  921TIP3    H224255   2.552   0.194  15.574  0.0826 -0.7267  0.8828
  922TIP3   OH224256   4.980   4.041   3.687 -0.1769 -0.1888 -0.3112
  922TIP3    H124257   5.072   4.021   3.667 -0.7547 -1.6565 -1.6190
  922TIP3    H224258   4.939   3.956   3.702 -1.4249  0.4158 -0.1919
  923TIP3   OH224259   4.477   0.103  14.573 -0.9483  0.1718 -0.1039
  923TIP3    H124260   4.428   0.139  14.499 -2.0738 -0.3512  0.3635
  923TIP3    H224261   4.547   0.051  14.534 -0.3653  1.4648 -0.7843
  924TIP3   OH224262   0.257   4.250  11.484 -0.3728  0.3958 -0.0080
  924TIP3    H124263   0.303   4.180  11.438  0.2736  1.5718 -1.1820
  924TIP3    H224264   0.172   4.256  11.441  0.4995  1.9765 -1.5584
  925TIP3   OH224265   4.463   6.768   2.079 -0.3374 -0.5827 -0.2292
  925TIP3    H124266   4.394   6.702   2.088  0.0032 -0.9225 -0.0900
  925TIP3    H224267   4.543   6.721   2.101  0.0613 -0.4515 -1.3529
  926TIP3   OH224268   4.811   2.697   5.118 -0.0958  0.4806  0.0830
  926TIP3    H124269   4.818   2.643   5.196  1.7846  1.9089  0.9604
  926TIP3    H224270   4.777   2.781   5.149 -1.1763  0.4389 -0.9465
  927TIP3   OH224271   3.843   3.193   1.352 -0.2380 -0.1061 -0.1509
  927TIP3    H124272   3.886   3.263   1.302 -0.9562  0.7368  0.4030
  927TIP3    H224273   3.751   3.197   1.326 -0.9810  1.5938  2.6405
  928TIP3   OH224274   3.660   3.638   2.861 -0.1855 -0.1093 -0.3819
  928TIP3    H124275   3.667   3.609   2.770 -1.4917 -1.5329 -0.0520
  928TIP3    H224276   3.583   3.694   2.863 -1.3532 -1.6828  0.2093
  929TIP3   OH224277   0.466   0.123   2.437 -0.2364 -0.0103  0.0822
  929TIP3    H124278   0.374   0.110   2.460 -0.3342  2.0525  0.9387
  929TIP3    H224279   0.512   0.125   2.521  0.2585  1.2701 -0.2057
  930TIP3   OH224280   5.395   5.270  12.460  0.2996 -0.3602  0.2653
  930TIP3    H124281   5.351   5.193  12.425  2.8801 -1.1150 -1.4970
  930TIP3    H224282   5.429   5.242  12.545 -1.2475 -0.2377  0.9402
  931TIP3   OH224283   1.556   3.936   4.238 -0.3074  0.1544 -0.3232
  931TIP3    H124284   1.514   3.854   4.211 -1.4258  1.1605 -1.6989
  931TIP3    H224285   1.483   3.995   4.256  0.5071  1.4229 -1.1455
  932TIP3   OH224286   0.808   2.932  14.042 -0.2927 -0.4051 -0.1091
  932TIP3    H124287   0.775   2.859  14.095  0.2637 -0.5518  0.0374
  932TIP3    H224288   0.899   2.942  14.069 -0.3867  0.3875 -0.0882
  933TIP3   OH224289   6.067   4.707   2.911  0.2540 -0.2371  0.0526
  933TIP3    H124290   6.069   4.801   2.894 -0.2629  0.0204  1.3678
  933TIP3    H224291   6.146   4.673   2.867 -0.1679  0.6256 -1.4108
  934TIP3   OH224292   1.270   5.859   4.912  0.2998  0.0160 -0.2037
  934TIP3    H124293   1.295   5.906   4.992 -0.1470 -0.5991  0.3067
  934TIP3    H224294   1.183   5.892   4.891 -0.1685 -0.8270  0.3616
  935TIP3   OH224295   3.577   3.692   6.384 -0.0484  0.3877  0.0809
  935TIP3    H124296   3.610   3.778   6.408  2.5337 -1.3503  3.2049
  935TIP3    H224297   3.488   3.690   6.418 -0.3242  2.0366 -0.5380
  936TIP3   OH224298   1.798   3.217  15.216 -0.3546  0.0979  0.1844
  936TIP3    H124299   1.875   3.272  15.227  0.1458 -0.2771 -1.2911
  936TIP3    H224300   1.726   3.269  15.252 -0.1594  2.4038 -2.5685
  937TIP3   OH224301   6.172   4.049   0.540 -0.2438  0.1656  0.1154
  937TIP3    H124302   6.192   3.961   0.507  0.9795  0.2591  0.5666
  937TIP3    H224303   6.214   4.108   0.478 -0.0388  0.3949  0.4673
  938TIP3   OH224304   0.931   6.284  12.841 -0.2951  0.5611  0.5157
  938TIP3    H124305   0.875   6.361  12.840  0.5300  1.2603  3.2537
  938TIP3    H224306   1.017   6.316  12.869  0.3636 -1.1528  0.5498
  939TIP3   OH224307   1.951   6.144  13.708 -0.0825 -0.6080  0.6342
  939TIP3    H124308   2.038   6.115  13.736  0.3980  1.1847  1.0471
  939TIP3    H224309   1.944   6.116  13.617  1.2638 -0.0527  0.3473
  940TIP3   OH224310   5.981   2.889   1.206  0.5839  0.1397  0.2018
  940TIP3    H124311   5.989   2.797   1.182  0.9269 -0.1796  1.5170
  940TIP3    H224312   6.003   2.937   1.125  0.0514 -0.9144 -0.5838
  941TIP3   OH224313   5.449   1.468   1.744  0.4018  0.2333  0.0065
  941TIP3    H124314   5.392   1.476   1.668 -0.2184 -1.6124  0.2480
  941TIP3    H224315   5.392   1.489   1.818  0.3586 -0.3196  0.1366
  942TIP3   OH224316   3.625   3.332   2.009 -0.2837  0.7121  0.0835
  942TIP3    H124317   3.573   3.350   2.087 -1.9085 -2.2669 -0.2030
  942TIP3    H224318   3.677   3.255   2.032 -1.2077 -0.5523 -1.9160
  943TIP3   OH224319   3.692   0.005  13.803  0.0419 -0.0708  0.3063
  943TIP3    H124320   3.708   0.087  13.757 -2.2193 -0.7136 -1.7119
  943TIP3    H224321   3.755   0.005  13.875  2.9310  1.4819 -2.1271
  944TIP3   OH224322   3.038   2.098  16.660  0.2255  0.2983  0.8227
  944TIP3    H124323   2.984   2.021  16.643  1.9851 -0.9897  0.9452
  944TIP3    H224324   3.049   2.099  16.755  1.3718 -0.1278  0.7055
  945TIP3   OH224325   5.190   0.423   4.843  0.1071 -0.1023  0.6403
  945TIP3    H124326   5.257   0.380   4.789  1.6030  2.5057  0.3562
  945TIP3    H224327   5.171   0.505   4.797 -0.8090  0.7618  2.4949
  946TIP3   OH224328   4.207   6.752   1.718  0.2000 -0.4510 -0.3043
  946TIP3    H124329   4.127   6.784   1.676  0.1524 -1.5740 -1.0985
  946TIP3    H224330   4.247   6.830   1.755 -1.2189  0.1416  0.0308
  947TIP3   OH224331   5.822   1.087  12.135  0.2202  0.4608 -0.1477
  947TIP3    H124332   5.902   1.077  12.083  0.3863  1.2363 -0.0407
  947TIP3    H224333   5.765   1.142  12.081 -0.3341 -0.2673 -0.3231
  948TIP3   OH224334   1.052   1.142   2.597  0.7589 -0.5017  0.9076
  948TIP3    H124335   0.998   1.218   2.618  1.9378  1.1502 -1.8386
  948TIP3    H224336   1.000   1.092   2.535 -0.0233 -1.9701  2.7276
  949TIP3   OH224337   1.465   6.243   6.157 -0.1767  0.2455 -0.6358
  949TIP3    H124338   1.508   6.270   6.076 -1.6202  0.6320 -1.3013
  949TIP3    H224339   1.466   6.147   6.153  0.6733  0.2495 -0.6052
  950TIP3   OH224340   4.502   1.688  12.124  0.7752  0.4760  0.0921
  950TIP3    H124341   4.513   1.783  12.125  0.3714  0.5738 -2.2257
  950TIP3    H224342   4.589   1.653  12.142  0.9164  1.2736  1.0073
  951TIP3   OH224343   2.937   3.134  12.715  0.2230 -0.4751  0.1069
  951TIP3    H124344   2.952   3.173  12.629 -0.3121  0.1781  0.3023
  951TIP3    H224345   2.859   3.080  12.703 -0.1975  0.0731  0.3135
  952TIP3   OH224346   5.302   2.373  11.086  0.3382  0.0354 -0.9001
  952TIP3    H124347   5.351   2.327  11.154  0.9088  1.7453 -0.1262
  952TIP3    H224348   5.314   2.320  11.007  0.5361 -1.4091  0.0908
  953TIP3   OH224349   0.246   5.916  11.868  0.1390  0.2173 -0.2220
  953TIP3    H124350   0.197   5.940  11.946  1.3831  0.1608  0.5813
  953TIP3    H224351   0.257   5.999  11.821  1.9601  0.7745  1.1466
  954TIP3   OH224352   3.290   2.975  11.348 -0.2319  0.4753 -0.3656
  954TIP3    H124353   3.312   3.061  11.313 -0.0234  0.4824 -0.2193
  954TIP3    H224354   3.256   2.992  11.436 -0.6245  0.4470 -0.5121
  955TIP3   OH224355   3.684   2.863   1.051  0.6897  0.1074 -0.2751
  955TIP3    H124356   3.629   2.886   1.126  0.8516 -0.7465  0.1132
  955TIP3    H224357   3.773   2.886   1.078  0.6056  0.8952 -0.6593
  956TIP3   OH224358   3.996   6.542   4.891 -0.1133 -0.2634 -0.5044
  956TIP3    H124359   4.081   6.518   4.928 -0.6724  0.3665  1.2656
  956TIP3    H224360   4.013   6.623   4.842 -0.0444  1.0550  1.6083
  957TIP3   OH224361   1.895   0.422   3.264 -0.5712  0.3905  0.3068
  957TIP3    H124362   1.927   0.462   3.346 -0.1881 -0.5475  0.6298
  957TIP3    H224363   1.802   0.406   3.280 -0.1227 -1.4611  1.2739
  958TIP3   OH224364   0.542   0.635   1.203 -0.7353 -0.0651 -0.1235
  958TIP3    H124365   0.503   0.570   1.145 -0.8537 -1.5362  1.5316
  958TIP3    H224366   0.519   0.604   1.291  0.4571  1.4333  0.7309
  959TIP3   OH224367   3.530   1.501   0.727 -0.5717 -0.1772  0.6013
  959TIP3    H124368   3.622   1.523   0.731 -0.4953 -0.0435 -1.2413
  959TIP3    H224369   3.485   1.586   0.724 -0.6414 -0.2386 -0.2355
  960TIP3   OH224370   3.633   6.494  15.632  0.1685 -0.5773  0.3660
  960TIP3    H124371   3.673   6.581  15.619 -2.8498  0.7260 -0.7023
  960TIP3    H224372   3.637   6.480  15.727 -0.8795  1.5510  0.7556
  961TIP3   OH224373   1.448   6.430  11.408  0.4660  0.0291 -0.1980
  961TIP3    H124374   1.385   6.458  11.475 -0.8665  1.7617 -2.1232
  961TIP3    H224375   1.516   6.385  11.458 -1.2808 -0.1424  2.1590
  962TIP3   OH224376   5.689   5.997   3.022  0.2983 -0.1247 -0.5091
  962TIP3    H124377   5.630   6.044   3.081 -0.0822 -0.1011 -0.9100
  962TIP3    H224378   5.657   5.907   3.021  0.8768 -0.3414  0.0626
  963TIP3   OH224379   3.418   4.047   1.920  0.3052 -0.0349  0.6499
  963TIP3    H124380   3.394   4.081   1.834 -0.6289 -0.7389  0.6113
  963TIP3    H224381   3.506   4.012   1.908  0.3099  0.1669  0.0621
  964TIP3   OH224382   2.875   0.057   3.706 -0.4029 -0.2538  0.1671
  964TIP3    H124383   2.858   0.102   3.788  0.1502 -0.3600  0.3378
  964TIP3    H224384   2.812  -0.016   3.706 -3.1186  2.0280 -1.3311
  965TIP3   OH224385   2.295   3.996   5.540 -0.0399  0.1390 -0.0740
  965TIP3    H124386   2.242   4.020   5.616  0.9173  0.1515  0.5966
  965TIP3    H224387   2.312   4.079   5.496  2.6126  0.6520  1.8118
  966TIP3   OH224388   6.281   5.449  14.083  0.4026 -0.2506  0.0518
  966TIP3    H124389   6.324   5.428  14.000 -1.6459 -0.4910 -0.9847
  966TIP3    H224390   6.262   5.543  14.076 -0.6309 -0.4750 -0.1637
  967TIP3   OH224391   1.192   6.780  13.010 -0.0007  0.5356  0.2914
  967TIP3    H124392   1.207   6.874  13.011  0.7276  0.4873 -1.9543
  967TIP3    H224393   1.279   6.741  13.024 -0.2024  0.2073  0.6407
  968TIP3   OH224394   5.096   4.429   3.126 -0.4613 -0.3821 -0.0709
  968TIP3    H124395   5.118   4.421   3.034  2.3711  0.8501  0.4647
  968TIP3    H224396   5.009   4.469   3.127 -0.8537 -1.1312 -2.1872
  969TIP3   OH224397   0.021   5.635  15.598  0.6754 -0.1594  0.1569
  969TIP3    H124398   0.062   5.714  15.564  1.8854 -0.3104  1.2377
  969TIP3    H224399  -0.063   5.630  15.553  0.5852  1.7486  0.1009
  970TIP3   OH224400   1.017   0.773   6.134 -0.2806 -0.0916 -0.1928
  970TIP3    H124401   1.002   0.679   6.120 -0.7320 -0.1275  0.5326
  970TIP3    H224402   1.101   0.790   6.091  0.1247 -0.9668  0.2395
  971TIP3   OH224403   4.606   2.648  15.301  0.3328  0.2337 -0.0200
  971TIP3    H124404   4.637   2.618  15.387 -0.0625 -1.1844 -0.3581
  971TIP3    H224405   4.536   2.709  15.321  0.9142  0.6816  0.6902
  972TIP3   OH224406   2.627   0.435  11.151  0.0271  0.0325 -0.0393
  972TIP3    H124407   2.621   0.528  11.169 -0.4182 -0.1032  0.5576
  972TIP3    H224408   2.714   0.410  11.182 -0.1669  0.0959  0.5643
  973TIP3   OH224409   6.096   5.409   4.836  0.5612 -0.4954  0.0944
  973TIP3    H124410   6.033   5.346   4.870 -0.0375  0.5771  1.0255
  973TIP3    H224411   6.122   5.461   4.912  1.0104  0.3916 -0.6448
  974TIP3   OH224412   1.000   4.324  16.575  0.1333  0.3940  0.4600
  974TIP3    H124413   0.956   4.272  16.508 -1.2977  1.0615  0.8579
  974TIP3    H224414   0.949   4.405  16.579  1.9804  1.6036  0.2388
  975TIP3   OH224415   1.742   1.563  16.516  0.0183  0.2659  0.2178
  975TIP3    H124416   1.705   1.642  16.476  0.1279 -0.3472 -1.1278
  975TIP3    H224417   1.702   1.490  16.469  0.8884 -0.4618  0.5673
  976TIP3   OH224418   4.373   5.421  12.305 -0.0373 -0.9666 -0.3790
  976TIP3    H124419   4.293   5.439  12.353  1.2049 -1.2205  1.8233
  976TIP3    H224420   4.383   5.495  12.245 -1.7642 -0.8197 -0.5017
  977TIP3   OH224421   6.327   5.160  16.990  0.1703 -0.0218  0.2136
  977TIP3    H124422   6.247   5.130  16.946  0.1074 -0.1408  0.4081
  977TIP3    H224423   6.386   5.183  16.919  0.4578 -1.2420  0.0489
  978TIP3   OH224424   2.088   4.057   4.644  0.1316  0.0991 -0.2795
  978TIP3    H124425   2.040   3.974   4.639  1.2200 -0.5178 -0.8622
  978TIP3    H224426   2.126   4.058   4.731 -1.2565  0.7925  0.3446
  979TIP3   OH224427   4.495   3.252   1.024 -0.1757  0.1333 -0.6047
  979TIP3    H124428   4.493   3.308   0.946  1.6943 -1.0027 -1.4936
  979TIP3    H224429   4.565   3.288   1.077 -1.9309  1.3670  0.9620
  980TIP3   OH224430   5.484   6.145   4.327  1.1454 -0.0087  0.5482
  980TIP3    H124431   5.529   6.189   4.399  1.6169 -0.8962  0.8095
  980TIP3    H224432   5.555   6.108   4.273  0.8831  2.2308 -1.4214
  981TIP3   OH224433   6.739   2.831  11.849  0.0535  0.3040  0.1502
  981TIP3    H124434   6.778   2.791  11.772  2.0504  0.3080  1.1211
  981TIP3    H224435   6.658   2.783  11.864 -0.0650 -0.0608 -1.5992
  982TIP3   OH224436   5.485   2.362  16.062  0.0937  0.3000  0.1413
  982TIP3    H124437   5.430   2.311  16.003  1.3726  0.4268 -1.1912
  982TIP3    H224438   5.423   2.412  16.116 -1.1086  1.1452 -1.9560
  983TIP3   OH224439   5.064   6.068   4.642 -0.0707 -0.0535  0.1608
  983TIP3    H124440   5.033   6.038   4.557  1.2504  1.4916 -0.8949
  983TIP3    H224441   5.120   5.997   4.673 -1.1546 -0.9471  0.0943
  984TIP3   OH224442   4.607   5.065   5.529  0.3009  0.2359 -0.1568
  984TIP3    H124443   4.538   5.046   5.593 -0.3068 -0.9909 -1.1300
  984TIP3    H224444   4.663   5.129   5.572 -0.4830 -0.0389  1.3275
  985TIP3   OH224445   6.021   1.736   4.674  0.5197 -0.3598  0.1733
  985TIP3    H124446   6.069   1.653   4.684  0.5641 -0.3186  0.3017
  985TIP3    H224447   6.073   1.786   4.611  1.1374  0.0524  1.0002
  986TIP3   OH224448   6.549   0.247   0.019 -0.1716 -0.3908  0.8769
  986TIP3    H124449   6.587   0.195   0.089  0.2041  1.8771  2.4199
  986TIP3    H224450   6.623   0.272  -0.035 -0.0393  0.3518  1.3895
  987TIP3   OH224451   3.053   2.857   4.247 -0.4041  0.0980  0.3684
  987TIP3    H124452   2.996   2.902   4.184 -0.3692  2.2946  1.8788
  987TIP3    H224453   2.993   2.813   4.307 -0.4427 -2.8022 -1.6720
  988TIP3   OH224454   2.376   5.270   2.736 -0.2013 -0.0744 -0.2742
  988TIP3    H124455   2.388   5.291   2.643 -0.7891  1.3919 -0.0248
  988TIP3    H224456   2.363   5.175   2.737  1.1975 -0.3075 -1.5499
  989TIP3   OH224457   6.745   6.668   4.905 -0.0512  0.7364 -1.0096
  989TIP3    H124458   6.813   6.730   4.881  0.6137  0.3366 -0.1944
  989TIP3    H224459   6.776   6.584   4.870  1.2792  0.0094  1.7954
  990TIP3   OH224460   3.611   0.523   4.838  0.2064  0.2392  0.7514
  990TIP3    H124461   3.584   0.614   4.842 -0.6065  0.0278  0.2444
  990TIP3    H224462   3.704   0.526   4.812 -1.2807  0.8289 -5.3640
  991TIP3   OH224463   4.637   0.600  15.780  0.1009  0.2169  0.3060
  991TIP3    H124464   4.654   0.594  15.874  0.6796  0.2526  0.2082
  991TIP3    H224465   4.650   0.512  15.747 -0.4476  0.1333  0.3147
  992TIP3   OH224466   6.544   3.105  15.807 -0.8562  0.1098  0.0494
  992TIP3    H124467   6.476   3.085  15.871 -2.8815 -0.9634 -2.3058
  992TIP3    H224468   6.500   3.097  15.722  2.6504 -2.5650 -1.6785
  993TIP3   OH224469   3.736   6.053  15.294  0.3389 -0.2454  0.3036
  993TIP3    H124470   3.677   5.989  15.254  0.0053  0.6252 -0.5922
  993TIP3    H224471   3.687   6.087  15.369  0.8414 -1.6389  1.2999
  994TIP3   OH224472   1.313   2.979  12.058  0.9113  0.7184  0.0546
  994TIP3    H124473   1.282   2.974  11.968  1.7274  0.4024 -0.2140
  994TIP3    H224474   1.234   2.968  12.111  0.5163  0.2403 -0.6200
  995TIP3   OH224475   3.050   6.195   3.164 -0.0872 -0.3069 -0.5097
  995TIP3    H124476   3.052   6.239   3.080  0.6756 -0.2511 -0.4642
  995TIP3    H224477   3.130   6.143   3.166  0.3883  0.4450  0.5860
  996TIP3   OH224478   2.332   5.184   5.451 -0.3944 -0.4461  0.0278
  996TIP3    H124479   2.236   5.183   5.452 -0.3858 -0.9325  0.3451
  996TIP3    H224480   2.355   5.240   5.376 -0.9202 -0.6509 -0.2849
  997TIP3   OH224481   2.329   0.769  12.117 -0.0898  0.2563 -0.0105
  997TIP3    H124482   2.310   0.795  12.027  1.0415  0.8967 -0.0759
  997TIP3    H224483   2.391   0.835  12.149  0.9831 -1.0213  0.6072
  998TIP3   OH224484   5.687   4.089  13.605  0.1048 -0.1554 -0.3988
  998TIP3    H124485   5.642   4.156  13.554  0.8151  1.6311  1.2806
  998TIP3    H224486   5.618   4.052  13.661  0.1237  0.6253  0.1530
  999TIP3   OH224487   1.185   0.138   6.525 -0.0746 -0.5854 -0.1324
  999TIP3    H124488   1.177   0.232   6.535  1.6584 -0.4845  0.4739
  999TIP3    H224489   1.249   0.126   6.455 -1.3981 -1.3233 -1.2476
 1000TIP3   OH224490   0.010   1.607   0.263 -0.0478 -0.8656 -0.3439
 1000TIP3    H124491   0.020   1.650   0.179  3.0832 -0.6987  0.0504
 1000TIP3    H224492  -0.016   1.677   0.323  1.8205 -0.1249 -0.3639
 1001TIP3   OH224493   5.685   4.743   5.129 -0.2911 -0.0399  0.3084
 1001TIP3    H124494   5.694   4.649   5.148  0.7590 -0.2585 -1.1291
 1001TIP3    H224495   5.621   4.747   5.059 -1.5803  0.4708  1.5022
 1002TIP3   OH224496   6.197   5.876  12.134  0.3815  0.1470  0.3036
 1002TIP3    H124497   6.206   5.794  12.184  3.2090  1.1522  1.5471
 1002TIP3    H224498   6.160   5.849  12.050 -0.9318 -2.0808  1.5271
 1003TIP3   OH224499   0.172   3.591   3.786 -0.5293 -0.2230 -0.2649
 1003TIP3    H124500   0.189   3.683   3.767  0.3146 -0.2702  0.2672
 1003TIP3    H224501   0.080   3.590   3.815 -0.7886  0.3274 -1.0428
 1004TIP3   OH224502   2.346   2.611  16.326  0.5347  0.6186 -0.1418
 1004TIP3    H124503   2.264   2.659  16.319 -0.0845 -0.5010 -0.7068
 1004TIP3    H224504   2.372   2.595  16.235 -0.3765 -1.9514  0.0089
 1005TIP3   OH224505   2.848   3.003  13.086 -0.9590  0.5192  0.3075
 1005TIP3    H124506   2.886   2.924  13.125 -0.8774  0.5943  0.3818
 1005TIP3    H224507   2.835   2.981  12.994 -0.1924  0.6822  0.1496
 1006TIP3   OH224508   3.997   0.793   0.846 -0.0099  0.5969 -0.0269
 1006TIP3    H124509   3.990   0.724   0.780 -1.4087  1.0199 -0.3473
 1006TIP3    H224510   3.927   0.774   0.908 -1.0572  2.2579 -0.6578
 1007TIP3   OH224511   1.450   2.113   3.370  0.0333 -0.4250  0.2813
 1007TIP3    H124512   1.502   2.162   3.433  2.6056 -0.8988 -1.3664
 1007TIP3    H224513   1.507   2.041   3.343 -0.8279 -0.0210 -2.8456
 1008TIP3   OH224514   2.352   6.645  13.285  0.2811 -0.1592  0.1124
 1008TIP3    H124515   2.312   6.620  13.202  2.3552 -1.5451 -0.5113
 1008TIP3    H224516   2.359   6.740  13.282 -0.0886 -0.1658 -1.0846
 1009TIP3   OH224517   5.310   4.846   2.191 -0.5194 -0.4378  0.1141
 1009TIP3    H124518   5.244   4.819   2.126 -0.2609 -0.4689 -0.1374
 1009TIP3    H224519   5.266   4.913   2.243 -0.8974 -0.7681  0.2281
 1010TIP3   OH224520   4.899   1.222   4.456  0.5507 -0.6755 -0.0805
 1010TIP3    H124521   4.826   1.164   4.432 -0.0874  0.1695 -0.2452
 1010TIP3    H224522   4.937   1.183   4.535 -0.8354 -0.5047  0.6964
 1011TIP3   OH224523   2.974   0.387  15.545  0.1865 -0.4923  0.1778
 1011TIP3    H124524   2.916   0.318  15.579  0.9961 -2.3359 -2.0703
 1011TIP3    H224525   2.918   0.440  15.490  0.6218 -2.4958 -2.2952
 1012TIP3   OH224526   1.079   1.958   3.281 -0.0771 -0.1935 -0.0466
 1012TIP3    H124527   1.036   1.902   3.217 -0.3269  0.8188 -0.7723
 1012TIP3    H224528   1.099   2.038   3.233  1.2148 -0.0556  0.6984
 1013TIP3   OH224529   4.341   0.271   3.979 -0.1438 -0.4838 -0.3194
 1013TIP3    H124530   4.308   0.357   3.953 -0.4240 -0.4692  0.0758
 1013TIP3    H224531   4.334   0.218   3.900  0.5671  0.0148 -0.7237
 1014TIP3   OH224532   4.952   5.808  13.319  0.3466  0.0353 -0.1517
 1014TIP3    H124533   4.927   5.794  13.410  0.0424  0.5688 -0.1537
 1014TIP3    H224534   4.942   5.902  13.305 -0.8156 -0.2183 -1.0844
 1015TIP3   OH224535   3.357   6.134   3.660 -0.1465  0.3482  0.7119
 1015TIP3    H124536   3.292   6.107   3.725  1.4785 -1.3755  1.6389
 1015TIP3    H224537   3.429   6.170   3.711  1.3424 -1.4507 -0.0640
 1016TIP3   OH224538   1.176   0.242  13.035 -0.7711 -0.1364  0.0904
 1016TIP3    H124539   1.198   0.315  13.093  3.0668 -0.1371 -1.2302
 1016TIP3    H224540   1.080   0.241  13.033 -0.9310  2.3782  3.2040
 1017TIP3   OH224541   2.257   1.506   0.288 -0.2603 -0.0005  0.7827
 1017TIP3    H124542   2.178   1.465   0.325 -0.3395  1.0500  1.8156
 1017TIP3    H224543   2.239   1.512   0.194 -0.9511 -0.7939  0.8608
 1018TIP3   OH224544   0.964   6.745   5.778 -0.1677  0.4709  0.1837
 1018TIP3    H124545   0.923   6.729   5.862  0.0278  1.9067  0.5596
 1018TIP3    H224546   0.895   6.727   5.714 -0.6861  0.5830  0.7046
 1019TIP3   OH224547   4.398   6.270  14.496 -0.1331 -0.0978  0.1841
 1019TIP3    H124548   4.431   6.317  14.420  2.0810  1.6386  2.1496
 1019TIP3    H224549   4.457   6.195  14.506  0.1198  0.1693  0.7081
 1020TIP3   OH224550   2.777   1.389  17.222 -0.0545 -0.0640  0.0766
 1020TIP3    H124551   2.829   1.376  17.143  1.0551  0.7509  0.6618
 1020TIP3    H224552   2.814   1.327  17.286 -1.2229 -1.0252 -0.1567
 1021TIP3   OH224553   3.965   5.792  16.331  0.1358 -0.3744  0.0937
 1021TIP3    H124554   3.917   5.822  16.253  1.2764 -0.5988 -0.7087
 1021TIP3    H224555   4.032   5.859  16.344  1.1310 -1.2860 -0.2405
 1022TIP3   OH224556   0.427   5.082   6.096 -0.1222  0.1798 -0.3047
 1022TIP3    H124557   0.374   5.113   6.169 -0.0978 -1.3199  0.3583
 1022TIP3    H224558   0.441   4.989   6.114 -0.4631 -0.3113 -2.4216
 1023TIP3   OH224559   5.827   5.415   0.634  0.2239  0.1330 -0.1676
 1023TIP3    H124560   5.748   5.384   0.677  1.0612  0.5228  1.7435
 1023TIP3    H224561   5.800   5.493   0.586 -0.5534  0.2962  0.5266
 1024TIP3   OH224562   6.765   4.069   5.677  0.0874  0.3307 -0.1244
 1024TIP3    H124563   6.781   4.114   5.594 -1.2583 -1.1877 -1.2423
 1024TIP3    H224564   6.838   4.008   5.687  0.1534  0.3841 -0.2848
 1025TIP3   OH224565   0.401   3.144  14.662  0.7177 -0.1659  0.2163
 1025TIP3    H124566   0.446   3.209  14.716 -0.4193 -0.0240  0.9959
 1025TIP3    H224567   0.314   3.136  14.700  1.5022 -3.7505  1.5117
 1026TIP3   OH224568   5.834   3.433  15.038 -0.4777 -0.3202 -0.1471
 1026TIP3    H124569   5.800   3.449  15.126 -0.7940 -2.0217  0.0542
 1026TIP3    H224570   5.866   3.518  15.009 -0.0459  0.1902  1.7548
 1027TIP3   OH224571   4.334   6.011   5.383 -0.1853 -0.5041 -0.0884
 1027TIP3    H124572   4.415   5.960   5.377  0.7454  0.4686  3.2198
 1027TIP3    H224573   4.361   6.102   5.377 -1.0280 -0.1769  0.7580
 1028TIP3   OH224574   3.003   6.315   6.083 -0.1238 -0.4881 -0.4280
 1028TIP3    H124575   3.019   6.225   6.114 -1.5954 -0.5981  0.0246
 1028TIP3    H224576   2.957   6.357   6.155  0.2948  0.5508 -0.7620
 1029TIP3   OH224577   2.219   0.552  17.183 -0.0301 -0.1966 -0.7609
 1029TIP3    H124578   2.168   0.631  17.164 -1.2561 -1.1321 -1.3898
 1029TIP3    H224579   2.180   0.517  17.263 -0.7405 -1.2147 -1.5460
 1030TIP3   OH224580   3.456   4.753   4.898  0.4462  0.2161 -0.3983
 1030TIP3    H124581   3.485   4.693   4.829  1.9699  0.5142 -0.0298
 1030TIP3    H224582   3.518   4.826   4.895  0.6138  0.1834  1.3580
 1031TIP3   OH224583   0.757   0.190  13.813 -0.0840 -0.7309 -0.4838
 1031TIP3    H124584   0.725   0.169  13.901 -0.3543  0.6903 -0.2404
 1031TIP3    H224585   0.764   0.105  13.770 -1.0288 -1.3485  0.5430
 1032TIP3   OH224586   2.169   1.393  11.834  0.4272  1.0141 -0.0627
 1032TIP3    H124587   2.229   1.396  11.908  2.1202  0.7216 -1.3910
 1032TIP3    H224588   2.150   1.300  11.822 -2.3411  1.2648  1.9261
 1033TIP3   OH224589   4.522   0.291  14.191  0.0934 -0.3498  0.0937
 1033TIP3    H124590   4.458   0.267  14.257 -0.2494  1.0926  0.2978
 1033TIP3    H224591   4.473   0.290  14.109  0.1453 -0.5802  0.0636
 1034TIP3   OH224592   0.038   1.022   4.495  0.8018  0.4181 -0.5207
 1034TIP3    H124593   0.100   0.987   4.560  1.7113  0.0107 -1.6010
 1034TIP3    H224594   0.093   1.046   4.421 -0.1556  1.5671 -0.8601
 1035TIP3   OH224595   2.726   4.025  10.678 -0.2894  0.8050 -0.4609
 1035TIP3    H124596   2.692   4.046  10.591 -1.0712  0.8895 -0.1428
 1035TIP3    H224597   2.648   4.009  10.731  0.2179 -0.2727 -0.0320
 1036TIP3   OH224598   3.075   4.044  12.287  0.1030  0.4869  0.0139
 1036TIP3    H124599   3.166   4.065  12.268 -0.1304  0.5336 -1.0401
 1036TIP3    H224600   3.051   3.979  12.221 -0.6768  0.5818  0.2056
 1037TIP3   OH224601   4.973   3.878   2.621 -0.3693 -0.4041 -0.2148
 1037TIP3    H124602   4.973   3.870   2.717 -0.5449 -0.5956 -0.2301
 1037TIP3    H224603   4.891   3.837   2.594  1.5191 -3.9549 -0.7435
 1038TIP3   OH224604   2.341   4.587  13.651 -0.5327  0.2768  0.3679
 1038TIP3    H124605   2.290   4.585  13.570 -0.9803 -0.8180  0.6649
 1038TIP3    H224606   2.410   4.522  13.637  0.2347  1.0926  0.3285
 1039TIP3   OH224607   2.349   0.375   3.403  0.1215 -0.4420 -0.2936
 1039TIP3    H124608   2.318   0.403   3.317  1.1096 -0.3403 -0.6216
 1039TIP3    H224609   2.437   0.410   3.410 -0.8855  1.7948  1.8499
 1040TIP3   OH224610   1.049   1.054   3.463 -0.1224  0.6296 -0.2019
 1040TIP3    H124611   1.103   1.107   3.404 -1.7530  0.9256 -1.4796
 1040TIP3    H224612   1.037   0.971   3.416 -0.2404  0.3351  0.3494
 1041TIP3   OH224613   4.914   6.372  14.545 -0.3669 -0.2859 -0.4885
 1041TIP3    H124614   4.895   6.343  14.634  0.4752 -0.6553 -0.4267
 1041TIP3    H224615   5.001   6.337  14.527  0.3499  1.5921 -0.6840
 1042TIP3   OH224616   6.025   5.888   2.174  0.2188 -0.8249  0.1504
 1042TIP3    H124617   5.949   5.905   2.119  1.3216 -0.8054 -1.3880
 1042TIP3    H224618   6.002   5.807   2.221 -2.0011  0.8121  2.0504
 1043TIP3   OH224619   1.119   3.725   2.853  0.1515 -0.0601  0.3601
 1043TIP3    H124620   1.094   3.758   2.767 -1.5233 -0.4434  0.6706
 1043TIP3    H224621   1.209   3.754   2.865  0.1355  0.6807 -1.1791
 1044TIP3   OH224622   0.873   5.228  11.281 -0.1599  0.3559  0.7344
 1044TIP3    H124623   0.951   5.280  11.263 -0.0283 -0.1023 -0.0238
 1044TIP3    H224624   0.867   5.167  11.208 -0.7006 -0.2391  1.2674
 1045TIP3   OH224625   6.374   2.772   2.813  0.0990  0.4410  0.1798
 1045TIP3    H124626   6.402   2.690   2.773  0.7685  1.2157 -0.9491
 1045TIP3    H224627   6.282   2.780   2.791 -0.5994 -1.2170  2.3676
 1046TIP3   OH224628   1.175   5.446   0.525  0.0700 -0.2567  0.5717
 1046TIP3    H124629   1.237   5.431   0.454 -0.0704  0.1599  0.3578
 1046TIP3    H224630   1.226   5.431   0.605  0.1238 -1.1215  0.3830
 1047TIP3   OH224631   2.196   0.279   0.764  0.4102  0.2209  0.4824
 1047TIP3    H124632   2.184   0.357   0.709 -1.6313 -0.2343  0.2556
 1047TIP3    H224633   2.113   0.269   0.810 -0.1407 -3.0669 -1.1295
 1048TIP3   OH224634   6.548   4.828   1.826  0.0547 -0.3003  0.2800
 1048TIP3    H124635   6.506   4.766   1.887 -1.7378 -0.0295 -0.6553
 1048TIP3    H224636   6.637   4.838   1.860 -0.7576 -0.5598  2.5664
 1049TIP3   OH224637   4.407   4.803   3.359  0.5477  0.2033  0.0207
 1049TIP3    H124638   4.469   4.848   3.302  0.8495  1.1977  1.1112
 1049TIP3    H224639   4.323   4.846   3.342  0.3123 -0.5627 -0.8177
 1050TIP3   OH224640   2.273   3.982   0.559 -0.0648 -0.3916 -0.9068
 1050TIP3    H124641   2.199   4.043   0.556  0.4479  0.3105  0.3898
 1050TIP3    H224642   2.304   3.978   0.468 -0.6500  0.5903 -1.1643
 1051TIP3   OH224643   5.131   0.268  12.594  0.0035 -0.5626 -0.1938
 1051TIP3    H124644   5.167   0.291  12.508  0.3087  0.0228  0.0873
 1051TIP3    H224645   5.107   0.176  12.586 -0.6305 -0.3253 -1.1304
 1052TIP3   OH224646   4.197   0.483   0.748 -0.3210 -0.1175 -0.3148
 1052TIP3    H124647   4.154   0.463   0.664 -1.9992 -0.7280  0.6568
 1052TIP3    H224648   4.133   0.457   0.814  0.2982  1.9218  1.1485
 1053TIP3   OH224649   6.176   3.614  14.068 -0.3175 -0.4746 -0.3109
 1053TIP3    H124650   6.122   3.693  14.073 -0.0431 -0.2433 -0.9185
 1053TIP3    H224651   6.246   3.630  14.132 -0.5640 -0.4613 -0.0426
 1054TIP3   OH224652   6.236   3.309  12.409  0.1529  0.2946 -0.1367
 1054TIP3    H124653   6.306   3.353  12.361  1.3178 -0.1307  1.1338
 1054TIP3    H224654   6.195   3.378  12.461 -0.0460  0.4520 -0.5037
 1055TIP3   OH224655   4.172   0.654  11.582 -0.2654 -0.8628 -0.4708
 1055TIP3    H124656   4.184   0.680  11.491 -1.7726  1.1007 -0.1442
 1055TIP3    H224657   4.133   0.730  11.624 -0.1383 -1.9437  1.6982
 1056TIP3   OH224658   5.398   4.710  11.491 -0.6995 -0.1637 -0.4657
 1056TIP3    H124659   5.392   4.712  11.395  0.4564 -0.5437 -0.5476
 1056TIP3    H224660   5.467   4.772  11.512 -0.7271 -0.3246  0.1103
 1057TIP3   OH224661   1.907   3.168  16.080  0.5530  0.1637  0.7889
 1057TIP3    H124662   1.914   3.207  16.167  2.5471  0.5411  0.4809
 1057TIP3    H224663   1.975   3.101  16.077  1.7274  1.3976 -1.1130
 1058TIP3   OH224664   0.619   3.293  12.576  0.3060  0.0208 -0.4141
 1058TIP3    H124665   0.656   3.365  12.525  1.1954  0.1732  0.4301
 1058TIP3    H224666   0.583   3.233  12.510 -1.6605  1.8612 -1.0895
 1059TIP3   OH224667   5.016   1.952   3.225 -0.0868 -0.1651  0.1757
 1059TIP3    H124668   4.953   1.982   3.159  0.1304 -0.6406 -0.2522
 1059TIP3    H224669   4.963   1.923   3.298 -0.3841 -0.9443 -0.3412
 1060TIP3   OH224670   5.411   5.006  12.944 -0.0905 -0.8890 -0.0699
 1060TIP3    H124671   5.470   4.974  13.012 -0.0074  0.1337  0.3386
 1060TIP3    H224672   5.331   5.031  12.991 -0.1768 -0.5477 -0.3991
 1061TIP3   OH224673   5.023   1.152  13.752 -0.1581  0.8777 -0.2039
 1061TIP3    H124674   4.950   1.213  13.736  0.2975  1.6625  0.7175
 1061TIP3    H224675   4.996   1.103  13.829  0.3131  1.2047  0.1679
 1062TIP3   OH224676   5.260   6.318  16.672  0.3899  0.1388  0.3220
 1062TIP3    H124677   5.192   6.329  16.738  1.0934  1.9080  0.7775
 1062TIP3    H224678   5.313   6.245  16.704 -0.9487 -0.8736  0.2558
 1063TIP3   OH224679   1.522   4.979   4.162 -0.1258 -0.2357 -0.2186
 1063TIP3    H124680   1.572   5.045   4.210  1.0080 -0.3322 -1.2541
 1063TIP3    H224681   1.480   5.029   4.091 -3.7625  0.3623  2.2254
 1064TIP3   OH224682   2.351   3.867   4.551 -0.4710 -0.0340 -0.4874
 1064TIP3    H124683   2.323   3.884   4.461 -2.6556  1.0640  0.3450
 1064TIP3    H224684   2.363   3.954   4.589  3.4245 -0.4530 -0.5233
 1065TIP3   OH224685   5.585   5.921  16.078  0.2144  0.5646  0.1518
 1065TIP3    H124686   5.678   5.899  16.079  0.5377  1.6075 -2.3234
 1065TIP3    H224687   5.574   5.972  15.997 -2.7911 -0.8369 -0.3799
 1066TIP3   OH224688   2.651   2.803   4.235 -0.3677 -0.4334 -0.0695
 1066TIP3    H124689   2.716   2.803   4.305 -0.4395 -0.0009  0.0041
 1066TIP3    H224690   2.667   2.723   4.186  0.5553 -0.0703 -0.3661
 1067TIP3   OH224691   1.599   6.342   3.154  0.3425  1.6732  0.3728
 1067TIP3    H124692   1.657   6.322   3.080  1.5810 -0.0532  1.7823
 1067TIP3    H224693   1.652   6.324   3.232 -2.4370 -1.0880  1.7019
 1068TIP3   OH224694   4.845   3.631  11.541  0.0335 -0.2962 -0.2113
 1068TIP3    H124695   4.872   3.567  11.476  0.1523 -0.0790 -0.3757
 1068TIP3    H224696   4.773   3.680  11.499  0.0372 -0.2283 -0.1389
 1069TIP3   OH224697   6.324   4.163   5.492  0.1672 -0.3050  0.0146
 1069TIP3    H124698   6.255   4.141   5.429  0.7744 -1.0175 -0.4116
 1069TIP3    H224699   6.324   4.089   5.553 -0.5976  0.5070  1.0172
 1070TIP3   OH224700   0.043   4.942   2.620  0.3680 -0.5102  0.2644
 1070TIP3    H124701   0.055   4.867   2.678  1.2331  0.1685  0.9779
 1070TIP3    H224702   0.129   4.985   2.618 -0.0875  0.3894 -0.2293
 1071TIP3   OH224703   0.282   0.312  11.242  0.3533 -0.5602 -0.4341
 1071TIP3    H124704   0.338   0.365  11.186 -0.0589 -0.1415 -0.4616
 1071TIP3    H224705   0.269   0.230  11.195  0.9525 -0.6608 -0.4193
 1072TIP3   OH224706   6.284   5.436  12.075 -0.2004 -0.0573  0.0324
 1072TIP3    H124707   6.211   5.374  12.065 -0.0347 -0.2369 -0.0614
 1072TIP3    H224708   6.273   5.470  12.164  1.0272 -1.9190  0.9367
 1073TIP3   OH224709   3.865   0.496  12.560 -0.0584 -0.1742  0.9854
 1073TIP3    H124710   3.856   0.425  12.497 -0.3392  0.5301  0.2174
 1073TIP3    H224711   3.834   0.459  12.643 -0.0293 -0.9934  0.6363
 1074TIP3   OH224712   5.988   1.916  16.282 -0.5914  0.0998 -0.0121
 1074TIP3    H124713   6.014   1.849  16.345 -0.3517  1.5283  1.4381
 1074TIP3    H224714   6.015   1.882  16.197  0.9701 -0.9249  0.8868
 1075TIP3   OH224715   0.526   2.357  14.394 -0.1274 -0.1666  0.6046
 1075TIP3    H124716   0.579   2.435  14.383  0.4148 -0.6924 -0.6517
 1075TIP3    H224717   0.553   2.321  14.479  1.2629 -0.2354  0.1363
 1076TIP3   OH224718   5.231   5.485  14.692  0.8467 -0.1499  0.6764
 1076TIP3    H124719   5.245   5.533  14.610 -0.7209 -1.3887 -0.3379
 1076TIP3    H224720   5.256   5.395  14.672  0.0049 -0.5559  1.4104
 1077TIP3   OH224721   0.031   3.792  17.129  0.1663 -0.0322  0.2483
 1077TIP3    H124722  -0.039   3.776  17.192  0.6313  1.1594  1.0886
 1077TIP3    H224723   0.053   3.884  17.140  2.0404 -0.4472  0.1825
 1078TIP3   OH224724   0.740   3.793  16.373 -0.1798  0.3478  0.5613
 1078TIP3    H124725   0.815   3.782  16.432 -0.8956 -0.5482  1.3230
 1078TIP3    H224726   0.663   3.784  16.430 -0.8660  0.6418 -0.3153
 1079TIP3   OH224727   6.186   5.631  12.721 -0.4491 -0.1433 -0.0459
 1079TIP3    H124728   6.254   5.576  12.760  0.6671  1.2736  0.0738
 1079TIP3    H224729   6.205   5.719  12.754 -2.6258  0.2099  0.3460
 1080TIP3   OH224730   4.356   1.202   2.863  0.3238  0.2285  0.0762
 1080TIP3    H124731   4.334   1.202   2.770 -0.9337  1.6562  0.3620
 1080TIP3    H224732   4.446   1.232   2.867  0.1938  0.7056 -0.6335
 1081TIP3   OH224733   0.823   5.520  11.213  0.0547 -0.1900  0.1412
 1081TIP3    H124734   0.886   5.456  11.247 -0.0025  0.1100  0.8320
 1081TIP3    H224735   0.869   5.604  11.221 -0.5565  0.0700  0.9698
 1082TIP3   OH224736   2.024   1.464   3.150  0.3860  0.0824  0.1128
 1082TIP3    H124737   2.031   1.370   3.131 -2.4234 -0.3270  0.8963
 1082TIP3    H224738   2.022   1.505   3.064  1.0917 -0.6192 -0.2511
 1083TIP3   OH224739   6.649   6.402   4.261  0.3140  0.5098  0.0816
 1083TIP3    H124740   6.616   6.324   4.216  0.2470  0.5314  0.0936
 1083TIP3    H224741   6.685   6.457   4.191 -0.7360  1.0163 -0.0616
 1084TIP3   OH224742   4.943   6.800   0.011  0.3011  0.6627  0.1818
 1084TIP3    H124743   5.029   6.798   0.054 -0.7540 -2.2297  2.3075
 1084TIP3    H224744   4.893   6.864   0.062  0.0686 -0.3601  1.2534
 1085TIP3   OH224745   4.720   0.306   1.816  0.3837  0.2180 -0.0297
 1085TIP3    H124746   4.805   0.311   1.858  0.1692  0.2322  0.4071
 1085TIP3    H224747   4.657   0.321   1.887  0.0061 -0.2096 -0.2712
 1086TIP3   OH224748   5.580   4.281  15.974  0.0288 -0.7641 -0.3089
 1086TIP3    H124749   5.580   4.299  15.881 -0.1127  0.0962 -0.1426
 1086TIP3    H224750   5.507   4.332  16.009  0.4259 -0.6365  0.3546
 1087TIP3   OH224751   3.322   2.038  12.445 -0.3497 -0.4016  0.4783
 1087TIP3    H124752   3.272   2.119  12.437 -2.5666 -1.7051  0.7819
 1087TIP3    H224753   3.396   2.061  12.502 -0.2607  1.6923 -0.4416
 1088TIP3   OH224754   2.069   3.254   5.196 -0.3646 -0.6872 -0.1486
 1088TIP3    H124755   1.998   3.316   5.181 -0.9156 -0.8699  1.5673
 1088TIP3    H224756   2.148   3.301   5.171 -0.9598 -0.0099 -0.7812
 1089TIP3   OH224757   3.926   2.124   3.121 -0.2497  0.4042 -0.0497
 1089TIP3    H124758   3.862   2.189   3.092 -1.9993  0.3081  3.3384
 1089TIP3    H224759   3.892   2.041   3.088 -0.3245  0.7020 -0.7231
 1090TIP3   OH224760   2.494   1.982   2.323 -0.7333  0.1023  0.0570
 1090TIP3    H124761   2.578   1.957   2.285 -1.5237 -0.3347 -1.4298
 1090TIP3    H224762   2.484   1.925   2.399 -0.7262 -1.4406 -1.0750
 1091TIP3   OH224763   6.556   2.600  15.461 -0.1951 -0.7954  0.6201
 1091TIP3    H124764   6.523   2.576  15.547  1.1907  2.3075  2.0927
 1091TIP3    H224765   6.497   2.669  15.431  0.9824  0.1097  0.3458
 1092TIP3   OH224766   4.921   4.258   2.874 -0.0772  0.0791 -0.7375
 1092TIP3    H124767   4.942   4.198   2.945  0.9036  1.4709  0.1850
 1092TIP3    H224768   4.836   4.295   2.897  1.4895  2.6593  1.2605
 1093TIP3   OH224769   2.031   1.903  15.408  0.2470  0.3223 -0.3132
 1093TIP3    H124770   1.950   1.939  15.371  0.5682  1.9588  0.5147
 1093TIP3    H224771   2.100   1.959  15.373  0.7603  0.5250  0.9903
 1094TIP3   OH224772   4.160   6.735  11.919 -0.0946 -0.3764 -0.2754
 1094TIP3    H124773   4.208   6.657  11.892 -0.1639 -1.2414  2.0051
 1094TIP3    H224774   4.088   6.743  11.856  1.7312 -0.3173 -2.4080
 1095TIP3   OH224775   3.724   6.285   1.297 -0.1714  0.1049  0.4289
 1095TIP3    H124776   3.666   6.262   1.224  0.0931  1.8671 -0.3688
 1095TIP3    H224777   3.670   6.273   1.375 -1.2013  0.3914 -0.2142
 1096TIP3   OH224778   0.141   1.717  15.307  0.0338 -0.1505 -0.0907
 1096TIP3    H124779   0.211   1.653  15.319 -1.5906 -2.3463 -1.8067
 1096TIP3    H224780   0.087   1.709  15.386 -0.9485 -1.9813 -0.9153
 1097TIP3   OH224781   2.451   5.356  14.040  0.0481 -0.4568 -0.9602
 1097TIP3    H124782   2.544   5.341  14.024  0.2541 -0.6980  0.3883
 1097TIP3    H224783   2.416   5.386  13.956  1.6202  0.9373 -1.1442
 1098TIP3   OH224784   5.401   1.992  14.568  0.1749 -0.2538 -0.6196
 1098TIP3    H124785   5.413   1.931  14.641  0.6939 -0.5730 -0.9710
 1098TIP3    H224786   5.344   1.945  14.507 -1.5967  0.6424  0.3174
 1099TIP3   OH224787   6.387   5.469  12.587  0.4150  0.7606  0.3217
 1099TIP3    H124788   6.469   5.455  12.539 -0.0283  0.8518 -0.4862
 1099TIP3    H224789   6.379   5.392  12.644  0.6591  0.3478 -0.1950
 1100TIP3   OH224790   6.654   4.749  16.585 -0.1688  0.7160 -0.3647
 1100TIP3    H124791   6.560   4.735  16.579  0.0625 -0.9086 -0.5570
 1100TIP3    H224792   6.683   4.757  16.494 -0.0757  0.9233 -0.3176
 1101TIP3   OH224793   6.077   5.307   5.992  0.0585  0.3470 -0.3328
 1101TIP3    H124794   6.021   5.334   5.920  0.8273  2.6269 -0.1236
 1101TIP3    H224795   6.052   5.364   6.065  1.1264 -0.0870  0.3933
 1102TIP3   OH224796   6.471   4.010  15.590  0.4518  0.5826  0.1740
 1102TIP3    H124797   6.492   3.944  15.656 -0.4739  0.7262  0.6107
 1102TIP3    H224798   6.377   4.027  15.601  0.3102  0.6864 -1.0972
 1103TIP3   OH224799   0.289   1.554   3.712 -0.1540 -0.1008 -0.2605
 1103TIP3    H124800   0.303   1.648   3.696  0.3729  0.3283  2.5163
 1103TIP3    H224801   0.375   1.521   3.735 -0.3401 -1.3152 -1.2552
 1104TIP3   OH224802   3.361   5.370   1.850 -0.2336  0.1425  0.5253
 1104TIP3    H124803   3.351   5.312   1.925  0.1721  1.4669  1.6244
 1104TIP3    H224804   3.389   5.313   1.778 -3.8413 -1.6982  0.4675
 1105TIP3   OH224805   0.011   4.583   0.133  0.7359  0.5059  0.3711
 1105TIP3    H124806  -0.060   4.637   0.166  1.0233  1.3428 -0.3394
 1105TIP3    H224807   0.066   4.644   0.084  0.2500 -0.7128 -1.7488
 1106TIP3   OH224808   0.616   2.795  14.971 -0.4638 -0.1577 -0.0599
 1106TIP3    H124809   0.668   2.873  14.993 -0.5927 -0.3115  0.7903
 1106TIP3    H224810   0.543   2.829  14.920  0.4098  0.0771 -1.1882
 1107TIP3   OH224811   5.738   5.152   1.934  0.2922 -0.0629  0.1937
 1107TIP3    H124812   5.670   5.120   1.875  1.1367 -0.1661 -0.7287
 1107TIP3    H224813   5.813   5.094   1.918 -0.1888 -1.5886  3.0093
 1108TIP3   OH224814   0.530   0.400  15.051 -0.5297 -0.1405  0.4341
 1108TIP3    H124815   0.467   0.408  15.122 -1.3605  0.1768 -0.3310
 1108TIP3    H224816   0.491   0.449  14.978  0.9002  0.6045  0.1621
 1109TIP3   OH224817   0.610   0.200  16.727  0.3591  0.2507  0.0694
 1109TIP3    H124818   0.694   0.154  16.730 -0.6195 -1.5251  1.1337
 1109TIP3    H224819   0.574   0.180  16.641  0.6178  0.2675 -0.0419
 1110TIP3   OH224820   3.575   1.392   4.206 -0.3456 -0.2814  0.1597
 1110TIP3    H124821   3.608   1.304   4.190  0.1536  0.1291 -1.0995
 1110TIP3    H224822   3.649   1.438   4.247 -1.1348 -0.9038  2.3172
 1111TIP3   OH224823   0.245   1.165   1.232  0.3042 -0.0409 -0.2427
 1111TIP3    H124824   0.198   1.083   1.244  3.2274 -1.4277  2.5415
 1111TIP3    H224825   0.212   1.222   1.302  0.7060 -0.0278 -0.0619
 1112TIP3   OH224826   6.683   5.314  13.849 -0.0199  0.6355 -0.0404
 1112TIP3    H124827   6.757   5.347  13.900  0.5056 -0.3800 -0.1430
 1112TIP3    H224828   6.637   5.255  13.909 -1.0571  1.6539  0.1976
 1113TIP3   OH224829   4.398   0.548   0.919  0.1267 -0.0045  0.3485
 1113TIP3    H124830   4.450   0.470   0.902 -0.0886 -0.2628  0.8703
 1113TIP3    H224831   4.344   0.560   0.841  1.7227  0.8662 -0.6567
 1114TIP3   OH224832   1.208   6.275  16.490  0.2863 -0.3353 -0.1307
 1114TIP3    H124833   1.230   6.282  16.583 -0.4521  2.8681 -0.1468
 1114TIP3    H224834   1.116   6.302  16.485  1.0726  2.1025 -2.1050
 1115TIP3   OH224835   4.863   1.204  11.963 -0.3523  0.2635 -0.0698
 1115TIP3    H124836   4.908   1.159  12.034  0.2588  0.4030 -0.3683
 1115TIP3    H224837   4.933   1.243  11.911 -0.8636  1.2710 -0.0125
 1116TIP3   OH224838   0.084   0.845   5.736  0.8617 -0.5677 -0.1143
 1116TIP3    H124839   0.168   0.868   5.696 -0.1741  0.9371 -1.5210
 1116TIP3    H224840   0.062   0.921   5.790 -0.8556  0.2151 -1.8785
 1117TIP3   OH224841   2.061   1.514   5.792  0.1041 -0.4690 -0.6202
 1117TIP3    H124842   2.037   1.422   5.778  0.9482 -0.6217 -1.0821
 1117TIP3    H224843   2.073   1.549   5.704 -0.8716  0.2679 -0.4650
 1118TIP3   OH224844   3.075   0.213   2.671  0.0778  0.9135  0.1257
 1118TIP3    H124845   3.154   0.160   2.678 -1.1187 -1.4896 -3.1847
 1118TIP3    H224846   3.012   0.169   2.728 -0.0657  0.3764 -0.4343
 1119TIP3   OH224847   3.110   4.773   3.315  0.3224  0.2466  0.1254
 1119TIP3    H124848   3.046   4.727   3.260  0.9997 -1.1452  0.4617
 1119TIP3    H224849   3.179   4.708   3.329  1.0219  1.1988  1.1054
 1120TIP3   OH224850   0.651   2.539  15.119  0.2411 -0.8056  0.2586
 1120TIP3    H124851   0.623   2.577  15.202  0.5102  0.2343 -0.1207
 1120TIP3    H224852   0.649   2.612  15.057 -2.9192 -2.2009 -1.3802
 1121TIP3   OH224853   2.422   2.372  12.637  0.2925 -0.9549 -0.5580
 1121TIP3    H124854   2.459   2.426  12.707  2.5031 -1.1985 -1.4951
 1121TIP3    H224855   2.374   2.304  12.683 -2.2242  1.5393  0.6567
 1122TIP3   OH224856   0.610   2.318   3.138  0.3119  0.5713  0.5329
 1122TIP3    H124857   0.692   2.304   3.185  0.3860  1.3870  0.6596
 1122TIP3    H224858   0.542   2.301   3.204  0.3938  0.5541  0.6128
 1123TIP3   OH224859   0.883   5.935   0.081  0.8154 -0.2305  0.2978
 1123TIP3    H124860   0.960   5.979   0.115  0.2958 -1.7087  3.5733
 1123TIP3    H224861   0.913   5.848   0.057  0.5531 -0.1506 -0.3518
 1124TIP3   OH224862   0.348   1.121   1.683 -0.2043 -0.2554  0.1699
 1124TIP3    H124863   0.352   1.104   1.778  0.6863 -0.5218  0.0958
 1124TIP3    H224864   0.440   1.124   1.656 -0.4693 -1.3606 -0.8932
 1125TIP3   OH224865   3.603   3.864  15.963 -0.2354 -0.3772 -0.1375
 1125TIP3    H124866   3.526   3.864  15.907  0.5583 -0.9255 -1.2530
 1125TIP3    H224867   3.586   3.933  16.027 -0.3343  1.5583 -2.2036
 1126TIP3   OH224868   1.548   6.210  16.133  0.2844  0.2383 -0.3628
 1126TIP3    H124869   1.514   6.235  16.219  1.2303  0.4105 -0.0363
 1126TIP3    H224870   1.506   6.126  16.115 -2.2381  1.5943 -1.0723
 1127TIP3   OH224871   2.144   5.019   4.077  0.8826 -0.0832 -0.1169
 1127TIP3    H124872   2.050   5.009   4.060  1.1356 -1.0729 -1.0511
 1127TIP3    H224873   2.184   5.010   3.990  1.7951  0.9340  0.1974
 1128TIP3   OH224874   4.680   6.460   5.107  0.2308 -0.0553 -0.9106
 1128TIP3    H124875   4.738   6.523   5.150 -0.7477 -1.7622  3.1973
 1128TIP3    H224876   4.738   6.391   5.074  0.7712 -0.5127  0.9444
 1129TIP3   OH224877   2.167   2.299  13.823  0.3436  0.5221 -1.0114
 1129TIP3    H124878   2.122   2.384  13.821 -1.0313 -0.1343  0.5187
 1129TIP3    H224879   2.260   2.321  13.831 -0.1979  1.9520  2.7832
 1130TIP3   OH224880   5.103   2.706   3.211  0.4355 -0.3856 -0.2835
 1130TIP3    H124881   5.119   2.613   3.223 -0.6892 -0.6248 -0.5664
 1130TIP3    H224882   5.126   2.724   3.120  3.8227  0.3225  0.6278
 1131TIP3   OH224883   5.339   3.301   3.831  0.4511 -0.1501  0.3979
 1131TIP3    H124884   5.288   3.226   3.801 -1.6581  1.0625  0.8601
 1131TIP3    H224885   5.423   3.293   3.786 -0.6719 -1.3984 -1.5053
 1132TIP3   OH224886   4.861   4.944  12.681  0.2868  0.7122 -0.8531
 1132TIP3    H124887   4.820   4.944  12.768  1.8883 -0.5592 -0.0839
 1132TIP3    H224888   4.953   4.927  12.698  0.8851  1.9658 -2.7052
 1133TIP3   OH224889   1.484   5.892  13.347 -0.1929 -0.3851  0.1066
 1133TIP3    H124890   1.446   5.889  13.435 -0.6463 -2.1836 -0.1200
 1133TIP3    H224891   1.467   5.805  13.311  0.1633  0.2670 -1.6934
 1134TIP3   OH224892   5.160   4.500  14.688  0.1466  0.4882  0.6067
 1134TIP3    H124893   5.152   4.411  14.654  0.9585 -0.4650  2.8343
 1134TIP3    H224894   5.070   4.524  14.711 -0.1228  0.3804 -0.3149
 1135TIP3   OH224895   2.137   5.761  12.302 -1.0290 -0.1653  0.3832
 1135TIP3    H124896   2.102   5.835  12.351  0.8489  0.6227  0.5801
 1135TIP3    H224897   2.181   5.801  12.227  0.4028 -1.0441  0.7412
 1136TIP3   OH224898   6.528   5.777  14.764 -0.0010 -0.3403  0.0784
 1136TIP3    H124899   6.577   5.810  14.839 -1.7841  2.8914 -0.0682
 1136TIP3    H224900   6.523   5.852  14.704 -3.6457 -1.0609 -0.6265
 1137TIP3   OH224901   1.133   2.162   0.794  0.1995  0.0946 -0.2368
 1137TIP3    H124902   1.080   2.083   0.777  1.1860 -0.5315 -0.4448
 1137TIP3    H224903   1.081   2.212   0.856 -0.9329 -0.2111 -0.9271
 1138TIP3   OH224904   5.854   2.700  15.682 -0.3708  0.6737  0.0775
 1138TIP3    H124905   5.828   2.762  15.614  0.4533  1.4362  0.4601
 1138TIP3    H224906   5.786   2.708  15.749 -1.1055  0.0287 -0.5810
 1139TIP3   OH224907   5.405   6.748  16.572  0.4550  0.0780  0.4676
 1139TIP3    H124908   5.406   6.662  16.529  0.1562  0.6221 -0.6462
 1139TIP3    H224909   5.409   6.728  16.665 -2.7905 -1.2970  0.4005
 1140TIP3   OH224910   3.651   4.100   5.119 -0.4654 -0.2953  0.3315
 1140TIP3    H124911   3.683   4.126   5.206 -0.7472  0.3418  0.2447
 1140TIP3    H224912   3.585   4.033   5.138 -0.6518 -0.0348  0.6211
 1141TIP3   OH224913   5.416   6.175  12.020 -0.8767  0.0098  0.7544
 1141TIP3    H124914   5.411   6.171  11.924 -3.8756 -0.5555  0.8950
 1141TIP3    H224915   5.430   6.267  12.040 -0.2511  0.1344 -0.2120
 1142TIP3   OH224916   0.424   0.982  11.703  0.1177 -0.3050  0.4050
 1142TIP3    H124917   0.351   0.966  11.644  0.0356  0.1266  0.3895
 1142TIP3    H224918   0.384   1.019  11.782  0.2964 -0.2830  0.4869
 1143TIP3   OH224919   5.783   4.827   3.296 -0.5411 -0.2674  0.0509
 1143TIP3    H124920   5.707   4.793   3.344 -0.5587 -1.0603 -0.5236
 1143TIP3    H224921   5.828   4.883   3.360 -2.1043  0.9700  0.1044
 1144TIP3   OH224922   4.061   1.548   5.257  0.5327 -0.1281  0.0223
 1144TIP3    H124923   4.100   1.609   5.194 -2.1209  2.1752  0.4940
 1144TIP3    H224924   4.053   1.466   5.209 -0.5510  1.3233 -2.3863
 1145TIP3   OH224925   3.300   5.485  14.055 -0.6371  0.0411 -0.0291
 1145TIP3    H124926   3.206   5.471  14.052 -0.3588 -1.7589 -1.2294
 1145TIP3    H224927   3.316   5.553  13.988 -0.8876 -0.9267 -1.0889
 1146TIP3   OH224928   0.889   2.549   2.285  0.3767 -0.0630 -0.0876
 1146TIP3    H124929   0.909   2.464   2.246 -1.4682  0.1064 -1.4516
 1146TIP3    H224930   0.962   2.605   2.259  1.9014 -1.3617  1.3117
 1147TIP3   OH224931   1.202   6.542  14.429 -0.3148  0.2438  0.6355
 1147TIP3    H124932   1.256   6.565  14.506 -0.4417  0.2916  0.7103
 1147TIP3    H224933   1.169   6.626  14.398 -0.8498  0.1529  0.9602
 1148TIP3   OH224934   0.014   1.546  13.891  0.2953 -0.3542  0.2419
 1148TIP3    H124935  -0.018   1.636  13.882  0.4881 -0.4341 -1.3876
 1148TIP3    H224936  -0.017   1.518  13.977 -0.8303  0.8376  0.2425
 1149TIP3   OH224937   5.893   4.450  14.686  0.3977  0.0164 -0.1844
 1149TIP3    H124938   5.878   4.496  14.769  1.6813 -0.0058  0.0741
 1149TIP3    H224939   5.886   4.518  14.619 -1.0262 -0.0309 -0.1109
 1150TIP3   OH224940   3.709   6.748  15.636 -0.0646  0.1786 -0.1153
 1150TIP3    H124941   3.693   6.833  15.595 -0.0824 -0.6109 -1.8017
 1150TIP3    H224942   3.676   6.757  15.725 -2.4875  1.1257 -1.0704
 1151TIP3   OH224943   4.112   6.005   2.177 -0.0791  0.3268  0.1074
 1151TIP3    H124944   4.036   5.947   2.173 -1.4248  1.8641  1.9369
 1151TIP3    H224945   4.124   6.036   2.088  0.1678 -2.0960 -0.7309
 1152TIP3   OH224946   1.569   5.237  14.993 -0.2691  0.6328  0.0467
 1152TIP3    H124947   1.570   5.245  14.898  0.1834 -1.0701 -0.0945
 1152TIP3    H224948   1.545   5.325  15.024  1.8259  1.7848 -1.5399
 1153TIP3   OH224949   1.908   5.119  10.943  0.7583 -0.4322 -0.0890
 1153TIP3    H124950   1.995   5.114  10.981  1.0228  1.4847 -0.4119
 1153TIP3    H224951   1.922   5.107  10.849  0.7881  0.7534 -0.2431
 1154TIP3   OH224952   3.225   2.633  14.535  0.1320 -0.0831  0.7073
 1154TIP3    H124953   3.140   2.649  14.575 -0.4309  2.2437 -1.2534
 1154TIP3    H224954   3.279   2.706  14.564  1.3665 -1.3148  1.5871
 1155TIP3   OH224955   3.613   1.532  13.965  0.0950 -0.1668 -0.0700
 1155TIP3    H124956   3.643   1.603  13.909  1.5115 -0.2106  0.6106
 1155TIP3    H224957   3.570   1.575  14.039  0.1534 -0.0422 -0.1094
 1156TIP3   OH224958   4.101   0.899  13.351  0.1884 -0.0756 -0.4764
 1156TIP3    H124959   4.084   0.848  13.430  1.7881  0.3188  0.1356
 1156TIP3    H224960   4.022   0.888  13.298 -0.0127 -2.1071  0.2206
 1157TIP3   OH224961   2.882   6.502  12.983  0.4297  0.2196 -0.4256
 1157TIP3    H124962   2.902   6.435  13.048  1.0520  2.0224  1.2942
 1157TIP3    H224963   2.790   6.523  12.998  1.1654  2.2494  1.4404
 1158TIP3   OH224964   5.777   1.464  16.536 -0.3632 -0.3738  0.0574
 1158TIP3    H124965   5.841   1.393  16.535  0.6455  0.4829  1.5834
 1158TIP3    H224966   5.796   1.513  16.616 -1.6782  1.0459 -0.4574
 1159TIP3   OH224967   4.370   2.295   0.873 -0.2365 -0.0735 -0.3570
 1159TIP3    H124968   4.397   2.248   0.794  1.5532  2.0565 -1.0725
 1159TIP3    H224969   4.356   2.385   0.843 -0.7958  0.4971  1.5317
 1160TIP3   OH224970   2.884   2.172   1.732  0.0512 -0.0710  0.3762
 1160TIP3    H124971   2.933   2.253   1.747 -0.6437  0.0311  2.1971
 1160TIP3    H224972   2.879   2.165   1.636 -0.9532  2.6785  0.1906
 1161TIP3   OH224973   0.646   6.625   1.578 -0.1531 -0.0171 -0.3196
 1161TIP3    H124974   0.672   6.717   1.577  0.5341 -0.1444  2.4954
 1161TIP3    H224975   0.550   6.628   1.570 -0.1485  0.9309 -0.1556
 1162TIP3   OH224976   1.241   2.806  16.171  0.2079 -0.5174 -0.0493
 1162TIP3    H124977   1.173   2.842  16.114 -0.6678 -1.3010  0.4945
 1162TIP3    H224978   1.199   2.733  16.216  1.2227 -0.6089  0.7727
 1163TIP3   OH224979   1.668   6.184   5.961  0.1087 -0.5382 -0.2939
 1163TIP3    H124980   1.679   6.188   5.866  0.5672 -0.2916 -0.2336
 1163TIP3    H224981   1.744   6.231   5.995 -0.2985 -0.2261  0.1829
 1164TIP3   OH224982   5.497   5.458   1.600  0.0674 -0.4781 -0.2908
 1164TIP3    H124983   5.434   5.415   1.542 -1.8645  2.7065 -0.6561
 1164TIP3    H224984   5.453   5.458   1.686  0.5230 -0.2284 -0.0568
 1165TIP3   OH224985   0.753   0.192   3.459  0.2888 -0.0860 -0.1820
 1165TIP3    H124986   0.830   0.249   3.458  1.4685 -1.6568 -0.6503
 1165TIP3    H224987   0.679   0.252   3.444  1.6678  1.0707 -2.6184
 1166TIP3   OH224988   2.875   6.517  12.688 -0.5203 -0.6848 -0.1164
 1166TIP3    H124989   2.818   6.594  12.685  0.7943  0.4106  1.5880
 1166TIP3    H224990   2.896   6.507  12.781 -1.5113 -3.7508 -0.1816
 1167TIP3   OH224991   3.763   3.015   5.766 -0.0893 -0.6683 -0.4306
 1167TIP3    H124992   3.795   3.105   5.754  0.5506 -1.0761 -2.0539
 1167TIP3    H224993   3.700   3.020   5.838  0.6287  0.9106  0.1001
 1168TIP3   OH224994   1.311   2.910  13.187  0.4905  0.0419  1.1724
 1168TIP3    H124995   1.322   2.861  13.268 -1.9065 -2.6657 -0.0667
 1168TIP3    H224996   1.322   2.845  13.117  2.3328  2.2782 -0.7128
 1169TIP3   OH224997   3.466   3.715  14.771  0.4809 -0.1128 -0.4733
 1169TIP3    H124998   3.433   3.626  14.759 -1.6221  0.6661 -0.7720
 1169TIP3    H224999   3.427   3.743  14.854  3.1068 -0.3125  0.8690
 1170TIP3   OH225000   4.923   5.819   2.747  0.6274 -0.4757  0.6550
 1170TIP3    H125001   4.844   5.874   2.749 -0.2372 -1.7060  1.2852
 1170TIP3    H225002   4.980   5.860   2.682 -1.7186 -1.1545 -1.9476
 1171TIP3   OH225003   3.509   2.868   2.225 -0.4245 -1.1133 -0.0272
 1171TIP3    H125004   3.425   2.902   2.194 -0.2850 -1.1644 -0.4660
 1171TIP3    H225005   3.551   2.942   2.269 -0.0986 -0.6997 -1.0217
 1172TIP3   OH225006   4.342   1.358   3.628 -0.1168 -0.2890  0.8797
 1172TIP3    H125007   4.354   1.427   3.693  0.5936 -1.2392  1.7694
 1172TIP3    H225008   4.316   1.281   3.679  0.4555 -1.0410  0.0445
 1173TIP3   OH225009   1.329   0.705   2.694 -0.3550 -0.6257  0.5110
 1173TIP3    H125010   1.375   0.749   2.765  0.8557  1.2773 -1.4010
 1173TIP3    H225011   1.265   0.768   2.663  0.6035 -0.6041 -1.5013
 1174TIP3   OH225012   6.782   2.676  11.099  0.1273 -0.2290  0.2375
 1174TIP3    H125013   6.843   2.734  11.054  1.4444  0.2377  2.5351
 1174TIP3    H225014   6.818   2.588  11.086 -0.5183 -0.3121 -1.1360
 1175TIP3   OH225015   2.230   1.459   4.393 -0.8974 -0.1819  0.1212
 1175TIP3    H125016   2.326   1.465   4.400 -0.9319 -0.5512  0.9990
 1175TIP3    H225017   2.197   1.508   4.467 -1.4241  0.8497 -0.7791
 1176TIP3   OH225018   5.608   5.824  13.555  0.5866  0.0312 -0.5769
 1176TIP3    H125019   5.548   5.897  13.570  0.3595 -0.2421 -0.1598
 1176TIP3    H225020   5.564   5.769  13.490  2.1033  1.8432 -3.2352
 1177TIP3   OH225021   2.733   0.823   2.957 -0.3021 -0.2237  0.1414
 1177TIP3    H125022   2.744   0.877   2.879  0.9727 -0.3335  0.2393
 1177TIP3    H225023   2.639   0.829   2.977 -0.9934 -1.6430 -2.4386
 1178TIP3   OH225024   3.281   6.368   5.733 -0.5419 -0.2704 -0.6792
 1178TIP3    H125025   3.187   6.384   5.737 -0.8009 -1.7665 -0.7939
 1178TIP3    H225026   3.292   6.278   5.762  1.1013  0.6443  1.7143
 1179TIP3   OH225027   4.061   0.370   3.900  0.6748  0.3751 -0.5369
 1179TIP3    H125028   3.966   0.376   3.890  0.3787  0.2481  1.8420
 1179TIP3    H225029   4.077   0.277   3.917  1.1132  0.5567  0.0475
 1180TIP3   OH225030   4.347   0.353  11.155 -0.1678 -1.2574 -0.3919
 1180TIP3    H125031   4.394   0.388  11.079  0.2441 -0.3355  0.2755
 1180TIP3    H225032   4.261   0.330  11.121 -0.3170  0.0589 -0.9308
 1181TIP3   OH225033   2.357   4.761  14.413  0.0168  0.1007 -0.5516
 1181TIP3    H125034   2.265   4.760  14.438  0.2540 -0.2253  0.3486
 1181TIP3    H225035   2.361   4.817  14.336 -0.8288  0.6885 -0.1782
 1182TIP3   OH225036   4.037   1.233  11.145 -0.7185  0.1184  0.6471
 1182TIP3    H125037   4.073   1.220  11.057 -2.0216  0.1092  0.0963
 1182TIP3    H225038   4.113   1.228  11.203  0.6302  3.1763 -0.7146
 1183TIP3   OH225039   2.772   6.508   2.640 -0.0461 -0.0400 -0.2115
 1183TIP3    H125040   2.821   6.573   2.591  0.3207 -0.8399 -0.9207
 1183TIP3    H225041   2.778   6.428   2.587 -0.5549 -0.6292  0.6027
 1184TIP3   OH225042   4.695   2.097   6.589 -0.0850 -0.2836  0.2001
 1184TIP3    H125043   4.661   2.184   6.567  2.1324  0.5437 -0.1370
 1184TIP3    H225044   4.781   2.115   6.628 -0.2574 -2.2554  1.5050
 1185TIP3   OH225045   4.762   2.778   5.542 -0.1762 -0.3330 -0.0639
 1185TIP3    H125046   4.757   2.812   5.453  0.6845  0.7676  0.2933
 1185TIP3    H225047   4.855   2.783   5.565 -0.5524  0.5690  1.3425
 1186TIP3   OH225048   5.208   5.743   4.714  0.1079  0.6307 -0.1782
 1186TIP3    H125049   5.113   5.746   4.711  0.1705  1.4029 -1.9870
 1186TIP3    H225050   5.234   5.715   4.626  1.4938 -1.3899  0.8445
 1187TIP3   OH225051   6.018   4.759   0.476 -0.4006  0.0880 -0.2821
 1187TIP3    H125052   5.966   4.815   0.533 -2.9333 -1.0839 -1.4008
 1187TIP3    H225053   6.018   4.803   0.392 -1.1463 -0.8495 -0.7742
 1188TIP3   OH225054   4.166   3.915   4.977  0.1725  0.7034  0.1260
 1188TIP3    H125055   4.107   3.925   5.052 -0.9488  2.9742 -1.0090
 1188TIP3    H225056   4.208   4.001   4.967  0.5113  0.3569 -1.6690
 1189TIP3   OH225057   2.707   1.393   5.689 -0.3328  0.0503 -0.8298
 1189TIP3    H125058   2.731   1.334   5.617 -0.9729 -0.9268 -0.2597
 1189TIP3    H225059   2.771   1.463   5.685 -0.3389 -0.0103 -2.3381
 1190TIP3   OH225060   4.538   5.019  10.994  0.4070  0.4545 -0.1040
 1190TIP3    H125061   4.497   5.068  11.065  0.3425  1.7291 -1.0076
 1190TIP3    H225062   4.467   4.998  10.934  0.4140 -0.8673  0.3448
 1191TIP3   OH225063   6.770   0.638  15.425 -0.4455 -0.2218 -0.0196
 1191TIP3    H125064   6.790   0.698  15.496  0.1638 -1.1836  0.6285
 1191TIP3    H225065   6.792   0.551  15.459  0.3481 -0.6471 -1.5438
 1192TIP3   OH225066   6.123   5.176   5.672 -0.1159 -0.1165 -0.0982
 1192TIP3    H125067   6.066   5.187   5.748  0.8439 -0.5755  0.6916
 1192TIP3    H225068   6.195   5.238   5.686  0.0658 -0.2043 -0.6244
 1193TIP3   OH225069   0.240   2.039  17.055 -0.4844 -0.2028 -0.0174
 1193TIP3    H125070   0.322   1.996  17.080 -1.0692 -1.9307 -1.0161
 1193TIP3    H225071   0.172   1.991  17.102 -0.8658  1.9472  1.7238
 1194TIP3   OH225072   4.033   4.247  13.071 -0.1122 -0.0782  0.5827
 1194TIP3    H125073   4.061   4.330  13.032  1.4816 -0.1059  1.6440
 1194TIP3    H225074   4.078   4.181  13.019 -1.3647 -0.2957 -0.2473
 1195TIP3   OH225075   1.944   0.186   6.344  0.3012 -0.3392 -0.1108
 1195TIP3    H125076   1.974   0.110   6.395 -0.5765  0.2160  1.2626
 1195TIP3    H225077   1.943   0.258   6.407 -3.4910 -0.2433 -0.1791
 1196TIP3   OH225078   0.394   6.074  15.424 -0.3538  0.6087  0.9687
 1196TIP3    H125079   0.457   6.146  15.425 -1.0905  1.2888 -1.0651
 1196TIP3    H225080   0.433   6.009  15.366 -0.2281 -0.1604  1.9041
 1197TIP3   OH225081   1.521   3.506   5.632 -0.1298 -0.2678 -0.1455
 1197TIP3    H125082   1.466   3.525   5.708  1.5820 -0.5832  1.2231
 1197TIP3    H225083   1.610   3.525   5.663  0.6078 -0.6830 -1.9898
 1198TIP3   OH225084   3.473   4.658   0.867  0.1916 -0.2959 -0.5338
 1198TIP3    H125085   3.512   4.629   0.785  1.4319 -0.8050  0.2198
 1198TIP3    H225086   3.461   4.577   0.918 -0.1934  0.0565 -0.0513
 1199TIP3   OH225087   2.350   0.263  16.338 -0.8416  0.1260 -0.0685
 1199TIP3    H125088   2.394   0.240  16.256 -2.7662  0.6702 -1.2828
 1199TIP3    H225089   2.291   0.190  16.355 -2.5055  1.2961 -0.6942
 1200TIP3   OH225090   3.883   5.511   4.555 -0.4341  0.0045  0.4608
 1200TIP3    H125091   3.956   5.569   4.534  0.3157 -1.1727 -0.2810
 1200TIP3    H225092   3.914   5.461   4.631  0.2945 -1.7568 -0.9345
 1201TIP3   OH225093   4.866   6.750   3.607 -0.2363  0.1028  0.5464
 1201TIP3    H125094   4.893   6.830   3.652 -1.7909  0.2332  1.2627
 1201TIP3    H225095   4.929   6.740   3.536  0.9991  1.0259  1.4978
 1202TIP3   OH225096   1.788   5.269  11.467  0.1217  0.6269 -0.1691
 1202TIP3    H125097   1.752   5.283  11.380  0.9763 -0.8145 -0.7689
 1202TIP3    H225098   1.716   5.291  11.526 -1.5983 -1.6258 -1.3288
 1203TIP3   OH225099   3.355   5.108  13.905 -0.2232 -0.0311  0.4104
 1203TIP3    H125100   3.283   5.170  13.911 -0.3234  0.0371 -1.1152
 1203TIP3    H225101   3.350   5.075  13.815  1.4127 -0.2821  0.3935
 1204TIP3   OH225102   3.728   3.538  16.547  0.5452 -0.1800  0.0776
 1204TIP3    H125103   3.810   3.529  16.499  0.4208  0.8023 -0.3213
 1204TIP3    H225104   3.726   3.461  16.604  1.4080 -0.5719 -0.4036
 1205TIP3   OH225105   5.705   1.666   1.759  0.3523 -0.7299  0.2570
 1205TIP3    H125106   5.636   1.604   1.736  1.0663 -0.6501 -2.3206
 1205TIP3    H225107   5.762   1.619   1.820  0.3393 -2.2809 -0.8977
 1206TIP3   OH225108   1.454   3.080  14.041 -0.0719  0.3905 -0.1041
 1206TIP3    H125109   1.427   3.158  13.993 -2.4710 -1.3284 -1.6875
 1206TIP3    H225110   1.374   3.028  14.049  0.8595 -0.6417  3.4181
 1207TIP3   OH225111   3.653   1.572   4.852 -0.2061 -0.5925  0.1015
 1207TIP3    H125112   3.640   1.487   4.894  1.6802 -0.5797  0.7582
 1207TIP3    H225113   3.657   1.634   4.925  1.1921 -0.3265 -0.1837
 1208TIP3   OH225114   5.416   3.315  15.538 -0.4821  0.3516  0.1116
 1208TIP3    H125115   5.421   3.358  15.623 -2.0395  0.4210  0.1935
 1208TIP3    H225116   5.449   3.379  15.476  0.2830  0.4495  0.6193
 1209TIP3   OH225117   6.177   3.262   2.439 -0.0966 -0.0100  0.2199
 1209TIP3    H125118   6.083   3.251   2.432 -0.5549  1.2893  3.7467
 1209TIP3    H225119   6.202   3.212   2.516  2.1309 -0.2978 -0.6301
 1210TIP3   OH225120   5.972   4.833   5.125  0.0889  0.5806 -0.1927
 1210TIP3    H125121   5.963   4.902   5.191  0.1388  2.7489 -2.3735
 1210TIP3    H225122   5.888   4.786   5.128  0.7439 -0.5021  2.6014
 1211TIP3   OH225123   4.898   4.967  12.410 -0.8543  0.1294 -0.5824
 1211TIP3    H125124   4.881   4.959  12.504  1.5201  0.0131 -0.1181
 1211TIP3    H225125   4.823   4.926  12.368 -1.1920 -1.2380  1.3018
 1212TIP3   OH225126   4.332   6.639   2.791 -0.1405  0.8177 -0.1942
 1212TIP3    H125127   4.320   6.544   2.798  2.2592  0.4715 -0.3179
 1212TIP3    H225128   4.318   6.672   2.880 -2.9426  0.6074 -0.5392
 1213TIP3   OH225129   4.031   4.571  13.231  0.4566  0.6792  0.3035
 1213TIP3    H125130   4.066   4.653  13.266  1.3335 -0.4091  2.0416
 1213TIP3    H225131   4.073   4.562  13.145  2.4883  0.7115  1.2558
 1214TIP3   OH225132   4.864   5.102  11.612 -0.3729 -0.1179 -0.5556
 1214TIP3    H125133   4.816   5.033  11.567 -0.3940  0.2633 -1.1239
 1214TIP3    H225134   4.935   5.125  11.551 -0.6057  0.6385 -0.5489
 1215TIP3   OH225135   0.694   3.621   2.542 -0.5167 -0.4698 -0.0225
 1215TIP3    H125136   0.601   3.622   2.521 -0.0472  0.0768 -2.0903
 1215TIP3    H225137   0.727   3.706   2.513  0.7401 -0.8585  0.2245
 1216TIP3   OH225138   3.905   3.784  15.331 -0.1259 -0.2814 -0.0654
 1216TIP3    H125139   3.901   3.758  15.423 -1.3616 -1.7435 -0.5263
 1216TIP3    H225140   3.943   3.709  15.286  3.1530  1.4848 -0.3880
 1217TIP3   OH225141   5.173   6.794  15.405 -0.4936  0.3217 -0.1735
 1217TIP3    H125142   5.111   6.786  15.333  0.0994  0.3658 -0.6999
 1217TIP3    H225143   5.243   6.850  15.370 -1.1132  1.9270  1.0613
 1218TIP3   OH225144   1.158   3.009   6.803  0.8480 -0.2702 -0.1084
 1218TIP3    H125145   1.164   3.101   6.831  0.8537 -0.3999  0.3192
 1218TIP3    H225146   1.071   2.981   6.829  0.9873 -0.5012  0.1144
 1219TIP3   OH225147   2.221   5.610  14.631  0.4099 -0.1364 -0.4379
 1219TIP3    H125148   2.280   5.556  14.579  0.8469  1.3678 -1.5368
 1219TIP3    H225149   2.278   5.675  14.672  0.2201 -1.8826  2.7544
 1220TIP3   OH225150   3.343   4.999  10.984 -0.0772  0.1637  0.1846
 1220TIP3    H125151   3.342   5.033  10.895 -1.4304 -0.1862  0.0446
 1220TIP3    H225152   3.416   5.043  11.026  0.5540  0.3587 -1.0888
 1221TIP3   OH225153   0.803   5.120  16.562 -0.1524  0.6947  0.2053
 1221TIP3    H125154   0.735   5.082  16.618  0.7828 -0.5161  0.5379
 1221TIP3    H225155   0.808   5.060  16.487 -1.7622  2.5765 -1.4650
 1222TIP3   OH225156   6.460   6.128   4.284  0.6850  0.0689  0.1843
 1222TIP3    H125157   6.380   6.139   4.336  0.8909  0.3072  0.4553
 1222TIP3    H225158   6.429   6.118   4.194  0.3451  0.0890  0.2976
 1223TIP3   OH225159   3.614   2.843   0.278  0.3640 -0.4606 -1.0557
 1223TIP3    H125160   3.690   2.788   0.294  0.8412  0.0474 -1.5527
 1223TIP3    H225161   3.572   2.853   0.363  0.2563 -1.6138 -0.9656
 1224TIP3   OH225162   0.544   3.930  13.309  0.1192  0.3617  0.6403
 1224TIP3    H125163   0.532   4.025  13.313  0.6223  0.4700 -0.3969
 1224TIP3    H225164   0.637   3.918  13.292 -0.4086 -0.2572 -2.0050
 1225TIP3   OH225165   1.314   0.475  14.967  0.9004  0.5661  0.1590
 1225TIP3    H125166   1.236   0.530  14.968  0.1168 -0.5191 -0.4299
 1225TIP3    H225167   1.386   0.536  14.949  0.0562  1.4162 -0.3715
 1226TIP3   OH225168   5.492   4.053   2.106 -0.4853  0.3697 -0.6076
 1226TIP3    H125169   5.480   4.038   2.200  1.1735 -3.9103 -0.9634
 1226TIP3    H225170   5.407   4.033   2.068 -0.4806 -0.4449 -0.2156
 1227TIP3   OH225171   5.779   3.207  14.557  0.2486 -0.3212  0.1867
 1227TIP3    H125172   5.690   3.237  14.538  0.5177 -0.5324 -1.5623
 1227TIP3    H225173   5.768   3.125  14.605 -0.5292 -0.8192 -0.8134
 1228TIP3   OH225174   6.093   1.039   2.480 -0.1786  0.0735 -0.2892
 1228TIP3    H125175   6.075   1.119   2.529 -0.6190  0.6959 -1.4439
 1228TIP3    H225176   6.044   1.049   2.399  0.2900 -1.0764 -0.7284
 1229TIP3   OH225177   0.636   6.296  12.384 -0.2177  0.5752  0.3353
 1229TIP3    H125178   0.711   6.310  12.441 -0.2758 -0.3773  0.6426
 1229TIP3    H225179   0.587   6.225  12.424 -1.7913  1.7995  0.6333
 1230TIP3   OH225180   1.364   5.610   5.632 -0.0308  0.0949 -0.0239
 1230TIP3    H125181   1.344   5.649   5.717  2.0292  0.2722  0.4040
 1230TIP3    H225182   1.379   5.517   5.652  0.2035  0.0860 -0.2471
 1231TIP3   OH225183   5.204   1.075   4.210 -0.3660  0.4802  0.2308
 1231TIP3    H125184   5.155   1.018   4.269 -0.5358 -0.2532 -0.6166
 1231TIP3    H225185   5.296   1.051   4.223 -0.4840 -0.4586 -0.6088
 1232TIP3   OH225186   0.361   1.753  12.105  0.3866  0.4638 -0.2140
 1232TIP3    H125187   0.273   1.759  12.143  1.1491 -0.6005  1.7847
 1232TIP3    H225188   0.350   1.785  12.015 -1.6118  2.3600  0.6403
 1233TIP3   OH225189   4.949   5.443  16.044 -0.3979 -0.0136  0.8363
 1233TIP3    H125190   4.983   5.436  16.134 -0.7880  2.0998  1.1847
 1233TIP3    H225191   5.024   5.422  15.989 -0.2272 -1.6063  1.6530
 1234TIP3   OH225192   0.737   4.171  16.595 -0.1735  0.5898 -0.1680
 1234TIP3    H125193   0.777   4.256  16.613 -0.8107  0.8505  0.0384
 1234TIP3    H225194   0.699   4.144  16.679 -0.6103  0.4441 -0.4099
 1235TIP3   OH225195   0.764   3.984   1.043  0.6619 -0.2178 -0.0203
 1235TIP3    H125196   0.767   3.997   1.137 -0.0284 -0.9118  0.1026
 1235TIP3    H225197   0.854   3.963   1.019  0.4319 -2.3513  0.8413
 1236TIP3   OH225198   6.537   4.410  15.123 -0.1251 -0.0527  0.2156
 1236TIP3    H125199   6.606   4.354  15.089  0.3297 -0.6267  2.0040
 1236TIP3    H225200   6.506   4.365  15.202 -0.9144  1.3715  0.7455
 1237TIP3   OH225201   0.868   5.595  15.104  0.4745  0.6922 -0.3600
 1237TIP3    H125202   0.922   5.624  15.178 -0.3011  0.7001  0.2066
 1237TIP3    H225203   0.880   5.663  15.038  1.7781  0.2978 -0.5463
 1238TIP3   OH225204   1.038   0.638   4.459 -0.2475  0.6958  0.8346
 1238TIP3    H125205   0.995   0.629   4.544 -0.7794  1.6763  0.6775
 1238TIP3    H225206   1.000   0.717   4.421  0.2226  0.4459 -0.1793
 1239TIP3   OH225207   2.038   4.491  16.850  0.2952  0.0073  0.2784
 1239TIP3    H125208   2.006   4.422  16.791  0.9029 -2.3600  2.5878
 1239TIP3    H225209   2.116   4.525  16.808  1.6657 -2.7904  0.4141
 1240TIP3   OH225210   6.043   1.626  16.689 -0.0014  0.3240 -0.1796
 1240TIP3    H125211   6.012   1.567  16.758  1.0983  1.7791  1.6147
 1240TIP3    H225212   6.126   1.661  16.723  0.3788  1.3590 -2.0895
 1241TIP3   OH225213   5.274   1.352  17.095 -0.5259  0.1688 -0.0493
 1241TIP3    H125214   5.246   1.269  17.055  1.4196 -0.2667 -0.5370
 1241TIP3    H225215   5.211   1.416  17.063 -0.6508 -0.6893 -1.5718
 1242TIP3   OH225216   5.434   1.788   6.532  0.1316 -0.0681  0.1880
 1242TIP3    H125217   5.529   1.779   6.523  0.3479  1.1098  1.0299
 1242TIP3    H225218   5.416   1.879   6.507 -0.3241  0.6986  3.0318
 1243TIP3   OH225219   5.029   2.121   1.922  0.2551 -0.6306  0.0769
 1243TIP3    H125220   5.065   2.182   1.986 -0.1197  0.3046 -0.5953
 1243TIP3    H225221   5.103   2.064   1.899  0.2005 -1.4902  1.9116
 1244TIP3   OH225222   5.308   3.881   4.958 -0.8560  0.0174  0.3527
 1244TIP3    H125223   5.311   3.796   5.002  0.7787 -0.7426 -1.1738
 1244TIP3    H225224   5.398   3.899   4.933 -1.4265  1.4469 -0.7605
 1245TIP3   OH225225   6.436   1.717   4.973 -0.1828 -0.5164  0.5596
 1245TIP3    H125226   6.439   1.637   5.025 -2.1873 -0.0037  1.5291
 1245TIP3    H225227   6.436   1.788   5.038  2.4837  0.3331 -0.2987
 1246TIP3   OH225228   4.002   5.175  10.956 -0.3636  0.5260  0.1254
 1246TIP3    H125229   4.092   5.194  10.981  0.3965 -0.4914 -1.7731
 1246TIP3    H225230   3.980   5.244  10.893 -0.3922 -0.1106 -0.5614
 1247TIP3   OH225231   5.607   2.522   2.719 -0.2382  0.3030 -0.3687
 1247TIP3    H125232   5.664   2.468   2.774 -0.2043  2.1107  1.4135
 1247TIP3    H225233   5.520   2.512   2.757 -0.0336  2.4019  0.7335
 1248TIP3   OH225234   4.638   3.074   5.734 -0.1971 -0.3038  0.1812
 1248TIP3    H125235   4.607   2.997   5.782  1.5626 -0.8868  0.4254
 1248TIP3    H225236   4.679   3.128   5.801  0.3262 -0.0867 -0.3183
 1249TIP3   OH225237   3.181   2.130  15.736 -0.5017 -0.5933 -0.5267
 1249TIP3    H125238   3.264   2.091  15.709 -0.1058 -1.1483  1.4146
 1249TIP3    H225239   3.123   2.056  15.752 -1.0368 -0.2394 -0.8031
 1250TIP3   OH225240   0.770   6.415  15.787 -0.6203  0.2909  0.4347
 1250TIP3    H125241   0.717   6.477  15.738  1.0605  1.0628 -0.4473
 1250TIP3    H225242   0.762   6.333  15.739 -0.8261  0.4701  0.1637
 1251TIP3   OH225243   0.495   5.285   4.117 -0.3840 -0.0045  0.2107
 1251TIP3    H125244   0.460   5.198   4.101 -1.3602  0.4549 -0.1811
 1251TIP3    H225245   0.444   5.319   4.190  0.5810 -0.0893  0.9365
 1252TIP3   OH225246   5.507   2.759   3.027 -0.6100 -0.5760 -0.5381
 1252TIP3    H125247   5.558   2.837   3.051  0.0332 -1.0009 -0.5062
 1252TIP3    H225248   5.484   2.772   2.936 -2.2528  0.6110  0.0216
 1253TIP3   OH225249   3.126   1.081   1.621 -0.5111 -0.6746  0.1740
 1253TIP3    H125250   3.084   1.154   1.667  0.7159 -0.3006  0.7288
 1253TIP3    H225251   3.147   1.116   1.534 -0.6791 -0.6254  0.1533
 1254TIP3   OH225252   3.885   4.068  11.680  0.2835 -0.5476  0.3027
 1254TIP3    H125253   3.845   4.134  11.624 -0.1289 -0.4635  0.6901
 1254TIP3    H225254   3.885   3.988  11.627 -2.4318 -1.1057  1.0422
 1255TIP3   OH225255   5.154   4.806  10.917 -0.0745  0.1245 -0.1713
 1255TIP3    H125256   5.081   4.867  10.917  0.6508  0.9975 -0.7399
 1255TIP3    H225257   5.116   4.723  10.948 -1.4123  0.4162 -1.0025
 1256TIP3   OH225258   4.790   4.703   5.157  0.3505  0.4839  0.0464
 1256TIP3    H125259   4.835   4.741   5.233  1.9553  0.4373 -0.8600
 1256TIP3    H225260   4.836   4.621   5.140  0.7161  1.0394 -1.6643
 1257TIP3   OH225261   3.007   3.218  12.448 -0.1302 -0.3757  0.0732
 1257TIP3    H125262   2.922   3.253  12.422 -0.2752 -0.8529 -0.1044
 1257TIP3    H225263   3.061   3.296  12.464 -0.0871 -0.0679 -1.5014
 1258TIP3   OH225264   3.308   0.920  16.077  0.3919  0.4515  0.5493
 1258TIP3    H125265   3.370   0.902  16.006 -0.9913  0.9340 -0.8126
 1258TIP3    H225266   3.306   1.015  16.084 -0.3802  0.4461  0.4183
 1259TIP3   OH225267   1.616   0.619  13.536 -0.1909  0.9418  0.4375
 1259TIP3    H125268   1.664   0.644  13.615 -1.3533 -0.2580  1.5594
 1259TIP3    H225269   1.584   0.530  13.555 -0.7470  0.7712 -1.2590
 1260TIP3   OH225270   6.229   5.969   5.102  0.6892  0.0204 -0.2114
 1260TIP3    H125271   6.194   5.965   5.013 -0.4018  2.1740  0.1063
 1260TIP3    H225272   6.219   5.880   5.135 -0.3572 -0.4391 -1.6894
 1261TIP3   OH225273   0.969   6.493   4.289  0.2453 -0.2441 -0.2862
 1261TIP3    H125274   0.943   6.419   4.236  0.1195  0.9187 -1.8727
 1261TIP3    H225275   0.977   6.458   4.378  0.0099 -2.0894 -0.9889
 1262TIP3   OH225276   5.720   6.702  15.262 -0.5761  0.3708  0.1031
 1262TIP3    H125277   5.803   6.750  15.256  0.1610 -1.0964 -1.9066
 1262TIP3    H225278   5.744   6.617  15.300 -1.1834 -0.0100 -0.3680
 1263TIP3   OH225279   2.941   3.273  14.586 -0.4186 -0.4609  0.5475
 1263TIP3    H125280   2.928   3.347  14.646 -0.7183 -0.5096  0.5450
 1263TIP3    H225281   3.023   3.233  14.615 -0.7794 -0.7376  1.1977
 1264TIP3   OH225282   5.239   5.939   3.146  0.1675  0.0499  0.2360
 1264TIP3    H125283   5.231   5.852   3.106 -1.0659  1.4492 -2.7343
 1264TIP3    H225284   5.170   5.940   3.213 -1.2705 -0.5438 -1.1808
 1265TIP3   OH225285   6.643   3.581   4.199 -0.4985  0.3758 -0.0977
 1265TIP3    H125286   6.660   3.529   4.120 -0.1977  3.2069 -1.9942
 1265TIP3    H225287   6.723   3.575   4.250 -0.1189 -0.2276 -0.7576
 1266TIP3   OH225288   6.289   3.017   1.975  0.1639  0.5660 -0.3792
 1266TIP3    H125289   6.237   3.078   1.924  0.3387 -0.7673 -2.2244
 1266TIP3    H225290   6.261   3.031   2.066 -3.5393 -0.2243 -1.3125
 1267TIP3   OH225291   2.046   3.028   4.754 -0.1372 -0.5813  0.0289
 1267TIP3    H125292   2.063   3.111   4.711  0.8225 -1.3587 -1.1214
 1267TIP3    H225293   2.072   3.042   4.845 -1.8147  0.9475  0.3161
 1268TIP3   OH225294   2.990   2.992  14.213  0.1014 -0.1617  0.3317
 1268TIP3    H125295   2.971   2.955  14.127  2.4877  1.0247 -0.7591
 1268TIP3    H225296   2.963   2.924  14.274  0.1684 -1.8480 -1.4413
 1269TIP3   OH225297   3.504   6.543  12.883 -0.1128  0.0632 -0.1293
 1269TIP3    H125298   3.474   6.575  12.969 -0.8267  1.8753 -1.0233
 1269TIP3    H225299   3.435   6.571  12.823  1.2887  0.4498 -1.5718
 1270TIP3   OH225300   4.461   6.716  13.798  0.0263 -0.4678 -0.3812
 1270TIP3    H125301   4.380   6.765  13.784 -0.4486 -1.0887  0.1366
 1270TIP3    H225302   4.530   6.781  13.786 -0.5487  0.1053 -0.6839
 1271TIP3   OH225303   0.606   4.911   1.094 -0.0482  0.1082  0.5896
 1271TIP3    H125304   0.528   4.856   1.099  0.6889 -1.1103 -0.9134
 1271TIP3    H225305   0.625   4.935   1.185 -3.3248  2.1050  0.8495
 1272TIP3   OH225306   0.881   1.687  11.865 -0.2242  1.1173  0.5335
 1272TIP3    H125307   0.939   1.745  11.915 -0.8512  0.6612  1.8262
 1272TIP3    H225308   0.832   1.640  11.932 -0.8397  0.2327 -0.5306
 1273TIP3   OH225309   1.029   3.977   0.943 -0.2331 -0.1747  0.1682
 1273TIP3    H125310   1.095   3.908   0.934  0.8481  0.9674 -0.7564
 1273TIP3    H225311   1.074   4.045   0.993 -0.1147  1.3833 -2.0453
 1274TIP3   OH225312   4.023   6.308   0.826  0.3572  0.3182  0.0051
 1274TIP3    H125313   4.053   6.341   0.742  1.1012 -2.9066 -1.0542
 1274TIP3    H225314   4.063   6.366   0.891  2.6524  0.6969 -1.7069
 1275TIP3   OH225315   5.783   3.902   1.233  0.0086 -0.2719 -0.1921
 1275TIP3    H125316   5.810   3.820   1.191  0.9092 -1.3122  2.2766
 1275TIP3    H225317   5.692   3.886   1.258 -0.0581 -0.2267 -0.4068
 1276TIP3   OH225318   2.782   5.098  16.509 -0.6611 -0.4713 -0.1966
 1276TIP3    H125319   2.687   5.096  16.507 -0.6733 -0.8001  0.4327
 1276TIP3    H225320   2.806   5.034  16.576 -0.0260  0.1631  0.2016
 1277TIP3   OH225321   1.643   5.832   2.792 -0.6904  0.0969  0.1518
 1277TIP3    H125322   1.562   5.793   2.825 -1.4183  2.0146  0.7359
 1277TIP3    H225323   1.614   5.887   2.719  0.1346  0.4785  0.1129
 1278TIP3   OH225324   5.338   2.831   1.123 -0.5132 -0.8087  0.1267
 1278TIP3    H125325   5.259   2.788   1.090 -1.0758  0.4726 -0.2329
 1278TIP3    H225326   5.343   2.805   1.215 -2.4866  0.7041  0.6967
 1279TIP3   OH225327   2.099   2.487   6.178 -0.1308  0.7581  0.3266
 1279TIP3    H125328   2.104   2.434   6.258 -0.1948  2.2028  1.3154
 1279TIP3    H225329   2.011   2.525   6.180 -0.7537 -0.5338 -1.3217
 1280TIP3   OH225330   5.360   4.780  15.353  0.2175 -0.2554  0.0062
 1280TIP3    H125331   5.275   4.813  15.325  0.2733 -1.2420 -1.4012
 1280TIP3    H225332   5.376   4.705  15.295  0.7811 -1.7831  2.0755
 1281TIP3   OH225333   4.832   0.348   1.346 -0.2642  0.3880 -0.1994
 1281TIP3    H125334   4.897   0.280   1.362  1.0107  1.3750 -1.0570
 1281TIP3    H225335   4.751   0.300   1.329  0.1435 -0.8531  1.2180
 1282TIP3   OH225336   4.025   0.394  11.736 -0.8226 -0.1208 -0.5815
 1282TIP3    H125337   4.048   0.317  11.788 -0.7423  1.0580  1.2051
 1282TIP3    H225338   3.950   0.431  11.783 -0.7624  0.9616 -1.3363
 1283TIP3   OH225339   1.793   5.852  16.166  0.4380 -0.2175 -0.2355
 1283TIP3    H125340   1.808   5.813  16.080 -1.7804 -0.0910 -0.7065
 1283TIP3    H225341   1.828   5.941  16.159 -0.6891  0.1449 -1.3568
 1284TIP3   OH225342   6.009   4.364  11.069 -0.3780  0.3196  0.3281
 1284TIP3    H125343   6.032   4.377  11.161 -1.2078 -2.0371  0.9035
 1284TIP3    H225344   5.936   4.302  11.071 -2.1327  2.2163 -1.7867
 1285TIP3   OH225345   6.335   5.523   4.326 -0.2065  0.3712 -0.4155
 1285TIP3    H125346   6.429   5.544   4.326 -0.2305  0.5618  1.1095
 1285TIP3    H225347   6.312   5.515   4.234  1.6589 -1.2172 -0.7839
 1286TIP3   OH225348   3.632   2.360   6.176  0.1315 -0.3991  0.4270
 1286TIP3    H125349   3.550   2.335   6.134 -0.2099  0.0198  0.8228
 1286TIP3    H225350   3.692   2.289   6.157  0.3882  0.4017 -1.9114
 1287TIP3   OH225351   0.949   3.683  12.061 -0.5531 -0.9881  0.4711
 1287TIP3    H125352   0.952   3.669  11.966 -0.1427  1.4014  0.1063
 1287TIP3    H225353   0.863   3.650  12.087 -0.7748 -1.4155 -0.7645
 1288TIP3   OH225354   2.186   1.812  16.249  0.5455  0.1327  0.0893
 1288TIP3    H125355   2.110   1.775  16.203 -0.7179 -0.2372  2.4385
 1288TIP3    H225356   2.185   1.905  16.224 -0.6460  0.1206  0.0352
 1289TIP3   OH225357   4.493   2.639   2.018  0.3444  0.1722  0.2664
 1289TIP3    H125358   4.424   2.650   2.083  0.3929 -0.5246  0.4480
 1289TIP3    H225359   4.447   2.636   1.934  0.3192  1.4902  0.2338
 1290TIP3   OH225360   1.668   1.101  13.145 -0.5249 -0.3534  0.1410
 1290TIP3    H125361   1.620   1.099  13.229 -1.6838 -0.9781 -0.5210
 1290TIP3    H225362   1.722   1.022  13.147 -0.0180 -0.0008  0.5977
 1291TIP3   OH225363   0.449   2.197   2.130 -0.2197 -0.0225  0.4325
 1291TIP3    H125364   0.407   2.283   2.133 -2.3210 -1.0356  3.3535
 1291TIP3    H225365   0.392   2.145   2.073 -0.8738 -0.3867  1.4085
 1292TIP3   OH225366   2.331   2.221  13.277 -0.5101  0.0348  0.1247
 1292TIP3    H125367   2.244   2.188  13.300 -0.5271 -0.7536 -1.0650
 1292TIP3    H225368   2.314   2.299  13.224 -0.4954 -0.3152 -0.3958
 1293TIP3   OH225369   0.977   3.754  10.969 -0.9050 -0.3038 -0.6177
 1293TIP3    H125370   0.984   3.714  10.882 -0.7763 -2.7754  0.4813
 1293TIP3    H225371   1.025   3.694  11.026  0.1703  2.0006  0.9475
 1294TIP3   OH225372   1.787   2.254  14.338  0.1490 -0.4446 -0.0366
 1294TIP3    H125373   1.714   2.266  14.398  0.7953  0.1328  0.6338
 1294TIP3    H225374   1.766   2.311  14.263 -0.3195 -0.6514 -0.0661
 1295TIP3   OH225375   0.388   4.641  13.057 -0.3468  0.2522  0.0353
 1295TIP3    H125376   0.449   4.684  12.998  0.4294  1.2188  1.5208
 1295TIP3    H225377   0.306   4.690  13.047  0.1466  1.2117  0.7086
 1296TIP3   OH225378   4.119   6.237  13.461  0.0590  0.2782  0.3037
 1296TIP3    H125379   4.108   6.172  13.392 -1.7163  0.9886 -0.1250
 1296TIP3    H225380   4.044   6.295  13.451  0.2118  0.8781  2.3245
 1297TIP3   OH225381   0.347   0.429  15.866 -0.3180 -0.3852 -0.1095
 1297TIP3    H125382   0.296   0.484  15.925 -1.1839 -1.9942  0.6494
 1297TIP3    H225383   0.418   0.487  15.835 -1.1477  1.1137  0.7477
 1298TIP3   OH225384   4.403   1.482   0.652  0.1787 -0.0535 -0.0986
 1298TIP3    H125385   4.338   1.521   0.593  1.8635  0.0091 -1.9678
 1298TIP3    H225386   4.441   1.557   0.698 -2.4785 -0.2565  2.5454
 1299TIP3   OH225387   2.503   1.378  15.251  0.1650  0.5889  0.2696
 1299TIP3    H125388   2.598   1.368  15.262  0.1486 -0.6575 -0.6883
 1299TIP3    H225389   2.493   1.457  15.198  0.6011  1.4155  1.3804
 1300TIP3   OH225390   4.906   3.764  16.840  0.1472 -0.2227 -0.0633
 1300TIP3    H125391   4.981   3.807  16.801  0.2327  0.3225  0.6939
 1300TIP3    H225392   4.840   3.761  16.770  0.5333  0.1418 -0.4403
 1301TIP3   OH225393   2.237   3.944  10.561 -0.0569  0.2887 -0.3439
 1301TIP3    H125394   2.269   4.025  10.521  0.2505  0.0864 -0.5102
 1301TIP3    H225395   2.142   3.952  10.557 -0.0370  0.0726 -1.5448
 1302TIP3   OH225396   2.380   6.400   0.945  0.3397  0.0377  0.1413
 1302TIP3    H125397   2.390   6.346   0.867  1.5320  0.2946  0.1094
 1302TIP3    H225398   2.364   6.337   1.016  0.3666 -0.2613 -0.1182
 1303TIP3   OH225399   3.674   2.440  11.643 -0.4009 -0.2447  0.0040
 1303TIP3    H125400   3.682   2.488  11.726 -1.2160  0.5447 -0.3671
 1303TIP3    H225401   3.583   2.452  11.617  0.1165  0.4248 -1.5614
 1304TIP3   OH225402   5.797   1.671  15.864  0.3602 -0.0324  0.6203
 1304TIP3    H125403   5.871   1.640  15.915 -0.8715 -1.1902  1.7565
 1304TIP3    H225404   5.784   1.603  15.797  0.7742  0.5335 -0.0449
 1305TIP3   OH225405   3.990   6.588  16.593 -0.2409 -0.4005 -0.0058
 1305TIP3    H125406   3.911   6.589  16.540  0.4989 -0.3572 -1.1117
 1305TIP3    H225407   3.958   6.587  16.683 -1.5018 -0.8633 -0.4460
 1306TIP3   OH225408   0.136   2.554  13.181 -0.3577  0.3264  0.2096
 1306TIP3    H125409   0.124   2.597  13.097  0.8494  1.0069  0.3822
 1306TIP3    H225410   0.180   2.618  13.236 -2.2755  0.3707  1.7919
 1307TIP3   OH225411   5.641   1.802  16.536  1.0193  0.5342 -0.4211
 1307TIP3    H125412   5.609   1.892  16.540  0.9942  0.5136 -0.1186
 1307TIP3    H225413   5.589   1.760  16.467  0.7252  0.6309 -0.2562
 1308TIP3   OH225414   0.278   4.491  11.987  0.1411 -0.1675 -0.3061
 1308TIP3    H125415   0.193   4.536  11.983  0.3431  0.1428 -1.2679
 1308TIP3    H225416   0.308   4.506  12.077 -0.5318  0.2609 -0.1409
 1309TIP3   OH225417   3.968   2.552   5.225  0.3909 -0.2559 -0.1052
 1309TIP3    H125418   3.917   2.618   5.272 -0.1550 -0.8913  0.1964
 1309TIP3    H225419   3.975   2.479   5.286  1.1739 -0.4023 -0.3650
 1310TIP3   OH225420   6.335   4.511  13.328  0.0295  0.0835 -0.8377
 1310TIP3    H125421   6.350   4.474  13.415  1.1148  1.6950 -0.3144
 1310TIP3    H225422   6.397   4.465  13.272 -0.4214 -0.7059 -0.6894
 1311TIP3   OH225423   5.259   1.071  17.016 -0.4126 -0.7998  0.6760
 1311TIP3    H125424   5.217   1.016  16.950 -1.6077 -0.3447  1.0320
 1311TIP3    H225425   5.207   1.056  17.096  0.4039 -0.5937  1.2558
 1312TIP3   OH225426   2.747   6.121  15.031 -0.6232  0.1939 -0.3696
 1312TIP3    H125427   2.702   6.204  15.043 -0.9098 -0.1247  0.7735
 1312TIP3    H225428   2.684   6.055  15.059 -0.1926 -0.3771 -0.7364
 1313TIP3   OH225429   6.787   4.313   5.793 -0.2868  0.2872 -0.1116
 1313TIP3    H125430   6.756   4.392   5.750 -0.8547  0.4250  0.5380
 1313TIP3    H225431   6.751   4.241   5.741 -0.2440  0.4552 -0.3721
 1314TIP3   OH225432   4.761   5.363  11.258 -0.0428 -0.4502  0.5441
 1314TIP3    H125433   4.759   5.443  11.311  2.1564 -0.3767  0.5841
 1314TIP3    H225434   4.714   5.386  11.178  2.0183  1.4799 -0.1744
 1315TIP3   OH225435   1.002   5.050  13.488  0.3977 -0.2962 -0.0301
 1315TIP3    H125436   0.989   4.979  13.425  1.3087 -0.4645 -0.0372
 1315TIP3    H225437   1.093   5.078  13.474  0.1965  0.5425  0.3065
 1316TIP3   OH225438   3.379   2.553   4.872 -0.6987 -0.3539 -0.3439
 1316TIP3    H125439   3.418   2.595   4.795  1.3181 -1.1838  0.1782
 1316TIP3    H225440   3.294   2.597   4.883  0.1648  1.6776 -1.4062
 1317TIP3   OH225441   1.406   2.132   5.236 -0.2605 -0.2065 -0.3808
 1317TIP3    H125442   1.349   2.194   5.281  0.7390  0.4024  0.0855
 1317TIP3    H225443   1.490   2.179   5.228  0.0489 -0.9240 -1.4111
 1318TIP3   OH225444   5.390   1.228   5.326  0.2352  0.2859  0.2299
 1318TIP3    H125445   5.432   1.161   5.379  2.2941  0.3549 -1.2502
 1318TIP3    H225446   5.321   1.182   5.278  2.7117 -1.1548 -2.0386
 1319TIP3   OH225447   2.086   4.802  13.246  0.3191  0.1196  0.4122
 1319TIP3    H125448   2.054   4.864  13.311 -2.2885 -1.4462  0.7051
 1319TIP3    H225449   2.124   4.856  13.177 -0.6625  1.9699  1.2920
 1320TIP3   OH225450   5.794   6.126   1.418 -0.3204  0.4537  0.1663
 1320TIP3    H125451   5.700   6.124   1.398 -0.3890  1.7133  0.3574
 1320TIP3    H225452   5.821   6.034   1.415 -1.6000  0.0657  0.2907
 1321TIP3   OH225453   0.117   2.572  10.810 -0.4276  0.4355  0.1931
 1321TIP3    H125454   0.207   2.594  10.834  0.1205  0.0315 -1.4575
 1321TIP3    H225455   0.084   2.523  10.885  1.3662 -1.1164  0.0026
 1322TIP3   OH225456   2.740   5.187  11.195  0.2760 -0.1736  0.3057
 1322TIP3    H125457   2.760   5.271  11.153 -1.0571  0.3773  0.7419
 1322TIP3    H225458   2.663   5.155  11.148 -0.7269  0.0511  1.7950
 1323TIP3   OH225459   4.440   5.402   0.788 -0.3424 -0.6737  0.0150
 1323TIP3    H125460   4.426   5.442   0.703 -0.0353 -2.1214 -0.7290
 1323TIP3    H225461   4.466   5.475   0.845  0.8325  0.0888 -1.4618
 1324TIP3   OH225462   0.889   2.003  11.828 -0.1980  0.4381 -0.2802
 1324TIP3    H125463   0.846   2.065  11.886  0.4168  0.0936  0.5467
 1324TIP3    H225464   0.979   1.998  11.860  0.5652  1.4069 -2.1817
 1325TIP3   OH225465   1.178   0.793   2.074  0.0047 -0.4617  0.1673
 1325TIP3    H125466   1.197   0.887   2.065  0.6550 -0.7070 -1.1749
 1325TIP3    H225467   1.082   0.787   2.070  0.0578 -0.1860 -3.6729
 1326TIP3   OH225468   6.180   4.607  13.021 -0.2187 -0.1844  0.2647
 1326TIP3    H125469   6.223   4.629  12.939 -0.8180  1.2304  0.3240
 1326TIP3    H225470   6.244   4.627  13.088  0.0693 -0.8213  0.1878
 1327TIP3   OH225471   0.469   1.316  14.088  0.2874 -0.3333 -0.3208
 1327TIP3    H125472   0.443   1.251  14.153 -3.0248  0.6390 -0.5561
 1327TIP3    H225473   0.444   1.400  14.128  0.7040  0.4673 -1.7146
 1328TIP3   OH225474   3.328   1.914   5.879 -0.3465  0.2836  0.1463
 1328TIP3    H125475   3.361   1.976   5.944 -3.0817  1.8598  0.1429
 1328TIP3    H225476   3.264   1.964   5.828 -1.7681 -2.1996 -0.6403
 1329TIP3   OH225477   1.682   4.000  11.532 -0.0853  0.2953 -0.0802
 1329TIP3    H125478   1.761   4.054  11.538  0.2161 -0.2936  1.2993
 1329TIP3    H225479   1.676   3.977  11.439  1.3204  0.3956 -0.2005
 1330TIP3   OH225480   1.328   2.794   3.608  0.0912  0.1725 -0.6630
 1330TIP3    H125481   1.260   2.857   3.632  1.0939  0.8936  0.3019
 1330TIP3    H225482   1.390   2.796   3.681  0.9395 -0.7941 -1.3407
 1331TIP3   OH225483   0.789   1.649  13.621  0.2277  0.0317  0.1380
 1331TIP3    H125484   0.704   1.676  13.655 -0.2492 -1.6441  0.3093
 1331TIP3    H225485   0.783   1.666  13.527 -0.9492 -1.6707 -0.1245
 1332TIP3   OH225486   5.649   3.639   0.684  0.2577 -0.5895 -0.2385
 1332TIP3    H125487   5.745   3.635   0.689  0.5228  1.1372 -2.6657
 1332TIP3    H225488   5.629   3.604   0.597 -1.3356 -1.0686  0.3162
 1333TIP3   OH225489   2.667   1.146  16.059  0.3305 -0.9849 -0.9074
 1333TIP3    H125490   2.660   1.151  16.155 -0.1414 -1.9893 -0.8900
 1333TIP3    H225491   2.761   1.160  16.042  0.0283  1.8725 -0.4868
 1334TIP3   OH225492   0.186   2.029  15.034  0.5127  0.6753  0.4927
 1334TIP3    H125493   0.138   1.973  14.973 -1.3071 -0.1816  2.6429
 1334TIP3    H225494   0.158   1.999  15.121  2.1236  2.6667  1.7397
 1335TIP3   OH225495   4.217   4.909  12.195 -0.0608  0.2229 -0.7462
 1335TIP3    H125496   4.307   4.881  12.212  0.8405  2.5243 -1.4990
 1335TIP3    H225497   4.211   4.913  12.100 -1.9862 -2.9948 -0.8152
 1336TIP3   OH225498   5.480   1.668   1.542 -0.0911  0.3878  0.3392
 1336TIP3    H125499   5.448   1.739   1.598  0.3309  0.1945  0.8334
 1336TIP3    H225500   5.504   1.711   1.460 -1.8223  0.5032 -0.1305
 1337TIP3   OH225501   0.008   3.103  12.630 -0.7054 -0.3331 -0.0644
 1337TIP3    H125502  -0.018   3.022  12.675  0.6366 -0.6265  0.1818
 1337TIP3    H225503   0.032   3.074  12.542 -0.7238 -0.1211 -0.1398
 1338TIP3   OH225504   3.596   6.291  16.268 -0.0960  0.1573  0.2349
 1338TIP3    H125505   3.596   6.211  16.321 -0.1053 -0.0541 -0.0885
 1338TIP3    H225506   3.503   6.308  16.250 -0.0151 -0.4694 -0.7779
 1339TIP3   OH225507   2.562   2.357  11.639  0.2975 -0.3186 -0.2939
 1339TIP3    H125508   2.478   2.313  11.627  0.4244 -0.3166 -1.2666
 1339TIP3    H225509   2.617   2.322  11.569  0.9985 -0.0595  0.1259
 1340TIP3   OH225510   3.234   4.324   1.503  0.0111 -0.6924  0.0653
 1340TIP3    H125511   3.267   4.414   1.500 -2.8911  0.6620  3.8856
 1340TIP3    H225512   3.168   4.320   1.435 -0.1392  0.2308  0.1464
 1341TIP3   OH225513   6.351   6.381  14.633 -0.2273 -0.1139 -0.1772
 1341TIP3    H125514   6.364   6.420  14.546  2.6675 -0.7641 -0.0876
 1341TIP3    H225515   6.301   6.447  14.681 -0.4121  0.9898 -1.8236
 1342TIP3   OH225516   6.795   3.261  15.126  0.2700  0.3018 -0.0064
 1342TIP3    H125517   6.827   3.182  15.083  0.1685  1.2390 -1.8429
 1342TIP3    H225518   6.854   3.273  15.201  1.3746 -0.5356 -0.7231
 1343TIP3   OH225519   3.375   5.690  13.882  0.4039  0.3454 -0.5561
 1343TIP3    H125520   3.455   5.690  13.829  1.3329 -2.7471  0.6907
 1343TIP3    H225521   3.401   5.730  13.964  0.0894  1.3027 -0.9215
 1344TIP3   OH225522   3.124   2.758   6.310  0.3036  0.9243  0.2008
 1344TIP3    H125523   3.156   2.848   6.305 -0.7738  1.3072  0.0563
 1344TIP3    H225524   3.046   2.764   6.366  0.5253 -0.0009  0.6068
 1345TIP3   OH225525   0.568   1.466  14.918  0.1216 -0.0789 -0.0178
 1345TIP3    H125526   0.535   1.376  14.916 -1.8382  0.6348 -1.9487
 1345TIP3    H225527   0.518   1.509  14.987 -0.7136  0.1625 -0.7680
 1346TIP3   OH225528   0.449   0.469  11.061 -0.4035  0.0891  0.1830
 1346TIP3    H125529   0.508   0.422  11.001 -0.8351  0.6248 -0.6626
 1346TIP3    H225530   0.499   0.546  11.088 -1.1592  1.2132 -1.5209
 1347TIP3   OH225531   3.734   3.113   0.561  0.2356 -0.1692  0.5121
 1347TIP3    H125532   3.664   3.179   0.569 -0.1790 -0.6178  0.6001
 1347TIP3    H225533   3.713   3.048   0.628  1.6273  0.4915  1.6259
 1348TIP3   OH225534   0.476   1.657  17.046 -0.0970 -0.3132  0.5357
 1348TIP3    H125535   0.407   1.673  16.981 -0.1269  0.9615  0.8672
 1348TIP3    H225536   0.441   1.694  17.127  1.5811  1.6992  0.3691
 1349TIP3   OH225537   4.561   4.815  16.876  0.9598  0.5425  0.3253
 1349TIP3    H125538   4.488   4.874  16.894  1.4461  1.6003 -1.0999
 1349TIP3    H225539   4.545   4.740  16.933 -1.7447  0.3220 -0.6657
 1350TIP3   OH225540   2.455   2.234  10.871 -0.3129  0.3937  0.2829
 1350TIP3    H125541   2.503   2.163  10.829 -1.0787  0.3669 -0.5627
 1350TIP3    H225542   2.522   2.285  10.917  0.3320 -0.4335  0.2580
 1351TIP3   OH225543   0.680   5.261   5.089 -0.0549 -0.1988  0.5843
 1351TIP3    H125544   0.711   5.346   5.121 -1.7241  0.4332  0.5610
 1351TIP3    H225545   0.625   5.228   5.160 -2.4274  0.4487 -0.8992
 1352TIP3   OH225546   2.070   0.041  11.070 -0.4179  0.1282 -0.6619
 1352TIP3    H125547   2.062  -0.054  11.065 -0.4127  0.1734 -1.8032
 1352TIP3    H225548   1.980   0.073  11.067 -0.4409  0.1399  0.1965
 1353TIP3   OH225549   3.778   0.104  10.878 -0.4243  0.1195  0.0150
 1353TIP3    H125550   3.684   0.112  10.861 -0.0995  0.5625 -1.7865
 1353TIP3    H225551   3.810   0.194  10.874 -0.1556  0.1354  2.2046
 1354TIP3   OH225552   3.513   3.011  13.387  0.2459 -0.3685  0.7982
 1354TIP3    H125553   3.423   2.988  13.410 -0.1292 -0.4591 -0.7231
 1354TIP3    H225554   3.556   2.927  13.374  0.2145 -0.3005  0.2603
 1355TIP3   OH225555   6.156   1.148   1.282 -0.1407 -0.2467  0.2897
 1355TIP3    H125556   6.140   1.060   1.248  0.3240 -0.5295  0.7900
 1355TIP3    H225557   6.092   1.203   1.238  0.5629 -0.5770 -1.1818
 1356TIP3   OH225558   2.420   1.204  15.686  0.1580  0.2794  0.4787
 1356TIP3    H125559   2.337   1.252  15.686 -0.1885 -0.2602  2.5854
 1356TIP3    H225560   2.483   1.266  15.647 -0.7826  1.5216  0.8832
 1357TIP3   OH225561   4.662   1.374  15.177 -0.7255 -0.2465  0.1474
 1357TIP3    H125562   4.568   1.369  15.196 -1.1072  1.2998 -1.1701
 1357TIP3    H225563   4.674   1.316  15.102 -0.7466 -0.0026 -0.0462
 1358TIP3   OH225564   5.688   5.685  12.438 -0.8624  0.2516  0.4440
 1358TIP3    H125565   5.727   5.772  12.443  0.1944 -0.2070  0.4030
 1358TIP3    H225566   5.722   5.648  12.356  0.5297 -1.0478  1.5791
 1359TIP3   OH225567   1.729   2.375   2.912 -0.0191 -0.4122  0.3985
 1359TIP3    H125568   1.683   2.296   2.940 -0.2977  0.4991  2.6552
 1359TIP3    H225569   1.696   2.444   2.970  2.1335  0.8231  0.2237
 1360TIP3   OH225570   6.146   6.110   3.242  0.0912  0.5024 -0.1849
 1360TIP3    H125571   6.061   6.149   3.262 -0.0135  0.7803 -1.1702
 1360TIP3    H225572   6.209   6.160   3.295 -0.4895 -0.5350  1.5334
 1361TIP3   OH225573   3.498   5.324  13.480 -0.1093  0.1953  0.2536
 1361TIP3    H125574   3.472   5.414  13.462  1.6835  0.9673  1.3607
 1361TIP3    H225575   3.492   5.317  13.576 -1.2127 -1.1828  0.0938
 1362TIP3   OH225576   1.179   0.602   1.577  0.5078 -0.5614  0.5072
 1362TIP3    H125577   1.180   0.683   1.526  0.6210 -0.9343 -0.0907
 1362TIP3    H225578   1.182   0.630   1.668  0.5480  0.1056  0.2983
 1363TIP3   OH225579   4.752   1.536   5.825  0.3282  0.4840 -0.3501
 1363TIP3    H125580   4.694   1.581   5.886 -0.9756 -1.5551 -0.0275
 1363TIP3    H225581   4.836   1.531   5.870 -0.2450  0.2465  0.7063
 1364TIP3   OH225582   6.575   1.588   5.745  0.0962  0.6726  0.7618
 1364TIP3    H125583   6.557   1.619   5.834 -3.2913 -0.2999  0.4645
 1364TIP3    H225584   6.581   1.668   5.693  2.9534  1.2966  1.9379
 1365TIP3   OH225585   6.029   2.583   0.318  0.4140  0.2552  0.0435
 1365TIP3    H125586   5.936   2.591   0.298  0.3361 -0.4077  0.1365
 1365TIP3    H225587   6.072   2.575   0.233  0.2366 -0.9569  0.0580
 1366TIP3   OH225588   2.395   2.918   5.455  0.1332  0.1110  0.5607
 1366TIP3    H125589   2.410   2.827   5.427 -0.1958  0.5370 -1.1017
 1366TIP3    H225590   2.476   2.944   5.498  0.4967 -0.7436  0.4046
 1367TIP3   OH225591   2.287   6.532  13.012 -0.1750  0.1255  0.7312
 1367TIP3    H125592   2.208   6.578  12.984 -0.5028 -0.7378  0.2367
 1367TIP3    H225593   2.259   6.442  13.027  0.8509 -0.3353 -0.0780
 1368TIP3   OH225594   3.366   6.307  12.945 -0.0835  0.8327  0.1527
 1368TIP3    H125595   3.438   6.360  12.912  1.1024 -1.7044 -1.4858
 1368TIP3    H225596   3.305   6.301  12.872  0.4088 -1.0520 -0.1567
 1369TIP3   OH225597   3.602   3.412   2.280  0.1354 -0.0695 -0.6310
 1369TIP3    H125598   3.661   3.392   2.352  0.1205 -3.0015 -1.3664
 1369TIP3    H225599   3.658   3.453   2.214  0.3760  1.5441  0.5480
 1370TIP3   OH225600   1.535   3.732   4.756 -0.5312  0.0272  0.2104
 1370TIP3    H125601   1.554   3.820   4.786  0.0481  0.1940 -0.6385
 1370TIP3    H225602   1.457   3.706   4.806 -1.4751  1.5005 -0.4608
 1371TIP3   OH225603   3.596   5.182  14.739  0.1707 -0.5292 -0.2459
 1371TIP3    H125604   3.594   5.251  14.672  1.5205 -0.4190 -0.1871
 1371TIP3    H225605   3.689   5.173  14.762 -0.2166 -0.9491  1.2197
 1372TIP3   OH225606   5.470   4.655   4.374 -0.0159  0.2978 -0.1109
 1372TIP3    H125607   5.555   4.654   4.330 -0.6995  0.9861 -1.4857
 1372TIP3    H225608   5.410   4.692   4.309 -1.4324 -0.5107  0.7076
 1373TIP3   OH225609   6.668   1.854   5.666  1.0158  0.2790 -0.3627
 1373TIP3    H125610   6.663   1.853   5.762  0.0682  0.8426 -0.3954
 1373TIP3    H225611   6.718   1.933   5.645 -0.3224  1.1520 -0.3691
 1374TIP3   OH225612   2.480   1.246  11.496  0.4834 -0.1849 -0.1292
 1374TIP3    H125613   2.389   1.233  11.468  0.8819 -1.5698 -0.8706
 1374TIP3    H225614   2.495   1.340  11.486 -0.4385 -0.1538 -1.3823
 1375TIP3   OH225615   3.853   6.306  11.440 -0.2590 -0.0283  0.2451
 1375TIP3    H125616   3.892   6.380  11.394 -0.6182 -0.5372 -0.9148
 1375TIP3    H225617   3.764   6.301  11.406 -0.2725 -0.9245  0.3975
 1376TIP3   OH225618   2.233   5.629   2.031 -0.2767 -0.3552  0.2383
 1376TIP3    H125619   2.163   5.693   2.037 -0.7232 -0.8180  0.0324
 1376TIP3    H225620   2.312   5.680   2.012 -0.8197  0.0191 -1.0538
 1377TIP3   OH225621   5.179   2.398   4.178  0.1513 -0.1252 -0.1248
 1377TIP3    H125622   5.087   2.406   4.201 -0.6055 -0.9337 -2.7601
 1377TIP3    H225623   5.218   2.351   4.252 -1.8496 -1.0839  0.3465
 1378TIP3   OH225624   4.833   2.244   2.188 -0.3851 -0.0105  0.1953
 1378TIP3    H125625   4.834   2.338   2.169  0.0440  0.0840  0.6378
 1378TIP3    H225626   4.793   2.238   2.275 -1.5352 -0.3487 -0.3638
 1379TIP3   OH225627   0.893   4.992   3.128  0.7066 -0.7316  0.2153
 1379TIP3    H125628   0.870   4.974   3.219  1.7255  0.7165  0.7695
 1379TIP3    H225629   0.984   4.966   3.120  1.3526  1.4172  0.2817
 1380TIP3   OH225630   0.390   4.293   1.347  0.0359  0.3581 -0.3026
 1380TIP3    H125631   0.400   4.199   1.329  2.5550  0.5645 -0.1135
 1380TIP3    H225632   0.359   4.297   1.437  0.3632 -0.2797 -0.1593
 1381TIP3   OH225633   5.301   1.399   1.060  0.4991  0.3333 -0.0461
 1381TIP3    H125634   5.369   1.362   1.115 -1.2038 -0.2988  1.6985
 1381TIP3    H225635   5.250   1.323   1.031  0.0531  0.8667 -0.6796
 1382TIP3   OH225636   1.513   0.170   2.754 -0.0055 -0.4344  0.5640
 1382TIP3    H125637   1.490   0.215   2.835  2.0473 -0.4277  1.1513
 1382TIP3    H225638   1.481   0.229   2.685 -0.9059  0.0113  1.3473
 1383TIP3   OH225639   3.408   2.403   4.614  0.5441  0.2445  0.5578
 1383TIP3    H125640   3.456   2.322   4.630 -1.7156 -1.5308 -1.4230
 1383TIP3    H225641   3.365   2.423   4.697 -0.0415 -1.3737  0.6497
 1384TIP3   OH225642   6.392   2.405   3.241  0.2450 -0.0049 -0.1736
 1384TIP3    H125643   6.373   2.314   3.262 -1.3250  0.0854 -1.1062
 1384TIP3    H225644   6.393   2.408   3.146 -2.0363  1.3916 -0.1796
 1385TIP3   OH225645   6.241   1.498   1.338  0.6384  0.1515  0.3829
 1385TIP3    H125646   6.261   1.409   1.367  1.4711 -0.0814 -0.8640
 1385TIP3    H225647   6.313   1.551   1.373  0.9976  0.0708 -0.2355
 1386TIP3   OH225648   1.797   2.188   3.250  0.1138  0.2301 -0.1308
 1386TIP3    H125649   1.742   2.264   3.270 -1.1613 -0.6872 -0.0316
 1386TIP3    H225650   1.739   2.113   3.266  1.4046 -0.7618 -0.0545
 1387TIP3   OH225651   5.574   6.238   3.569 -0.6583 -0.3550  0.5126
 1387TIP3    H125652   5.664   6.251   3.541 -0.5372  0.4927  1.2706
 1387TIP3    H225653   5.547   6.323   3.604 -1.8027 -0.5558  0.1399
 1388TIP3   OH225654   0.322   6.413   4.743  0.1179  0.3739 -0.1725
 1388TIP3    H125655   0.266   6.380   4.673  0.4141 -1.6030  0.4931
 1388TIP3    H225656   0.283   6.379   4.824  1.3123  0.3809  0.4194
 1389TIP3   OH225657   2.675   3.268  17.181 -0.0520 -0.0354  0.0009
 1389TIP3    H125658   2.580   3.255  17.176 -0.1036  0.9216 -1.6760
 1389TIP3    H225659   2.707   3.248  17.093  1.1988  0.4840  0.3275
 1390TIP3   OH225660   3.961   3.808  16.289 -0.5388  0.1508 -0.0734
 1390TIP3    H125661   3.882   3.753  16.288  0.1497 -0.8541  0.1994
 1390TIP3    H225662   3.967   3.838  16.380 -0.2939 -0.2390  0.0424
 1391TIP3   OH225663   3.104   0.176   1.317 -0.1696  0.7225  0.3634
 1391TIP3    H125664   3.044   0.222   1.376 -1.3021 -0.9532  0.5274
 1391TIP3    H225665   3.145   0.247   1.266 -3.6380  1.8324 -1.0514
 1392TIP3   OH225666   0.220   3.990  16.217  0.3936 -0.1851 -0.4113
 1392TIP3    H125667   0.147   4.028  16.167 -0.3313  0.2821  0.9750
 1392TIP3    H225668   0.245   4.060  16.278  2.5357 -0.0503 -1.4090
 1393TIP3   OH225669   5.760   1.942  13.293 -0.0657  0.9697  0.5146
 1393TIP3    H125670   5.810   1.885  13.351 -0.5060 -1.2989 -1.2999
 1393TIP3    H225671   5.701   1.884  13.246  1.3872  2.4954 -3.3996
 1394TIP3   OH225672   1.811   6.411   4.087 -0.0200  0.1220  0.4767
 1394TIP3    H125673   1.860   6.457   4.155  2.6248 -0.6302 -0.8459
 1394TIP3    H225674   1.815   6.319   4.112  0.3543 -0.0780 -0.2888
 1395TIP3   OH225675   3.948   1.761  15.421  0.1539  0.2161  0.2276
 1395TIP3    H125676   4.022   1.781  15.363 -0.0723 -2.0495 -0.9033
 1395TIP3    H225677   3.987   1.709  15.491 -0.3582 -1.0128 -0.3894
 1396TIP3   OH225678   1.821   4.561  11.572 -1.0132  0.0905  0.4731
 1396TIP3    H125679   1.748   4.511  11.536 -1.8688  0.8643  1.1284
 1396TIP3    H225680   1.820   4.542  11.665  0.9022 -1.5221  0.1931
 1397TIP3   OH225681   5.028   3.358   6.602  0.0777 -0.9376  0.2224
 1397TIP3    H125682   5.102   3.380   6.545 -0.4714  0.2626 -0.0321
 1397TIP3    H225683   4.961   3.326   6.543 -0.5716  0.5128  0.1682
 1398TIP3   OH225684   1.877   0.795  15.512  0.7017 -0.1359  0.0000
 1398TIP3    H125685   1.926   0.745  15.447 -1.8807 -1.2135 -1.1521
 1398TIP3    H225686   1.822   0.854  15.461  0.8515  1.1321  1.2795
 1399TIP3   OH225687   3.030   0.456  16.954  0.5726 -0.3431  0.3346
 1399TIP3    H125688   2.990   0.542  16.942  1.9072  0.2051 -0.2240
 1399TIP3    H225689   3.017   0.436  17.047 -1.1738 -0.2820  0.1301
 1400TIP3   OH225690   3.919   0.902  14.943  0.4446 -0.0552 -0.1112
 1400TIP3    H125691   3.863   0.931  15.016  2.1219 -0.9044  1.5506
 1400TIP3    H225692   3.978   0.838  14.982  0.0569 -2.0622 -2.6822
 1401TIP3   OH225693   6.426   2.380  11.605 -0.0019  0.2297 -0.1610
 1401TIP3    H125694   6.372   2.338  11.539 -3.6126  4.5554 -0.2318
 1401TIP3    H225695   6.399   2.340  11.687  1.7888 -2.4944 -0.8327
 1402TIP3   OH225696   5.426   5.019   0.469 -0.0412  0.0533 -0.0168
 1402TIP3    H125697   5.357   5.020   0.403  1.2266 -2.3297 -1.4307
 1402TIP3    H225698   5.492   5.080   0.435 -0.0534 -0.0582 -0.2467
 1403TIP3   OH225699   5.542   2.403   5.400  0.1609 -0.1433 -0.2160
 1403TIP3    H125700   5.484   2.448   5.339  1.5027 -1.0026 -2.1744
 1403TIP3    H225701   5.530   2.450   5.483  0.7244  3.1948 -1.9147
 1404TIP3   OH225702   3.841   1.069  15.424  0.0900 -0.7632  0.2037
 1404TIP3    H125703   3.782   1.061  15.350 -0.6458 -0.0915  0.7133
 1404TIP3    H225704   3.862   1.163  15.429 -1.1449 -0.5551  1.8222
 1405TIP3   OH225705   4.386   1.841   5.384 -0.8232  0.4033  0.5385
 1405TIP3    H125706   4.375   1.789   5.304  0.5130  0.3746  0.3557
 1405TIP3    H225707   4.348   1.788   5.453 -1.0947 -0.0144  0.0745
 1406TIP3   OH225708   6.457   6.200  14.785 -0.8038  0.2012 -0.3510
 1406TIP3    H125709   6.424   6.268  14.726  0.4217 -0.6312 -2.0422
 1406TIP3    H225710   6.398   6.202  14.860 -1.2193  2.6306 -0.7112
 1407TIP3   OH225711   0.294   5.416   5.160 -0.0169  0.1695  0.0132
 1407TIP3    H125712   0.207   5.454   5.168  0.3067  0.7783  0.7687
 1407TIP3    H225713   0.280   5.328   5.127 -1.1402 -0.8869  3.1608
 1408TIP3   OH225714   0.467   1.481  13.524  0.1016  0.4602  0.1446
 1408TIP3    H125715   0.406   1.551  13.546 -2.2790 -1.4235 -0.1911
 1408TIP3    H225716   0.480   1.434  13.607  0.1958  0.1868 -0.0230
 1409TIP3   OH225717   3.134   0.561  16.351 -0.0784 -0.2010 -0.0757
 1409TIP3    H125718   3.211   0.610  16.323 -0.8604  0.3766 -1.2677
 1409TIP3    H225719   3.112   0.507  16.275 -1.3996  0.3329 -0.0767
 1410TIP3   OH225720   2.484   0.248   5.628 -0.2717  0.2938  0.5491
 1410TIP3    H125721   2.466   0.156   5.645 -0.7364  0.5072  1.2246
 1410TIP3    H225722   2.401   0.284   5.598 -0.2367  0.6145  0.8263
 1411TIP3   OH225723   0.086   0.406  13.860  0.0685  0.0843 -0.4599
 1411TIP3    H125724   0.075   0.448  13.775 -1.6371 -3.3007 -2.0105
 1411TIP3    H225725   0.129   0.323  13.840  3.0572  0.8355  2.4535
 1412TIP3   OH225726   5.894   3.011  11.969  0.0860 -0.8082 -0.1565
 1412TIP3    H125727   5.937   3.081  12.019  0.4054 -0.8949 -0.3131
 1412TIP3    H225728   5.801   3.023  11.989  0.2596 -1.2478  0.9782
 1413TIP3   OH225729   1.957   4.503  13.615 -0.2196  0.0335 -0.3639
 1413TIP3    H125730   2.028   4.517  13.678  0.5405  1.6041 -1.5280
 1413TIP3    H225731   1.888   4.563  13.642  0.3740  1.1998 -1.4110
 1414TIP3   OH225732   5.815   3.025  16.022  0.3218  0.4206  0.7128
 1414TIP3    H125733   5.728   3.011  15.987  1.0605 -1.8522 -0.2885
 1414TIP3    H225734   5.831   3.119  16.009 -2.0560  0.9148  1.1861
 1415TIP3   OH225735   3.769   1.818   2.072  0.1733 -0.2442  0.8102
 1415TIP3    H125736   3.861   1.843   2.083  0.3132 -0.5371  0.2820
 1415TIP3    H225737   3.721   1.896   2.101  0.6130  0.6174 -0.7043
 1416TIP3   OH225738   5.873   6.001  11.793  0.1100 -0.2715  0.0283
 1416TIP3    H125739   5.809   6.017  11.723  2.3298 -0.2213 -2.0573
 1416TIP3    H225740   5.843   5.920  11.834 -2.3796  0.7719  0.4126
 1417TIP3   OH225741   0.358   4.493   1.677  0.3026 -0.3179 -0.1982
 1417TIP3    H125742   0.422   4.498   1.748  0.0375  2.0815 -0.0698
 1417TIP3    H225743   0.274   4.481   1.722  0.0013  2.2505  0.0251
 1418TIP3   OH225744   1.255   2.789   6.246  0.4631 -0.2046  0.8182
 1418TIP3    H125745   1.243   2.720   6.182 -0.5070 -1.8242  2.6959
 1418TIP3    H225746   1.191   2.856   6.222  0.2878 -0.6892 -0.0622
 1419TIP3   OH225747   4.776   1.155  15.328 -0.1196 -1.1627  0.1536
 1419TIP3    H125748   4.736   1.235  15.295  1.7215  0.3462  1.5180
 1419TIP3    H225749   4.701   1.100  15.353 -1.3857  0.4342 -0.0309
 1420TIP3   OH225750   2.729   1.188  14.283 -0.3062  0.3537 -0.2738
 1420TIP3    H125751   2.656   1.184  14.344  0.9884 -3.5287  1.1834
 1420TIP3    H225752   2.718   1.110  14.228  2.4389 -0.0501 -0.3054
 1421TIP3   OH225753   3.884   2.915   5.486  0.1971 -0.5544 -0.2727
 1421TIP3    H125754   3.967   2.962   5.472  0.2855 -0.8601 -0.8234
 1421TIP3    H225755   3.829   2.977   5.532  0.7639 -0.3722  0.1699
 1422TIP3   OH225756   0.868   2.434  13.932  0.4284  0.8902  0.4201
 1422TIP3    H125757   0.891   2.367  13.868 -0.6074  0.6886  0.2450
 1422TIP3    H225758   0.941   2.496  13.930  0.5308  0.7394 -0.7644
 1423TIP3   OH225759   0.541   5.878  11.616  0.4925  0.4766  0.1837
 1423TIP3    H125760   0.536   5.888  11.711 -0.7939  0.6761  0.1072
 1423TIP3    H225761   0.499   5.794  11.598 -0.0414  0.8431 -0.2814
 1424TIP3   OH225762   6.627   2.313  12.601  0.2682  0.2623 -0.1876
 1424TIP3    H125763   6.694   2.357  12.549  0.2183  0.3176 -0.2049
 1424TIP3    H225764   6.652   2.331  12.692 -0.1463  0.9148 -0.2026
 1425TIP3   OH225765   5.492   0.071  17.127 -0.2217  0.5073  0.4320
 1425TIP3    H125766   5.397   0.058  17.122 -0.3586  1.4749  0.4110
 1425TIP3    H225767   5.522   0.060  17.036 -0.1740 -0.7604  0.5868
 1426TIP3   OH225768   0.471   1.478   4.036 -0.4419  0.3205 -0.2058
 1426TIP3    H125769   0.460   1.573   4.035  2.2144  0.6717  0.0309
 1426TIP3    H225770   0.413   1.448   4.106  0.6751  2.0571  1.5169
 1427TIP3   OH225771   0.591   2.469  13.274 -0.0465  0.4249 -0.2648
 1427TIP3    H125772   0.558   2.474  13.184  1.8918 -0.3497 -1.0480
 1427TIP3    H225773   0.514   2.449  13.327 -1.2864  1.2992 -1.6993
 1428TIP3   OH225774   6.656   3.482  16.966  0.4228  0.2080  0.4625
 1428TIP3    H125775   6.672   3.392  16.936  2.3183  0.0311  1.8663
 1428TIP3    H225776   6.669   3.478  17.061 -2.3352  1.3874  0.9224
 1429TIP3   OH225777   4.720   2.356   3.057  0.2841  0.4739  0.2520
 1429TIP3    H125778   4.790   2.381   2.997  0.2864  1.0596  0.4926
 1429TIP3    H225779   4.713   2.430   3.118  0.1050  0.0079  0.8098
 1430TIP3   OH225780   5.800   0.187   4.319 -0.7830 -0.2937  0.1676
 1430TIP3    H125781   5.864   0.183   4.390 -0.3501 -3.0153 -0.2855
 1430TIP3    H225782   5.805   0.277   4.286  2.4161 -0.2632  0.5368
 1431TIP3   OH225783   4.854   4.146   5.397  0.2279  0.1160 -0.0401
 1431TIP3    H125784   4.843   4.239   5.378  0.9166  0.2878  0.3887
 1431TIP3    H225785   4.880   4.107   5.314  0.2434  0.3596 -0.1487
 1432TIP3   OH225786   1.883   0.315  14.511  0.0181 -0.3141 -0.0579
 1432TIP3    H125787   1.867   0.384  14.574  1.5614  0.8615 -0.9069
 1432TIP3    H225788   1.842   0.346  14.430  1.5694  0.1175 -0.7125
 1433TIP3   OH225789   4.458   5.333  12.817 -0.2028 -0.1481  0.2376
 1433TIP3    H125790   4.535   5.382  12.789  0.2862 -0.5659  0.8506
 1433TIP3    H225791   4.467   5.325  12.912  0.3896 -2.5125  0.0201
 1434TIP3   OH225792   2.649   2.952  13.292 -0.8301  0.1757  0.1268
 1434TIP3    H125793   2.722   2.960  13.231 -2.7103  0.4280 -2.1473
 1434TIP3    H225794   2.671   2.877  13.346  0.4130 -0.6836 -1.5288
 1435TIP3   OH225795   4.893   3.074   2.507  0.2564 -0.6190 -0.2618
 1435TIP3    H125796   4.879   3.164   2.535  0.4753  0.1226 -2.4192
 1435TIP3    H225797   4.808   3.045   2.476  0.1703 -1.1931  0.4991
 1436TIP3   OH225798   5.939   0.509  15.807  0.3125 -0.2096 -0.4621
 1436TIP3    H125799   5.978   0.579  15.860  0.6966 -0.0440 -0.9608
 1436TIP3    H225800   5.850   0.540  15.788  0.7172  0.4586 -1.2681
 1437TIP3   OH225801   4.686   6.536  14.497 -0.2115  0.4196  0.4485
 1437TIP3    H125802   4.650   6.489  14.421 -0.1604  1.0445  0.0374
 1437TIP3    H225803   4.751   6.475  14.533 -1.2655 -0.4774  0.8570
 1438TIP3   OH225804   5.434   3.373   3.140  0.5243 -0.3856  0.8420
 1438TIP3    H125805   5.407   3.301   3.082  0.0187 -1.1145  1.9715
 1438TIP3    H225806   5.437   3.333   3.227 -0.3733  1.1226  1.5684
 1439TIP3   OH225807   4.697   0.996  14.234 -0.3598 -0.0685  0.1965
 1439TIP3    H125808   4.628   0.935  14.210  0.5010 -0.2333 -2.0261
 1439TIP3    H225809   4.757   0.945  14.288 -0.2409 -0.8753 -0.6884
 1440TIP3   OH225810   1.455   2.949   4.909 -0.1294 -0.4665  0.4066
 1440TIP3    H125811   1.443   2.854   4.913  1.0029 -0.6487 -0.1951
 1440TIP3    H225812   1.498   2.971   4.991 -0.1643 -0.5073  0.4364
 1441TIP3   OH225813   1.116   5.812  16.701 -0.3101  0.0657  0.3236
 1441TIP3    H125814   1.146   5.888  16.751 -4.1114  0.7238  1.7407
 1441TIP3    H225815   1.086   5.848  16.618  1.9043 -0.4795 -0.7424
 1442TIP3   OH225816   5.560   5.291   3.478  0.6725 -0.5260  0.0993
 1442TIP3    H125817   5.484   5.246   3.513  0.0286  1.3143  1.1568
 1442TIP3    H225818   5.553   5.279   3.383 -0.9661 -0.3665  0.1782
 1443TIP3   OH225819   2.538   5.151  16.229  0.0158 -0.0556 -0.0883
 1443TIP3    H125820   2.526   5.245  16.244  1.3334  0.2423 -0.7920
 1443TIP3    H225821   2.514   5.110  16.312 -0.5593  0.8939  0.2275
 1444TIP3   OH225822   4.451   3.146  15.074  0.1996  0.1832  0.3932
 1444TIP3    H125823   4.497   3.071  15.111 -0.6549 -0.6388 -0.2141
 1444TIP3    H225824   4.388   3.109  15.012  0.9100  1.4981 -1.1468
 1445TIP3   OH225825   5.343   5.730  11.461 -0.1439  0.3310 -0.4093
 1445TIP3    H125826   5.438   5.742  11.465  0.3712 -2.3245 -3.3155
 1445TIP3    H225827   5.318   5.715  11.552  2.4485 -0.5491  0.2137
 1446TIP3   OH225828   0.223   6.547   2.037  0.4383 -0.3765 -0.3452
 1446TIP3    H125829   0.249   6.464   2.077  0.1732  0.5528  1.8018
 1446TIP3    H225830   0.155   6.581   2.094  2.1969  2.4764  0.1499
 1447TIP3   OH225831   0.300   1.698  13.640 -0.4799  0.2225 -0.2859
 1447TIP3    H125832   0.217   1.681  13.595 -1.9108  2.1158  1.5075
 1447TIP3    H225833   0.313   1.792  13.632  1.2154  0.0248 -0.0558
 1448TIP3   OH225834   2.502   0.667   2.212  0.2180  0.6374 -0.0560
 1448TIP3    H125835   2.479   0.634   2.125  0.2849  1.5179 -0.4106
 1448TIP3    H225836   2.597   0.681   2.208  0.3819 -0.3167  0.4957
 1449TIP3   OH225837   4.304   3.846  15.821  0.5452 -0.1775 -0.2819
 1449TIP3    H125838   4.271   3.930  15.792 -1.4489 -0.0497  2.1865
 1449TIP3    H225839   4.231   3.785  15.809  1.4056 -1.2069 -0.4569
 1450TIP3   OH225840   1.497   1.380   1.807  0.5576  0.0249  0.1427
 1450TIP3    H125841   1.546   1.456   1.778  0.9878 -0.1307  0.4642
 1450TIP3    H225842   1.443   1.356   1.731 -0.8153  1.6353  0.5941
 1451TIP3   OH225843   2.560   1.135   6.181 -0.1153 -0.5895 -0.3908
 1451TIP3    H125844   2.650   1.167   6.179  0.2456 -1.5931 -0.0764
 1451TIP3    H225845   2.511   1.198   6.127  0.3933  1.1281  1.0945
 1452TIP3   OH225846   4.795   1.158  16.378  0.2497  0.5301  0.4510
 1452TIP3    H125847   4.738   1.081  16.372  0.6498  0.3174 -0.7614
 1452TIP3    H225848   4.862   1.133  16.442  0.2829 -0.0906  0.1854
 1453TIP3   OH225849   1.171   0.319   0.667 -0.1386 -0.8808 -0.3777
 1453TIP3    H125850   1.175   0.290   0.758 -2.5831 -0.3369 -0.0350
 1453TIP3    H225851   1.260   0.344   0.645  0.4045 -0.6000  2.0266
 1454TIP3   OH225852   3.881   0.637   6.189 -0.1929 -0.3967  0.1740
 1454TIP3    H125853   3.824   0.627   6.265 -0.6043  1.9604  0.1910
 1454TIP3    H225854   3.932   0.716   6.207 -0.0108 -0.0401 -1.8130
 1455TIP3   OH225855   1.500   1.144  15.963  0.6622 -0.0816 -0.4927
 1455TIP3    H125856   1.416   1.189  15.960  1.7518  1.9509 -1.2948
 1455TIP3    H225857   1.496   1.079  15.894 -0.6216 -0.6880  0.1402
 1456TIP3   OH225858   0.049   4.035   6.453  0.1937  0.0296  0.0266
 1456TIP3    H125859  -0.021   3.976   6.424 -1.0729  1.4819  0.1075
 1456TIP3    H225860   0.117   3.976   6.486 -1.4118 -1.3887  0.9213
 1457TIP3   OH225861   1.639   6.427  12.533 -0.1729  0.4706  0.5295
 1457TIP3    H125862   1.695   6.426  12.611 -0.2960  0.4440  0.6194
 1457TIP3    H225863   1.694   6.394  12.463  0.2676  1.5174  0.3756
 1458TIP3   OH225864   2.523   5.772  11.790 -0.1874 -0.5500 -0.3567
 1458TIP3    H125865   2.522   5.689  11.743  0.3917 -0.8458  0.1462
 1458TIP3    H225866   2.439   5.775  11.835 -0.2383 -0.8323 -0.4336
 1459TIP3   OH225867   0.077   2.021  15.385 -0.3185  0.1984 -0.1011
 1459TIP3    H125868   0.058   1.939  15.340  0.5928  0.8080 -1.6759
 1459TIP3    H225869   0.021   2.086  15.341  0.7598  0.8499 -0.5358
 1460TIP3   OH225870   4.711   5.801   1.666 -0.6682 -0.2265  0.5012
 1460TIP3    H125871   4.785   5.831   1.719 -0.0051  0.5610 -0.8192
 1460TIP3    H225872   4.746   5.799   1.576 -2.5079  1.0663 -0.2739
 1461TIP3   OH225873   2.376   5.690  14.396 -0.2603  0.0369 -0.1428
 1461TIP3    H125874   2.301   5.748  14.404 -0.3704 -0.4283  2.8643
 1461TIP3    H225875   2.451   5.749  14.386 -0.7522  0.5665 -0.7571
 1462TIP3   OH225876   0.641   3.237   0.642 -0.1809  0.4889 -0.3663
 1462TIP3    H125877   0.579   3.220   0.713  0.1160  0.6307 -0.0657
 1462TIP3    H225878   0.645   3.333   0.637 -2.5310  0.4975 -2.6583
 1463TIP3   OH225879   0.051   0.574   5.270  0.2763 -0.1283 -0.6676
 1463TIP3    H125880   0.068   0.513   5.199  1.2601 -0.2560 -0.3315
 1463TIP3    H225881   0.138   0.599   5.302 -0.1588 -0.5022  0.8609
 1464TIP3   OH225882   6.038   2.702   2.136 -0.2084  0.1369  0.0979
 1464TIP3    H125883   6.085   2.623   2.162  0.4189 -0.1717 -1.9346
 1464TIP3    H225884   5.946   2.683   2.155  0.0621 -0.6590  0.6395
 1465TIP3   OH225885   6.007   1.636  15.596  0.2842 -0.5658 -0.0105
 1465TIP3    H125886   6.044   1.720  15.569  2.1166 -0.3542  2.9957
 1465TIP3    H225887   5.912   1.648  15.587  0.6416  1.0175 -1.8288
 1466TIP3   OH225888   6.273   5.085  15.168 -0.2073 -0.2086 -0.0127
 1466TIP3    H125889   6.292   5.007  15.115 -0.8410 -2.1117  2.4235
 1466TIP3    H225890   6.177   5.088  15.172 -0.1710  0.2916  0.5003
 1467TIP3   OH225891   2.078   5.977   5.781  0.2641 -0.0645  0.6951
 1467TIP3    H125892   1.999   5.927   5.762  0.6086 -0.1839 -0.5126
 1467TIP3    H225893   2.056   6.067   5.758  0.5616 -0.1474  0.0482
 1468TIP3   OH225894   0.215   4.371   0.690 -0.5381  0.1673  0.6400
 1468TIP3    H125895   0.279   4.386   0.760  0.0855  3.3478 -0.5498
 1468TIP3    H225896   0.266   4.378   0.609 -2.1237  1.3320 -0.2726
 1469TIP3   OH225897   5.211   2.622  10.609  0.8014  0.2863  0.2297
 1469TIP3    H125898   5.181   2.531  10.605  1.9980 -0.0970 -0.5846
 1469TIP3    H225899   5.298   2.616  10.648  0.6964  1.1325  0.5847
 1470TIP3   OH225900   6.100   5.862   2.573 -0.9432  0.7712 -0.7774
 1470TIP3    H125901   6.193   5.868   2.595 -1.2650 -1.4270  1.3177
 1470TIP3    H225902   6.062   5.942   2.610 -0.2248  0.6167  0.3393
 1471TIP3   OH225903   1.980   6.504  13.001  0.3686 -0.3637 -0.4263
 1471TIP3    H125904   1.907   6.565  12.990  0.5569 -0.2068 -0.8159
 1471TIP3    H225905   1.996   6.504  13.095 -0.0898 -0.3482 -0.3423
 1472TIP3   OH225906   4.260   3.102  15.846  0.0664 -0.5859  0.8180
 1472TIP3    H125907   4.283   3.192  15.868  0.1198 -0.2068 -0.7424
 1472TIP3    H225908   4.333   3.049  15.879  0.3695  0.0027  1.0984
 1473TIP3   OH225909   2.160   2.266   4.250  0.6048  0.8854  0.3357
 1473TIP3    H125910   2.201   2.258   4.163  0.0839 -1.5522  0.2786
 1473TIP3    H225911   2.225   2.313   4.302  2.4275 -0.6593 -0.4566
 1474TIP3   OH225912   0.686   3.347  15.663  0.5283  0.0173 -0.3944
 1474TIP3    H125913   0.779   3.369  15.673  0.2572  1.0739 -0.0579
 1474TIP3    H225914   0.640   3.422  15.701 -0.4868  0.3332 -2.2224
 1475TIP3   OH225915   2.293   6.246  14.580 -0.4035 -0.1565 -0.0653
 1475TIP3    H125916   2.272   6.316  14.519 -1.3772 -0.1335  0.2866
 1475TIP3    H225917   2.242   6.267  14.658 -0.1721 -0.8958  0.2829
 1476TIP3   OH225918   6.585   0.922  12.921 -0.5442 -0.3965 -0.2153
 1476TIP3    H125919   6.617   0.853  12.863  1.0521  1.5887 -1.7756
 1476TIP3    H225920   6.553   0.991  12.862  0.1063  1.2129  1.2519
 1477TIP3   OH225921   2.983   0.301  13.914 -0.3177 -0.3372  0.4524
 1477TIP3    H125922   3.034   0.341  13.844 -0.8541 -0.0900  0.1942
 1477TIP3    H225923   2.919   0.246  13.868 -0.6212 -0.2316  0.7496
 1478TIP3   OH225924   2.003   5.259   0.448  0.4772 -0.5502  0.5969
 1478TIP3    H125925   1.976   5.172   0.418 -0.0255  0.0700 -0.7953
 1478TIP3    H225926   1.997   5.254   0.543  0.4230 -2.0315  0.5319
 1479TIP3   OH225927   0.680   3.325  10.714  0.6659 -0.1953  0.4482
 1479TIP3    H125928   0.700   3.236  10.686 -0.3066  0.1690 -1.4930
 1479TIP3    H225929   0.669   3.374  10.632  0.1789  1.4768  1.4875
 1480TIP3   OH225930   5.425   3.934   3.342  0.2677  0.1310 -0.4878
 1480TIP3    H125931   5.346   3.880   3.334  0.2623  0.1723 -0.7291
 1480TIP3    H225932   5.487   3.879   3.391  1.1788 -1.1554 -2.9695
 1481TIP3   OH225933   1.955   5.966   4.318 -0.1839  0.3934  0.9247
 1481TIP3    H125934   1.911   5.995   4.399  0.0264  0.9350  0.8515
 1481TIP3    H225935   1.974   5.874   4.333  2.2823  1.1353  2.6171
 1482TIP3   OH225936   5.974   1.009  13.637  0.2304 -0.0397 -0.0589
 1482TIP3    H125937   5.902   0.971  13.587  0.3951 -0.3451 -0.0653
 1482TIP3    H225938   5.933   1.061  13.705 -0.0000  0.5850 -0.6735
 1483TIP3   OH225939   2.622   4.129   1.070  0.0715  0.0857 -0.6683
 1483TIP3    H125940   2.542   4.097   1.029 -0.8129 -0.8728  1.7549
 1483TIP3    H225941   2.679   4.052   1.074 -0.1240 -0.0061  0.5335
 1484TIP3   OH225942   0.555   1.019   0.061  0.0088  0.4921 -0.0522
 1484TIP3    H125943   0.499   1.012   0.138 -2.9881  0.4671 -2.1395
 1484TIP3    H225944   0.632   0.967   0.082 -2.5448 -2.8760  1.3845
 1485TIP3   OH225945   5.994   2.192  15.903  0.4411 -0.1592 -0.0995
 1485TIP3    H125946   6.015   2.184  15.996  1.3111  0.2256 -0.2591
 1485TIP3    H225947   5.964   2.282  15.894  0.6117 -0.1170 -0.2398
 1486TIP3   OH225948   6.647   6.076   0.886 -0.4646 -0.3711  0.3734
 1486TIP3    H125949   6.628   6.103   0.796  0.3185 -0.8333  0.0624
 1486TIP3    H225950   6.573   6.108   0.937 -1.0466 -0.3364 -0.4801
 1487TIP3   OH225951   2.591   5.671  13.243 -0.4429  0.2921 -0.0088
 1487TIP3    H125952   2.640   5.691  13.163  0.9585  1.2226  1.0647
 1487TIP3    H225953   2.499   5.673  13.216  0.0326  0.0776 -1.7010
 1488TIP3   OH225954   1.020   5.787   2.582  0.0152  0.1168  0.3440
 1488TIP3    H125955   1.063   5.872   2.569 -0.2829 -0.1770 -3.0107
 1488TIP3    H225956   1.083   5.736   2.633  0.6186  2.0029  1.5429
 1489TIP3   OH225957   6.278   0.102   1.872  0.4329 -0.2529  0.6999
 1489TIP3    H125958   6.262   0.115   1.966  1.3438  2.0941  0.5684
 1489TIP3    H225959   6.213   0.158   1.829  0.6122 -0.6208 -0.0564
 1490TIP3   OH225960   5.162   6.518   4.115  0.0849 -0.0380  0.3245
 1490TIP3    H125961   5.201   6.596   4.075 -0.9683  0.8510  0.9856
 1490TIP3    H225962   5.124   6.470   4.042  1.8712 -0.6076 -0.2531
 1491TIP3   OH225963   1.273   0.649   5.398 -0.1540  0.4108  0.0594
 1491TIP3    H125964   1.279   0.554   5.385  2.4637  0.7110 -1.2293
 1491TIP3    H225965   1.227   0.681   5.320  0.1137  0.3145 -0.1422
 1492TIP3   OH225966   0.542   4.874  12.933  0.3023  0.0253  0.0288
 1492TIP3    H125967   0.522   4.922  13.013  0.0156 -0.7732  0.4340
 1492TIP3    H225968   0.474   4.903  12.871  1.1293  1.4070 -0.2463
 1493TIP3   OH225969   5.380   4.601   5.086 -0.0402  0.2371 -0.4014
 1493TIP3    H125970   5.308   4.656   5.117  0.6857  0.1784  1.4484
 1493TIP3    H225971   5.370   4.601   4.991 -2.2015  0.6113 -0.2139
 1494TIP3   OH225972   5.239   3.161   2.060 -0.1752  0.1294  0.0979
 1494TIP3    H125973   5.145   3.143   2.060  0.0090 -0.9460  1.0094
 1494TIP3    H225974   5.246   3.256   2.051 -1.3028  0.0906 -1.3671
 1495TIP3   OH225975   1.670   6.522  14.143  0.6274  0.2863  0.3370
 1495TIP3    H125976   1.612   6.509  14.218  1.1598  0.0743  0.7178
 1495TIP3    H225977   1.635   6.599  14.098  0.4194  0.5357  0.9198
 1496TIP3   OH225978   6.110   1.542   1.590  0.7343 -0.4377  0.2858
 1496TIP3    H125979   6.110   1.631   1.626 -1.2272 -0.5141  0.5402
 1496TIP3    H225980   6.153   1.551   1.505 -1.0194  1.1157 -0.4758
 1497TIP3   OH225981   2.468   4.189  11.365  0.2097  0.1525  0.0848
 1497TIP3    H125982   2.422   4.182  11.449 -1.5584  1.2207 -0.7626
 1497TIP3    H225983   2.441   4.111  11.316  0.0248  0.3051 -0.0589
 1498TIP3   OH225984   0.110   6.602  11.514 -0.4511  0.0492 -0.5306
 1498TIP3    H125985   0.163   6.677  11.486 -0.6274  0.6950  0.8247
 1498TIP3    H225986   0.037   6.600  11.452  0.1767  0.2882 -1.2814
 1499TIP3   OH225987   2.352   3.671  13.820 -0.4244  0.2822  0.2238
 1499TIP3    H125988   2.421   3.713  13.769 -0.5551  0.5338  0.2526
 1499TIP3    H225989   2.382   3.581  13.833 -0.0681  0.4149  0.3014
 1500TIP3   OH225990   0.617   3.116   4.376  0.0998  0.0385 -0.3060
 1500TIP3    H125991   0.699   3.157   4.351 -0.7701  1.0305 -1.5827
 1500TIP3    H225992   0.552   3.186   4.372 -1.2481 -1.2368 -1.6238
 1501TIP3   OH225993   5.766   5.544  16.963 -0.1358  0.0583 -0.0100
 1501TIP3    H125994   5.701   5.519  17.029 -0.8130  0.1506 -0.6439
 1501TIP3    H225995   5.745   5.491  16.886 -0.0614  0.7798 -0.5377
 1502TIP3   OH225996   4.069   2.288  11.979  0.2200  0.0971 -0.5092
 1502TIP3    H125997   3.981   2.313  11.951 -0.2845 -0.6770  0.3288
 1502TIP3    H225998   4.075   2.321  12.069 -0.3765 -2.4877  0.5278
 1503TIP3   OH225999   0.162   5.387  15.489 -0.7446 -0.3363 -0.1693
 1503TIP3    H126000   0.142   5.469  15.535  0.3504  0.5987 -1.3151
 1503TIP3    H226001   0.228   5.412  15.425 -1.0145 -1.9660 -1.0922
 1504TIP3   OH226002   5.666   6.637  13.636  0.5024 -0.1506 -0.1728
 1504TIP3    H126003   5.602   6.583  13.589  0.2079  1.1054 -1.2198
 1504TIP3    H226004   5.674   6.716  13.584  2.4593 -0.0291  0.2841
 1505TIP3   OH226005   3.924   1.384   1.428  0.0995 -0.2730 -0.2491
 1505TIP3    H126006   3.994   1.443   1.456 -1.2373  1.5603 -0.6748
 1505TIP3    H226007   3.942   1.368   1.335  0.5740 -0.7341 -0.0855
 1506TIP3   OH226008   3.114   3.979   2.353  0.1817  0.5197 -0.1169
 1506TIP3    H126009   3.104   3.903   2.410  1.2636  0.3315 -0.1657
 1506TIP3    H226010   3.182   3.954   2.291  2.0587  2.2615  1.1410
 1507TIP3   OH226011   6.066   1.528  13.243  0.0670 -0.5135 -0.0609
 1507TIP3    H126012   6.113   1.446  13.228  0.8046 -0.1911  0.4673
 1507TIP3    H226013   6.094   1.585  13.170 -3.0880 -1.8519 -2.4135
 1508TIP3   OH226014   5.448   1.506  16.020 -0.4445 -0.2171 -0.2782
 1508TIP3    H126015   5.403   1.422  16.022 -2.9422  1.1038  1.2418
 1508TIP3    H226016   5.506   1.504  16.096 -1.6896  0.0398  0.6919
 1509TIP3   OH226017   2.485   1.040  14.865  0.9616  0.3178  0.5684
 1509TIP3    H126018   2.491   0.999  14.952  3.1498  0.4431  0.5028
 1509TIP3    H226019   2.454   0.970  14.808 -1.3008  0.4447  1.5693
 1510TIP3   OH226020   0.844   2.570  13.539  0.2974 -0.5837  0.6632
 1510TIP3    H126021   0.766   2.525  13.571  0.0003  0.4191  1.4048
 1510TIP3    H226022   0.854   2.645  13.599  1.0007  0.0949 -0.2879
 1511TIP3   OH226023   5.772   5.930   2.669  0.2169 -0.3031 -0.2567
 1511TIP3    H126024   5.778   5.854   2.725 -1.6404  0.6430  1.2946
 1511TIP3    H226025   5.783   6.005   2.728  1.3298  0.6372 -1.6330
 1512TIP3   OH226026   4.216   5.555   0.020  0.7815 -0.7056  0.6376
 1512TIP3    H126027   4.130   5.566   0.061  0.0165  1.0271 -1.3329
 1512TIP3    H226028   4.249   5.645   0.011  1.2528 -1.1066 -1.8377
 1513TIP3   OH226029   6.202   6.430  13.761  0.0059 -0.2487 -0.3954
 1513TIP3    H126030   6.157   6.397  13.839 -1.1917  0.4756 -0.7605
 1513TIP3    H226031   6.206   6.525  13.775  1.6013 -0.3122 -0.2951
 1514TIP3   OH226032   3.148   4.656  13.255  0.4024 -0.0122 -0.2726
 1514TIP3    H126033   3.156   4.678  13.162  3.2465 -1.3177 -0.3711
 1514TIP3    H226034   3.215   4.589  13.270 -1.7042 -1.6702  2.1565
 1515TIP3   OH226035   4.278   3.121  13.037  0.4126 -0.3210  0.6472
 1515TIP3    H126036   4.253   3.166  13.118  0.2904  1.4761 -0.3547
 1515TIP3    H226037   4.286   3.029  13.062 -0.4770  0.0784  2.5021
 1516TIP3   OH226038   3.498   2.296  13.859 -0.0794 -0.1482 -0.1225
 1516TIP3    H126039   3.550   2.307  13.780 -0.4805  1.2376 -0.2132
 1516TIP3    H226040   3.470   2.385  13.882  0.7342 -0.4108  2.0628
 1517TIP3   OH226041   5.841   2.391  15.041 -0.1938  0.0813 -0.0731
 1517TIP3    H126042   5.763   2.375  15.094 -1.1621  0.5997 -1.3126
 1517TIP3    H226043   5.807   2.406  14.953  1.2083  1.6667 -0.3605
 1518TIP3   OH226044   2.759   1.247  11.947  0.9423 -0.4321  0.3312
 1518TIP3    H126045   2.808   1.196  12.011  2.9541 -0.2565 -1.0102
 1518TIP3    H226046   2.808   1.236  11.866 -0.4284  0.9994 -0.7113
 1519TIP3   OH226047   2.337   3.665   5.281  0.1299  0.0216 -0.0073
 1519TIP3    H126048   2.258   3.676   5.333  0.5624  0.3546  0.5895
 1519TIP3    H226049   2.400   3.726   5.321  0.7030 -0.3016 -0.4232
 1520TIP3   OH226050   6.272   6.593  15.158 -0.1222  0.9487  0.3635
 1520TIP3    H126051   6.279   6.656  15.228  0.8707  0.3796  0.7763
 1520TIP3    H226052   6.289   6.508  15.199  1.8429  0.7495 -0.8214
 1521TIP3   OH226053   1.089   5.867   2.854  1.3122 -0.1983  0.0776
 1521TIP3    H126054   1.108   5.944   2.800  0.4893  0.6131  0.9146
 1521TIP3    H226055   1.092   5.899   2.944 -1.4414 -0.5771  0.3480
 1522TIP3   OH226056   2.485   1.412   2.607 -0.2206  0.0650 -0.6727
 1522TIP3    H126057   2.417   1.448   2.664 -0.9997 -1.2694 -0.7420
 1522TIP3    H226058   2.544   1.486   2.590 -0.5565  0.7371  0.9973
 1523TIP3   OH226059   5.094   1.110  15.054 -0.2926  0.0894 -0.4925
 1523TIP3    H126060   5.033   1.039  15.034  1.1074 -1.0016 -0.9899
 1523TIP3    H226061   5.166   1.068  15.100  0.9610  1.0392 -1.5364
 1524TIP3   OH226062   5.081   1.489  15.399 -0.1029 -0.2310 -0.5913
 1524TIP3    H126063   5.054   1.449  15.316  0.1840 -0.4267 -0.5913
 1524TIP3    H226064   5.114   1.416  15.451 -0.4726 -0.1411 -0.2243
 1525TIP3   OH226065   2.643   3.652   2.638 -0.0342  0.1446  0.4018
 1525TIP3    H126066   2.664   3.745   2.632 -0.8510  0.2653 -0.9338
 1525TIP3    H226067   2.676   3.615   2.556  0.8949 -0.8670  1.2290
 1526TIP3   OH226068   4.705   1.183   5.267 -0.0151  0.2090 -0.0064
 1526TIP3    H126069   4.775   1.166   5.204 -1.0498 -1.0147 -0.8573
 1526TIP3    H226070   4.650   1.249   5.225 -0.3909 -0.1891 -0.1405
 1527TIP3   OH226071   4.092   5.499  16.080 -0.2142 -0.0291 -0.3921
 1527TIP3    H126072   4.070   5.406  16.082  0.3802 -0.1709 -0.1210
 1527TIP3    H226073   4.117   5.520  16.171 -1.1815  0.6048 -0.2638
 1528TIP3   OH226074   1.586   1.793  16.536  0.3061 -0.0652  0.0405
 1528TIP3    H126075   1.546   1.791  16.623 -1.6805 -0.0660 -0.8346
 1528TIP3    H226076   1.556   1.876  16.499 -0.0759 -0.7400 -1.1840
 1529TIP3   OH226077   6.711   6.739   3.385 -0.2673  0.0147 -0.1803
 1529TIP3    H126078   6.712   6.650   3.422 -0.1782 -0.6301 -1.7181
 1529TIP3    H226079   6.789   6.780   3.421 -0.0435 -0.6929  0.1521
 1530TIP3   OH226080   3.719   1.438   5.637 -0.1723  0.3057  0.9964
 1530TIP3    H126081   3.626   1.438   5.660  0.6842  1.5764  4.7862
 1530TIP3    H226082   3.760   1.382   5.703  2.0027  1.3573  0.5650
 1531TIP3   OH226083   0.333   2.011  16.312  0.9224  0.4310  0.1988
 1531TIP3    H126084   0.411   2.065  16.306 -0.1205  1.8095 -1.7689
 1531TIP3    H226085   0.272   2.062  16.366  0.6172  0.3625 -0.0746
 1532TIP3   OH226086   2.086   0.262   6.095 -0.6471 -0.6686 -0.2025
 1532TIP3    H126087   2.053   0.224   6.177 -0.8207 -0.7034 -0.2886
 1532TIP3    H226088   2.038   0.344   6.086  0.1980 -0.1122  0.3169
 1533TIP3   OH226089   5.690   1.158   5.651  0.9240 -0.3599  0.5746
 1533TIP3    H126090   5.670   1.073   5.611 -0.1093 -0.6009  1.5637
 1533TIP3    H226091   5.691   1.219   5.578  1.4797 -1.1986 -0.1255
 1534TIP3   OH226092   4.450   1.703   4.817 -0.3468 -0.0531  0.4984
 1534TIP3    H126093   4.484   1.789   4.795  1.3598 -1.0308 -0.8501
 1534TIP3    H226094   4.505   1.642   4.767 -1.2048 -1.9370  1.7869
 1535TIP3   OH226095   6.645   6.791   1.058  1.0059 -0.6671  0.1046
 1535TIP3    H126096   6.565   6.842   1.047  1.2598  0.1622  1.8202
 1535TIP3    H226097   6.621   6.721   1.119  1.9466  0.5269  1.8953
 1536TIP3   OH226098   0.274   6.234  12.527 -0.5556  0.3804  0.6549
 1536TIP3    H126099   0.266   6.281  12.444  0.8248 -0.8231 -0.1783
 1536TIP3    H226100   0.322   6.154  12.505  0.9267  0.6212  2.8306
 1537TIP3   OH226101   2.556   4.650   1.923 -0.3543 -0.1436 -0.1971
 1537TIP3    H126102   2.642   4.676   1.890  1.3038 -3.7698  1.0714
 1537TIP3    H226103   2.517   4.600   1.851  0.2528 -1.8357  0.6294
 1538TIP3   OH226104   5.093   2.499  13.355  0.2808 -0.3405 -0.2362
 1538TIP3    H126105   5.065   2.437  13.422 -2.2780 -0.0434 -0.9827
 1538TIP3    H226106   5.115   2.445  13.279  3.4201 -0.6981  0.8267
 1539TIP3   OH226107   2.685   5.537  10.624 -0.0705  0.1975  0.3896
 1539TIP3    H126108   2.617   5.599  10.597  0.3537  0.6156  0.2703
 1539TIP3    H226109   2.646   5.451  10.613 -0.2411  0.3997 -0.6308
 1540TIP3   OH226110   5.370   2.652  16.560 -0.2539 -0.2324  0.0846
 1540TIP3    H126111   5.337   2.632  16.648  1.8520 -1.3681  0.6596
 1540TIP3    H226112   5.362   2.747  16.552 -2.3393 -0.3265  0.7031
 1541TIP3   OH226113   0.850   0.188  13.332 -0.5990  0.2511  1.0897
 1541TIP3    H126114   0.902   0.107  13.323 -0.4894  0.2483  1.7274
 1541TIP3    H226115   0.835   0.216  13.242  1.9350  1.1558  0.8992
 1542TIP3   OH226116   1.813   2.063   1.114  0.6890  0.2225  0.2018
 1542TIP3    H126117   1.874   1.990   1.108 -0.3340 -1.2187  5.2730
 1542TIP3    H226118   1.841   2.112   1.192 -1.3315  2.7325 -0.5594
 1543TIP3   OH226119   4.699   6.411   2.440  0.7223 -0.4372  0.2784
 1543TIP3    H126120   4.688   6.485   2.501 -0.1463  2.0559 -2.7668
 1543TIP3    H226121   4.610   6.378   2.427  0.4122  1.1698 -2.0818
 1544TIP3   OH226122   5.641   3.232  16.131  0.1215  0.3867  0.8726
 1544TIP3    H126123   5.708   3.282  16.085  0.3064  0.0747  0.8025
 1544TIP3    H226124   5.561   3.244  16.079  0.8389 -1.8003 -0.7732
 1545TIP3   OH226125   0.123   4.650   0.668 -0.0534  0.6466  0.4250
 1545TIP3    H126126   0.109   4.738   0.635 -0.1132  0.1076 -1.0613
 1545TIP3    H226127   0.084   4.593   0.601  0.9963 -0.5327  0.7798
 1546TIP3   OH226128   5.153   2.685  10.916 -0.6333 -0.1330  0.3195
 1546TIP3    H126129   5.065   2.653  10.936  0.1551 -2.2118  0.5764
 1546TIP3    H226130   5.197   2.686  11.001 -0.0358 -0.2321  0.0067
 1547TIP3   OH226131   6.488   1.060   3.954 -0.1236  0.0340  0.4198
 1547TIP3    H126132   6.509   1.038   4.044 -0.6678  0.4331  0.6509
 1547TIP3    H226133   6.568   1.044   3.905  0.0670 -0.5215  0.9171
 1548TIP3   OH226134   3.992   6.810   6.510 -0.2874  0.1246  0.5552
 1548TIP3    H126135   4.019   6.834   6.421 -2.0547 -1.4406 -0.4358
 1548TIP3    H226136   3.956   6.890   6.547 -2.5147  0.0341 -1.3098
 1549TIP3   OH226137   2.567   2.370  15.613 -0.3816 -0.0902 -0.2713
 1549TIP3    H126138   2.501   2.319  15.660  0.9210 -1.3021  0.2896
 1549TIP3    H226139   2.536   2.460  15.618  0.2229 -0.0295  3.8283
 1550TIP3   OH226140   1.906   0.439   5.444 -0.2632 -0.3408  0.4599
 1550TIP3    H126141   1.969   0.510   5.429 -2.6367  1.8225  0.3392
 1550TIP3    H226142   1.946   0.385   5.511  1.4451  1.3548  0.8452
 1551TIP3   OH226143   2.406   5.937  11.602 -0.3741  0.3434 -0.0173
 1551TIP3    H126144   2.420   5.893  11.518 -1.9689 -1.9267  0.8734
 1551TIP3    H226145   2.470   5.897  11.661 -0.7809  0.3280  0.4132
 1552TIP3   OH226146   0.115   0.941   3.925 -0.3061 -0.1810  0.2213
 1552TIP3    H126147   0.052   0.952   3.853  0.4672 -0.1249 -0.4490
 1552TIP3    H226148   0.071   0.882   3.986 -1.6549  1.0739  0.5013
 1553TIP3   OH226149   2.944   4.915   1.713 -0.4638 -0.3067 -0.2615
 1553TIP3    H126150   2.974   4.977   1.646  0.5963 -0.1806  0.3166
 1553TIP3    H226151   2.994   4.939   1.791 -1.2907 -0.8090  0.4257
 1554TIP3   OH226152   0.435   0.383   3.946 -0.0497 -0.2474  0.2684
 1554TIP3    H126153   0.526   0.358   3.931 -0.0483  0.3010 -0.7095
 1554TIP3    H226154   0.390   0.355   3.866 -1.0978 -2.2360  1.5341
 1555TIP3   OH226155   0.078   0.617  13.341 -0.0462  0.3495 -0.5563
 1555TIP3    H126156   0.048   0.707  13.328  1.3304  1.2620  2.1551
 1555TIP3    H226157   0.153   0.608  13.283  1.0442  1.6464  0.6105
 1556TIP3   OH226158   6.181   3.532   4.660 -0.4078  0.2672  0.2801
 1556TIP3    H126159   6.210   3.614   4.701  0.3925 -0.0562  0.3530
 1556TIP3    H226160   6.142   3.482   4.731 -0.7299  0.4975  0.2703
 1557TIP3   OH226161   2.192   0.993   4.571  0.6433 -0.5659 -0.2993
 1557TIP3    H126162   2.191   1.052   4.497  1.5936  1.7717  1.4906
 1557TIP3    H226163   2.141   1.038   4.639  0.8039 -2.1002  0.8752
 1558TIP3   OH226164   0.256   3.955   2.056  0.4655 -0.4323  0.0804
 1558TIP3    H126165   0.255   4.025   2.122 -0.1194 -0.7714  0.4266
 1558TIP3    H226166   0.349   3.940   2.039  0.5964  0.4722 -0.0343
 1559TIP3   OH226167   4.276   0.806   1.840  0.2465  0.0901  0.5564
 1559TIP3    H126168   4.188   0.812   1.877  0.2078  1.2781  0.3077
 1559TIP3    H226169   4.293   0.712   1.831 -1.4985 -0.1464 -0.5717
 1560TIP3   OH226170   2.966   0.622  15.359  0.1343  0.2415  0.1582
 1560TIP3    H126171   3.016   0.692  15.318 -1.5156  0.3011 -1.8165
 1560TIP3    H226172   2.918   0.665  15.431 -0.8687  1.1578 -1.0379
 1561TIP3   OH226173   5.488   5.254  13.844 -0.1491  0.1704  0.3699
 1561TIP3    H126174   5.462   5.184  13.786  1.4837 -0.0024 -0.1837
 1561TIP3    H226175   5.439   5.330  13.814 -1.1168 -0.4858  0.2961
 1562TIP3   OH226176   1.620   2.872  13.375  0.0569 -0.3311 -0.0678
 1562TIP3    H126177   1.713   2.895  13.376 -0.2705  1.0351  0.0740
 1562TIP3    H226178   1.575   2.955  13.360 -1.1783 -0.8387  0.7127
 1563TIP3   OH226179   2.358   3.494   0.924 -0.7606  0.0370  0.6069
 1563TIP3    H126180   2.305   3.538   0.858  0.7404 -0.0626 -0.7026
 1563TIP3    H226181   2.352   3.401   0.901 -1.5681 -0.1649  1.6140
 1564TIP3   OH226182   1.729   3.270  14.847  0.0879 -0.0700 -0.0998
 1564TIP3    H126183   1.774   3.241  14.767 -0.2824 -0.7252 -0.0714
 1564TIP3    H226184   1.766   3.215  14.916  0.0755  0.1834  0.1092
 1565TIP3   OH226185   6.526   4.080  12.064  0.1564  0.4116 -0.1972
 1565TIP3    H126186   6.570   4.164  12.075 -0.5041  0.7458 -0.0337
 1565TIP3    H226187   6.565   4.023  12.131  0.1517  0.7797  0.1240
 1566TIP3   OH226188   3.380   5.911  15.696  0.0817  0.4176 -0.6252
 1566TIP3    H126189   3.295   5.912  15.653  0.8430 -0.3566 -2.2139
 1566TIP3    H226190   3.425   5.835  15.659  0.3889 -0.9069  2.3608
 1567TIP3   OH226191   1.018   1.005   2.209 -0.7253  0.1166  0.0586
 1567TIP3    H126192   1.093   0.970   2.257  0.0339  2.5173  0.7107
 1567TIP3    H226193   1.057   1.054   2.137 -1.8292 -2.1743 -2.1668
 1568TIP3   OH226194   3.961   0.835  17.102  1.0946  0.7040  0.0573
 1568TIP3    H126195   3.963   0.744  17.132  0.7244  1.1054  1.3346
 1568TIP3    H226196   3.875   0.845  17.062  2.0361 -0.1747 -2.3149
 1569TIP3   OH226197   5.026   6.514  15.766 -0.6987 -0.4598 -0.2591
 1569TIP3    H126198   5.099   6.481  15.817  0.2869  0.6357 -0.9295
 1569TIP3    H226199   4.997   6.439  15.714 -0.5608 -1.1001  0.5889
 1570TIP3   OH226200   5.340   1.424  14.004  0.1688 -0.0443  0.2003
 1570TIP3    H126201   5.264   1.472  13.971  0.0919  2.0053  3.0767
 1570TIP3    H226202   5.304   1.346  14.046 -0.3360  0.6304  1.0431
 1571TIP3   OH226203   1.585   0.153   0.470  0.5399  0.2702 -0.8369
 1571TIP3    H126204   1.620   0.206   0.542 -1.3252  0.3407  0.0465
 1571TIP3    H226205   1.645   0.168   0.397  0.9015  2.4105 -0.1314
 1572TIP3   OH226206   5.307   1.820   0.668 -0.0769  0.1138 -0.0988
 1572TIP3    H126207   5.300   1.745   0.727 -1.5481 -0.7178 -1.2849
 1572TIP3    H226208   5.349   1.888   0.720  0.8077 -1.3601  1.1639
 1573TIP3   OH226209   2.784   4.705   4.779  0.1197  0.1937 -0.4523
 1573TIP3    H126210   2.873   4.741   4.775  0.3591 -0.0117  2.1011
 1573TIP3    H226211   2.751   4.712   4.689  3.1030 -0.7573 -1.6720
 1574TIP3   OH226212   4.903   0.695   3.754  0.2979  0.3121  0.4545
 1574TIP3    H126213   4.995   0.720   3.741  0.3822  0.1171  0.6541
 1574TIP3    H226214   4.853   0.768   3.720  0.5418  0.9374  1.4368
 1575TIP3   OH226215   2.298   5.108   3.504 -0.2963  0.1877  0.8962
 1575TIP3    H126216   2.266   5.089   3.592 -0.7535  0.0647  0.7020
 1575TIP3    H226217   2.262   5.039   3.449  0.1513  0.1508  0.6418
 1576TIP3   OH226218   1.082   3.272  13.308  0.1339 -1.0475  0.1307
 1576TIP3    H126219   0.991   3.255  13.331  0.0322  0.6342  1.1007
 1576TIP3    H226220   1.128   3.270  13.392  0.5257  0.7852 -0.0242
 1577TIP3   OH226221   1.795   0.431  13.689 -0.6370 -0.4997 -0.1939
 1577TIP3    H126222   1.786   0.337  13.674 -0.9000 -0.1922 -2.1062
 1577TIP3    H226223   1.854   0.461  13.620 -0.9363  0.8148  0.1062
 1578TIP3   OH226224   6.240   0.950  13.606 -0.0403 -0.0244  0.6861
 1578TIP3    H126225   6.275   0.959  13.695 -1.4519  0.1681  1.2239
 1578TIP3    H226226   6.150   0.981  13.612  0.2947  1.3886 -1.1313
 1579TIP3   OH226227   1.717   3.357  12.200  0.3219  0.0751  0.1191
 1579TIP3    H126228   1.694   3.276  12.247  0.9622  0.2857  0.8097
 1579TIP3    H226229   1.633   3.396  12.177  0.0122 -0.8473 -0.3072
 1580TIP3   OH226230   0.732   6.547  16.430  0.4613 -0.3350  0.6292
 1580TIP3    H126231   0.709   6.573  16.520  0.7341  0.5956  0.4289
 1580TIP3    H226232   0.820   6.580  16.417  1.3727 -2.5656  0.8465
 1581TIP3   OH226233   5.105   2.687   2.931  0.0687 -0.7052 -0.1709
 1581TIP3    H126234   5.046   2.639   2.873  1.0827  0.1098 -1.9266
 1581TIP3    H226235   5.068   2.775   2.936  0.9654 -0.2707 -1.0514
 1582TIP3   OH226236   1.208   6.720   3.955  0.0941  0.5932 -0.0584
 1582TIP3    H126237   1.119   6.694   3.978  1.0455 -0.9435  1.9847
 1582TIP3    H226238   1.263   6.650   3.987  2.1740  2.0990 -0.2168
 1583TIP3   OH226239   1.856   4.072  12.279  0.4747 -0.3344  0.1977
 1583TIP3    H126240   1.855   4.012  12.353 -0.9837  1.3598  1.5943
 1583TIP3    H226241   1.807   4.026  12.211 -0.8254 -0.6546  1.3302
 1584TIP3   OH226242   4.587   5.714  16.463 -0.2138 -0.1341 -0.0581
 1584TIP3    H126243   4.648   5.769  16.415  1.3738 -1.3427  0.5203
 1584TIP3    H226244   4.621   5.625  16.450 -2.2027 -0.8966 -0.2275
 1585TIP3   OH226245   5.019   6.455   0.619 -0.1657 -0.1440 -0.3262
 1585TIP3    H126246   5.081   6.441   0.690 -1.2875  0.3582  0.7751
 1585TIP3    H226247   4.993   6.547   0.628 -2.1678 -0.7160  0.1550
 1586TIP3   OH226248   6.221   4.845  14.015  0.1881  0.3555  0.4590
 1586TIP3    H126249   6.189   4.898  13.942  1.2276  1.1868  0.5898
 1586TIP3    H226250   6.297   4.894  14.048  1.0678 -1.1324  0.6890
 1587TIP3   OH226251   0.463   4.457   3.894 -0.3651 -0.4145 -0.0134
 1587TIP3    H126252   0.496   4.385   3.840  0.4080  0.4456 -0.6967
 1587TIP3    H226253   0.527   4.527   3.883 -0.5035 -0.0223  1.5660
 1588TIP3   OH226254   0.158   1.025  16.668  0.2581  0.0299  0.2270
 1588TIP3    H126255   0.218   1.064  16.731 -1.2009  2.6343  0.0949
 1588TIP3    H226256   0.200   1.038  16.583  0.6701 -0.4112  0.3681
 1589TIP3   OH226257   0.914   3.502   0.590  0.2426 -0.4600  0.3101
 1589TIP3    H126258   0.921   3.525   0.497 -1.2531  1.3287  0.6158
 1589TIP3    H226259   0.824   3.524   0.613  1.3348  1.5886  2.8420
 1590TIP3   OH226260   0.121   5.419  13.629 -0.5408 -0.2199  0.2383
 1590TIP3    H126261   0.105   5.510  13.652 -0.5264 -0.1184 -0.1496
 1590TIP3    H226262   0.074   5.406  13.547 -0.9568 -0.6971  0.5493
 1591TIP3   OH226263   5.354   5.551   0.038  0.0857  0.2678  0.1692
 1591TIP3    H126264   5.427   5.556   0.100  1.4795  0.0752 -1.4315
 1591TIP3    H226265   5.320   5.462   0.049 -0.7029  0.7361  1.7668
 1592TIP3   OH226266   5.658   2.512  16.636  0.5143  0.2109  0.3487
 1592TIP3    H126267   5.728   2.576  16.624  1.3669 -0.6461  0.6156
 1592TIP3    H226268   5.596   2.555  16.695  0.8357  0.9648  0.1435
 1593TIP3   OH226269   0.997   2.226   4.177 -0.6834  0.2814 -0.1897
 1593TIP3    H126270   0.945   2.281   4.118 -1.5850  0.5174  0.8173
 1593TIP3    H226271   1.036   2.287   4.239  0.0110  0.0026 -0.3517
 1594TIP3   OH226272   5.357   2.499   5.173  0.3454 -0.0687  0.3798
 1594TIP3    H126273   5.265   2.473   5.168 -0.0095  0.9119  1.6923
 1594TIP3    H226274   5.394   2.469   5.090 -0.7609 -1.9856  0.5255
 1595TIP3   OH226275   1.668   5.642  11.684 -0.0560 -0.1508  0.7614
 1595TIP3    H126276   1.610   5.584  11.635  0.1997 -0.3581  0.7024
 1595TIP3    H226277   1.628   5.650  11.771 -0.0693 -0.4456  0.7796
 1596TIP3   OH226278   1.307   5.287   4.422 -0.6315  0.5851 -0.0441
 1596TIP3    H126279   1.289   5.323   4.336 -0.5795  1.0896  0.1549
 1596TIP3    H226280   1.363   5.211   4.406 -0.3594  0.8708 -0.4264
 1597TIP3   OH226281   4.203   1.168  13.832  0.3916 -0.1341 -0.0438
 1597TIP3    H126282   4.260   1.174  13.908  0.7250 -0.6270 -0.2570
 1597TIP3    H226283   4.233   1.091  13.785 -1.1403 -1.0545  0.4224
 1598TIP3   OH226284   0.692   0.489   4.940  0.4628 -0.4387 -0.0256
 1598TIP3    H126285   0.648   0.451   5.016  1.4786  0.1663  0.8804
 1598TIP3    H226286   0.687   0.422   4.872  1.1931 -1.7160  1.1827
 1599TIP3   OH226287   2.680   0.206   3.566 -0.2417 -0.1046  0.2843
 1599TIP3    H126288   2.680   0.290   3.613  1.7607 -0.1401  0.3774
 1599TIP3    H226289   2.763   0.166   3.589 -0.6308 -1.5586 -0.7984
 1600TIP3   OH226290   3.385   4.035   2.766 -0.1342 -0.3217 -0.3335
 1600TIP3    H126291   3.466   4.040   2.716  1.0690  2.5226  1.7611
 1600TIP3    H226292   3.315   4.043   2.701  1.2714 -1.3372 -2.0053
 1601TIP3   OH226293   4.925   5.401  13.417 -0.8929 -0.1104 -0.1964
 1601TIP3    H126294   4.974   5.326  13.385  0.4831  0.4552  0.5383
 1601TIP3    H226295   4.946   5.405  13.511 -0.6766  1.3893 -0.2959
 1602TIP3   OH226296   5.436   2.635  15.579  0.0224  0.2136 -0.0656
 1602TIP3    H126297   5.432   2.541  15.595 -0.8938  0.1244 -0.8025
 1602TIP3    H226298   5.359   2.654  15.526  1.0553  1.1022 -1.2823
 1603TIP3   OH226299   4.363   4.340  14.403  0.1365  0.0250  0.7752
 1603TIP3    H126300   4.334   4.324  14.493  3.7370 -2.1899  1.6279
 1603TIP3    H226301   4.414   4.421  14.408 -0.2945  0.3123  0.5616
 1604TIP3   OH226302   0.552   1.857   3.598  0.0472 -0.4313  0.5541
 1604TIP3    H126303   0.598   1.930   3.557 -0.3597 -0.5617 -0.1307
 1604TIP3    H226304   0.615   1.785   3.598  0.0208 -0.4518  0.1003
 1605TIP3   OH226305   2.946   1.770   0.398 -1.1475  0.4000 -0.1512
 1605TIP3    H126306   3.009   1.722   0.451 -0.3108  0.9534 -0.6384
 1605TIP3    H226307   2.988   1.782   0.314 -0.8110  3.0491  0.3272
 1606TIP3   OH226308   4.903   3.583   1.123 -0.0254 -0.0449 -0.0966
 1606TIP3    H126309   4.905   3.607   1.216 -0.4135 -0.5202  0.0389
 1606TIP3    H226310   4.898   3.667   1.077 -1.2495  0.1468  0.3620
 1607TIP3   OH226311   3.725   4.029  12.607 -0.3170 -0.1778 -0.2299
 1607TIP3    H126312   3.730   4.099  12.541  0.2936 -0.5033 -0.5404
 1607TIP3    H226313   3.688   4.071  12.684 -1.7178  0.0383 -1.0116
 1608TIP3   OH226314   6.263   1.170  14.127  0.2348  0.2967  0.1411
 1608TIP3    H126315   6.190   1.143  14.072 -0.6265 -0.6419  1.7118
 1608TIP3    H226316   6.225   1.233  14.188  0.4158 -1.1366  1.7809
 1609TIP3   OH226317   0.256   0.506  16.343  0.6729  0.7103 -0.1384
 1609TIP3    H126318   0.255   0.591  16.388 -0.1404  0.2029  0.8076
 1609TIP3    H226319   0.317   0.453  16.394  1.3659  0.7966 -0.8702
 1610TIP3   OH226320   6.163   6.021  12.416 -0.2485  0.4912 -0.0966
 1610TIP3    H126321   6.157   5.997  12.324  1.6414 -2.5673  0.4867
 1610TIP3    H226322   6.242   6.075  12.422  0.0245  0.1064 -0.1863
 1611TIP3   OH226323   0.530   5.354   2.931 -0.0928  0.0650 -0.3235
 1611TIP3    H126324   0.619   5.337   2.901  0.5651 -0.9849  2.1303
 1611TIP3    H226325   0.538   5.434   2.982 -0.5248 -0.1605  0.0907
 1612TIP3   OH226326   2.538   1.458   1.252  0.7016 -0.2146  0.0124
 1612TIP3    H126327   2.618   1.476   1.203  0.2054 -0.6668 -0.9729
 1612TIP3    H226328   2.471   1.508   1.206  0.4464  0.3139  0.9508
 1613TIP3   OH226329   4.929   0.836   1.144  0.3565  0.0594 -0.0555
 1613TIP3    H126330   4.968   0.870   1.063 -1.9028 -2.1617 -2.1365
 1613TIP3    H226331   4.985   0.763   1.169  1.5010  1.2198  0.8738
 1614TIP3   OH226332   5.872   5.821  14.951  0.1722  0.3023 -0.4005
 1614TIP3    H126333   5.852   5.727  14.951  0.7193  0.1843 -0.1026
 1614TIP3    H226334   5.804   5.860  14.896  0.6673 -0.4355 -1.5779
 1615TIP3   OH226335   6.272   5.068   5.092  0.8737  0.3017 -0.1210
 1615TIP3    H126336   6.262   5.127   5.017 -0.8563 -0.5574 -0.6011
 1615TIP3    H226337   6.211   5.103   5.158  0.1141 -0.7216 -0.2711
 1616TIP3   OH226338   5.807   6.138  13.777  0.5602 -0.0026 -0.6103
 1616TIP3    H126339   5.785   6.214  13.723  1.0589 -1.4724 -2.9840
 1616TIP3    H226340   5.897   6.116  13.752  0.8357 -0.6519  0.9161
 1617TIP3   OH226341   0.793   4.248  15.986  0.7639  0.6790 -0.1533
 1617TIP3    H126342   0.733   4.224  16.057 -0.5759 -0.1908 -1.5584
 1617TIP3    H226343   0.845   4.169  15.971  2.1854  1.3691  0.9295
 1618TIP3   OH226344   2.264   6.375   1.393  0.4389  0.6432 -0.4517
 1618TIP3    H126345   2.178   6.417   1.389 -0.8494 -2.0351 -2.1343
 1618TIP3    H226346   2.259   6.317   1.468  0.2591 -0.5703 -1.3877
 1619TIP3   OH226347   2.022   4.211  13.738 -0.0527 -0.2010 -0.6014
 1619TIP3    H126348   2.002   4.297  13.702 -0.3489  0.2290  0.5425
 1619TIP3    H226349   2.105   4.222  13.784 -0.5360 -0.2905  0.3061
 1620TIP3   OH226350   5.075   3.618  13.034 -0.7942 -0.4255  0.2319
 1620TIP3    H126351   5.010   3.669  12.986 -0.0267  1.4604  1.1818
 1620TIP3    H226352   5.025   3.576  13.104 -0.8295  1.7992  1.5512
 1621TIP3   OH226353   3.016   5.951   5.761 -0.1428 -0.3419 -0.0823
 1621TIP3    H126354   3.044   5.962   5.851  1.5040 -2.1155 -0.3337
 1621TIP3    H226355   2.937   6.004   5.753  1.3465  2.2055  1.5749
 1622TIP3   OH226356   2.541   1.587  15.074  0.4510  0.1960 -0.0021
 1622TIP3    H126357   2.615   1.549  15.026  0.0052  0.6359 -1.0562
 1622TIP3    H226358   2.464   1.562  15.023 -0.1747 -0.5794  1.2909
 1623TIP3   OH226359   1.607   4.719   0.422  0.0701  0.6243 -0.2020
 1623TIP3    H126360   1.587   4.803   0.382 -0.7351  0.9476  0.8643
 1623TIP3    H226361   1.703   4.716   0.424  0.1028  1.3121 -0.6542
 1624TIP3   OH226362   5.436   1.526  12.611 -0.0706  0.4305 -0.4781
 1624TIP3    H126363   5.370   1.550  12.676 -2.5515 -1.0317 -2.3482
 1624TIP3    H226364   5.512   1.498  12.662 -1.0715  1.6269  1.7302
 1625TIP3   OH226365   2.734   6.236   1.588 -0.0908  0.8680  0.0959
 1625TIP3    H126366   2.783   6.307   1.547  1.3310  0.3656  0.8792
 1625TIP3    H226367   2.681   6.280   1.655  0.2287  1.2681  0.0904
 1626TIP3   OH226368   5.922   6.045   5.351 -0.1722 -0.0342 -0.0706
 1626TIP3    H126369   5.913   6.025   5.258  1.3080  2.3021 -0.7829
 1626TIP3    H226370   5.986   5.982   5.384  0.7045  0.2989 -1.0992
 1627TIP3   OH226371   5.910   0.569   3.029 -0.0711  0.3034 -0.4116
 1627TIP3    H126372   5.924   0.596   3.119 -0.6962 -1.1412  0.1440
 1627TIP3    H226373   5.918   0.473   3.031 -1.5099  0.1369 -1.6140
 1628TIP3   OH226374   4.798   4.945   1.396  0.3200 -0.1831 -0.1259
 1628TIP3    H126375   4.755   4.914   1.317 -0.6378  1.4163 -0.2701
 1628TIP3    H226376   4.734   4.932   1.466 -0.1602  1.5720 -0.2203
 1629TIP3   OH226377   6.183   4.553   2.045 -0.0170 -0.1486  0.1147
 1629TIP3    H126378   6.151   4.536   1.956 -0.5731 -0.0906  0.2963
 1629TIP3    H226379   6.171   4.469   2.090 -1.8568  0.4121  0.7470
 1630TIP3   OH226380   4.867   4.727  15.659 -0.1921 -0.0247  0.0776
 1630TIP3    H126381   4.828   4.787  15.724 -1.0143  2.3379 -2.5133
 1630TIP3    H226382   4.800   4.720  15.591  1.3134 -1.2132 -1.2870
 1631TIP3   OH226383   3.911   4.354  13.756 -0.3462  0.3473  0.4382
 1631TIP3    H126384   3.925   4.388  13.668  3.7574 -1.1630  0.4348
 1631TIP3    H226385   3.909   4.432  13.811 -0.8434  1.1638 -0.7128
 1632TIP3   OH226386   2.475   4.185  15.074  0.3446 -0.1704  0.0233
 1632TIP3    H126387   2.534   4.112  15.055  0.4191  0.0187 -0.4815
 1632TIP3    H226388   2.387   4.145  15.071  0.4744 -0.5830  1.4186
 1633TIP3   OH226389   2.395   5.356   0.989  0.5041 -0.0278 -0.0665
 1633TIP3    H126390   2.405   5.448   0.963 -1.6029  0.0339 -0.7218
 1633TIP3    H226391   2.306   5.351   1.025  0.2649 -2.0177 -0.8934
 1634TIP3   OH226392   1.925   2.396  15.746 -0.1731 -1.0851  0.4477
 1634TIP3    H126393   1.897   2.418  15.657  3.0716 -0.7168 -0.5738
 1634TIP3    H226394   1.858   2.337  15.779 -1.3639 -1.3567 -2.3243
 1635TIP3   OH226395   5.959   3.372  13.443 -0.2379  0.1310  0.7643
 1635TIP3    H126396   5.927   3.463  13.436 -0.5833 -0.0537 -0.2597
 1635TIP3    H226397   6.033   3.377  13.503  0.7443  1.3654 -0.4960
 1636TIP3   OH226398   3.217   5.857   2.485  0.1755 -0.5864 -0.0426
 1636TIP3    H126399   3.245   5.834   2.396  0.0927 -1.2151  0.0986
 1636TIP3    H226400   3.132   5.815   2.495 -0.9111  1.3973 -0.5062
 1637TIP3   OH226401   0.905   2.892  12.740  0.0274 -0.5203  0.4000
 1637TIP3    H126402   0.931   2.855  12.825 -1.1409 -0.9160  0.6046
 1637TIP3    H226403   0.848   2.966  12.763 -0.0417 -0.4399 -0.0376
 1638TIP3   OH226404   0.705   3.450  16.218  0.5724  0.3635  0.6858
 1638TIP3    H126405   0.635   3.389  16.195  0.2824  0.8191  0.3462
 1638TIP3    H226406   0.742   3.476  16.134  1.9336 -0.7822  0.9189
 1639TIP3   OH226407   6.441   5.753   0.467 -0.0067 -0.5089  0.0768
 1639TIP3    H126408   6.382   5.788   0.534 -2.3317 -1.8265 -1.1945
 1639TIP3    H226409   6.517   5.721   0.515  0.8343  3.4522  1.5292
 1640TIP3   OH226410   2.233   3.111   2.575  0.0681  0.7521  0.4114
 1640TIP3    H126411   2.294   3.176   2.541 -0.7100  0.4475 -1.6165
 1640TIP3    H226412   2.229   3.044   2.507  0.0747 -0.9155  2.0319
 1641TIP3   OH226413   1.825   0.512  15.527 -0.2551 -0.4258  0.8290
 1641TIP3    H126414   1.804   0.586  15.584 -0.8372 -0.4327  0.6231
 1641TIP3    H226415   1.853   0.443  15.587 -3.3547 -1.3201  1.3654
 1642TIP3   OH226416   1.607   5.950  15.395 -0.2108  0.6573 -0.7570
 1642TIP3    H126417   1.538   5.889  15.423  0.7812 -0.4261 -0.6243
 1642TIP3    H226418   1.603   5.950  15.300  0.5748 -0.5675 -0.8021
 1643TIP3   OH226419   4.257   4.160   0.662 -0.3426 -0.1343  0.4735
 1643TIP3    H126420   4.218   4.198   0.741 -1.2011  1.2681 -0.6083
 1643TIP3    H226421   4.192   4.097   0.631 -0.5473  0.2160  0.1927
 1644TIP3   OH226422   2.694   0.644  13.275 -0.0333  0.2150  0.6190
 1644TIP3    H126423   2.708   0.714  13.212 -2.5123 -1.1935 -1.6006
 1644TIP3    H226424   2.600   0.626  13.271  0.1715 -1.6114  2.8702
 1645TIP3   OH226425   2.506   4.104   0.671 -0.3978 -0.1898 -0.2461
 1645TIP3    H126426   2.418   4.100   0.633 -0.3332 -0.0611 -0.4070
 1645TIP3    H226427   2.490   4.118   0.765 -0.5570 -0.6202 -0.2082
 1646TIP3   OH226428   0.440   3.213   3.939 -0.4025 -0.0290  0.5487
 1646TIP3    H126429   0.423   3.176   4.025  1.8285  0.1023  1.0702
 1646TIP3    H226430   0.353   3.232   3.903 -1.4093 -1.7889  2.0043
 1647TIP3   OH226431   0.910   6.056   6.354 -0.1591 -0.1228  0.0474
 1647TIP3    H126432   0.907   6.115   6.279 -0.7625  0.2201  0.3395
 1647TIP3    H226433   0.996   6.071   6.393  1.7515 -3.0848 -2.7972
 1648TIP3   OH226434   3.967   1.113   6.041  0.5355  0.0479  0.5741
 1648TIP3    H126435   4.059   1.092   6.056  0.5193 -0.3180  0.1862
 1648TIP3    H226436   3.926   1.109   6.127  1.1582  1.5910  0.9614
 1649TIP3   OH226437   3.847   3.346   5.214 -0.2021  0.0156  0.6418
 1649TIP3    H126438   3.820   3.425   5.260 -0.0376 -0.2062  1.1245
 1649TIP3    H226439   3.784   3.280   5.242 -0.6942  0.1239 -0.2225
 1650TIP3   OH226440   3.079   3.543  16.396 -0.0493  1.0098 -0.0084
 1650TIP3    H126441   3.170   3.571  16.394 -0.0549  0.9492 -0.9166
 1650TIP3    H226442   3.046   3.560  16.308 -0.7378  0.4387  0.1331
 1651TIP3   OH226443   5.006   3.685   6.069 -0.1068  0.1354 -0.2067
 1651TIP3    H126444   5.050   3.659   6.149 -1.5264  1.0992  0.9216
 1651TIP3    H226445   4.919   3.647   6.075 -0.3179  0.4359 -1.1623
 1652TIP3   OH226446   2.254   6.515   5.233  0.9817  0.3536  0.1777
 1652TIP3    H126447   2.308   6.475   5.165 -0.4590 -0.0737 -0.7335
 1652TIP3    H226448   2.202   6.443   5.268  1.1617  0.7151  1.2166
 1653TIP3   OH226449   1.204   0.472  15.681  0.1770  0.9954  0.2027
 1653TIP3    H126450   1.253   0.440  15.757 -1.8836  0.3710  1.3235
 1653TIP3    H226451   1.204   0.398  15.620  0.0942  0.7693  0.4718
 1654TIP3   OH226452   1.014   3.617  17.213  0.9064 -0.3114  0.6177
 1654TIP3    H126453   1.037   3.552  17.146  0.1076 -0.1179  0.1602
 1654TIP3    H226454   0.919   3.618  17.214  0.8842 -1.0698  2.4879
 1655TIP3   OH226455   4.804   2.769  14.490  0.1508 -0.0823 -0.4990
 1655TIP3    H126456   4.776   2.685  14.527  0.8084 -0.2204 -0.2964
 1655TIP3    H226457   4.856   2.809  14.560 -0.0599  0.4377 -0.6428
 1656TIP3   OH226458   4.821   0.951   0.064  0.0860  0.1949 -0.3386
 1656TIP3    H126459   4.816   1.024   0.003 -2.2282  0.0794 -0.3252
 1656TIP3    H226460   4.782   0.877   0.017  0.8823 -0.6178  0.2538
 1657TIP3   OH226461   4.435   0.561  13.770 -0.5938 -0.4048  0.2543
 1657TIP3    H126462   4.395   0.603  13.694 -0.0242  0.7355  0.5707
 1657TIP3    H226463   4.440   0.468  13.746 -0.4783 -0.0682 -1.0727
 1658TIP3   OH226464   3.291   2.506  14.296  0.0908 -0.3190  0.4004
 1658TIP3    H126465   3.360   2.441  14.311  0.5549  0.3647  1.2782
 1658TIP3    H226466   3.269   2.539  14.383 -1.1299 -0.2940  0.0965
 1659TIP3   OH226467   5.684   4.318  17.180  0.4850  1.2897  0.1785
 1659TIP3    H126468   5.670   4.281  17.092 -0.2517 -1.1818  1.2853
 1659TIP3    H226469   5.640   4.257  17.238 -0.6483  3.9276  2.1438
 1660TIP3   OH226470   1.829   0.421  12.797  0.6658  0.0067 -0.2561
 1660TIP3    H126471   1.752   0.386  12.754  1.0392 -0.8688 -0.2343
 1660TIP3    H226472   1.825   0.515  12.783 -0.5587 -0.0034  0.0031
 1661TIP3   OH226473   2.696   3.262   2.808  0.0266 -0.3786  0.7814
 1661TIP3    H126474   2.692   3.352   2.840  1.0180  0.0817 -0.3242
 1661TIP3    H226475   2.736   3.270   2.721  1.2240 -2.0020  1.1640
 1662TIP3   OH226476   1.468   6.776   1.967  0.1036 -0.7859  0.8262
 1662TIP3    H126477   1.453   6.681   1.959  1.2471 -0.8728 -0.3691
 1662TIP3    H226478   1.503   6.787   2.055  1.1517 -1.6411  0.5298
 1663TIP3   OH226479   1.272   1.241   2.306 -0.1895 -0.2646  0.2139
 1663TIP3    H126480   1.192   1.193   2.283 -0.5896  0.4075  0.1864
 1663TIP3    H226481   1.287   1.219   2.398 -3.5509  3.9095  1.9412
 1664TIP3   OH226482   1.985   0.548   3.520  0.0630  0.1164  0.3843
 1664TIP3    H126483   2.067   0.510   3.550 -0.2589 -4.4744 -4.0166
 1664TIP3    H226484   1.917   0.491   3.555 -1.0152  1.4130  0.4736
 1665TIP3   OH226485   4.857   1.661  11.866 -0.5459  0.3177  1.0941
 1665TIP3    H126486   4.807   1.667  11.784 -0.4477 -0.3423  0.9895
 1665TIP3    H226487   4.795   1.688  11.934 -0.9806 -0.2952  0.9404
 1666TIP3   OH226488   5.475   6.371   0.188  0.0393 -0.2083  0.7050
 1666TIP3    H126489   5.475   6.308   0.116 -1.4054  0.7112 -0.1297
 1666TIP3    H226490   5.561   6.411   0.186 -0.4757  0.8437 -1.4497
 1667TIP3   OH226491   3.385   4.891  15.376  0.4232 -0.0955  0.3239
 1667TIP3    H126492   3.302   4.912  15.334  0.3313 -0.5751  0.2679
 1667TIP3    H226493   3.379   4.930  15.463  0.3330  0.2938  0.1438
 1668TIP3   OH226494   5.963   3.773   0.847  0.3533 -0.2520 -0.3403
 1668TIP3    H126495   5.965   3.803   0.938 -0.6939 -3.2208  0.7196
 1668TIP3    H226496   6.056   3.760   0.825  0.5195 -1.6425  1.0771
 1669TIP3   OH226497   6.160   6.300   6.129  0.2110  0.4698 -0.2238
 1669TIP3    H126498   6.138   6.209   6.150 -1.0077  0.7506 -0.2522
 1669TIP3    H226499   6.231   6.293   6.065 -1.6956 -0.5307 -2.3116
 1670TIP3   OH226500   5.632   5.287   2.420 -0.4781  0.4703  0.6772
 1670TIP3    H126501   5.646   5.234   2.341 -0.1387  2.0738 -0.3627
 1670TIP3    H226502   5.537   5.295   2.426 -0.5283 -0.1532  0.7806
 1671TIP3   OH226503   1.467   2.767   1.102  0.7229  0.2845  0.5072
 1671TIP3    H126504   1.412   2.811   1.036 -0.5990 -0.9124  0.7758
 1671TIP3    H226505   1.525   2.711   1.051 -1.5112 -2.0173  0.3627
 1672TIP3   OH226506   0.564   2.347   3.467 -0.3266 -0.0403 -0.7146
 1672TIP3    H126507   0.562   2.441   3.482 -0.0675 -0.1656  0.1474
 1672TIP3    H226508   0.492   2.331   3.407  2.1568  1.2521 -4.1549
 1673TIP3   OH226509   4.480   0.878   3.753  0.0658 -0.1051  0.0805
 1673TIP3    H126510   4.414   0.946   3.770 -1.7386 -1.8410  0.1625
 1673TIP3    H226511   4.549   0.925   3.706 -1.7778  1.5379 -1.1376
 1674TIP3   OH226512   0.725   3.415  16.486  0.1752 -0.2134 -0.2114
 1674TIP3    H126513   0.722   3.462  16.403  1.7351 -1.3276 -0.9215
 1674TIP3    H226514   0.657   3.456  16.539  0.4067  1.7434 -1.3832
 1675TIP3   OH226515   2.791   2.452  12.996  0.7828  0.5192  0.3118
 1675TIP3    H126516   2.821   2.456  13.087  0.5079 -0.8830  0.4871
 1675TIP3    H226517   2.832   2.372  12.961 -1.1106 -0.3235 -0.0336
 1676TIP3   OH226518   5.719   0.429  12.650 -0.1080 -0.0969  0.3250
 1676TIP3    H126519   5.762   0.364  12.706  0.4606  1.5771  1.8754
 1676TIP3    H226520   5.627   0.405  12.651  0.0684 -0.7627  1.0566
 1677TIP3   OH226521   3.239   4.293  13.090  0.1529  0.1786 -0.3009
 1677TIP3    H126522   3.294   4.346  13.032 -0.1097  1.0285  0.2100
 1677TIP3    H226523   3.266   4.319  13.178 -0.3737 -0.1204 -0.0496
 1678TIP3   OH226524   4.151   6.177  16.157 -0.1570 -0.5060  0.1774
 1678TIP3    H126525   4.189   6.261  16.182 -0.9938 -0.2428  0.5861
 1678TIP3    H226526   4.056   6.193  16.157 -0.2553 -1.0115 -1.2897
 1679TIP3   OH226527   3.373   2.743  13.290  0.3709  0.1077 -0.0526
 1679TIP3    H126528   3.396   2.681  13.221  1.4713 -1.7396  1.8935
 1679TIP3    H226529   3.278   2.748  13.288  0.3758 -0.1298 -1.4847
 1680TIP3   OH226530   4.236   5.885  12.555  0.1141 -0.4957  0.3622
 1680TIP3    H126531   4.165   5.943  12.583  0.1918  0.9321 -2.2817
 1680TIP3    H226532   4.306   5.944  12.527  1.1917 -1.8797  0.0756
 1681TIP3   OH226533   0.137   0.659  14.790 -0.2573  0.1315 -0.8125
 1681TIP3    H126534   0.082   0.702  14.724 -1.2501  0.0028 -0.0907
 1681TIP3    H226535   0.074   0.616  14.848  0.5468  1.0034  0.7439
 1682TIP3   OH226536   4.932   2.316  14.388  0.0337  0.5656  0.3886
 1682TIP3    H126537   4.931   2.402  14.346  2.0887  0.4946  0.1522
 1682TIP3    H226538   4.901   2.334  14.477 -1.2270  1.2396 -0.1638
 1683TIP3   OH226539   0.690   0.957  14.617  0.7576 -0.2566  0.3039
 1683TIP3    H126540   0.739   0.931  14.539  0.3653  1.0007 -0.3721
 1683TIP3    H226541   0.698   1.052  14.620 -1.9550  0.0015 -0.0317
 1684TIP3   OH226542   1.504   5.897  15.088  0.8268 -0.0121  0.2575
 1684TIP3    H126543   1.431   5.843  15.119 -1.2188  2.4672 -0.1081
 1684TIP3    H226544   1.485   5.914  14.996  1.5843  1.0923  0.2879
 1685TIP3   OH226545   4.660   1.171   5.862 -0.3434  0.5611  0.1396
 1685TIP3    H126546   4.589   1.222   5.900 -0.8077  0.5856 -0.7455
 1685TIP3    H226547   4.710   1.139   5.937 -0.4251  1.7789  0.7127
 1686TIP3   OH226548   1.672   6.596   0.304  0.0848 -0.3853  0.0137
 1686TIP3    H126549   1.716   6.603   0.389 -0.5629  1.0068  0.2414
 1686TIP3    H226550   1.603   6.531   0.318 -0.2317  0.0802  0.6525
 1687TIP3   OH226551   1.899   3.214   0.006  0.4536 -0.2036  0.6220
 1687TIP3    H126552   1.889   3.307   0.026 -0.2315 -0.0711 -0.2758
 1687TIP3    H226553   1.972   3.186   0.060 -0.2039  0.5331  1.9299
 1688TIP3   OH226554   0.673   4.654   4.183  0.2257  0.0573  0.5382
 1688TIP3    H126555   0.703   4.627   4.096  1.2733  1.1722  0.5401
 1688TIP3    H226556   0.583   4.623   4.188  0.5708 -1.1512 -0.4476
 1689TIP3   OH226557   5.908   3.562   3.196 -0.3111 -0.0087 -0.1203
 1689TIP3    H126558   5.874   3.486   3.243  0.5050 -0.3774 -0.1025
 1689TIP3    H226559   5.838   3.626   3.199  0.2017  0.4714  2.7675
 1690TIP3   OH226560   2.063   3.439  14.792 -0.2988  0.7523 -0.3860
 1690TIP3    H126561   2.159   3.447  14.793 -0.2076 -0.2156 -0.2869
 1690TIP3    H226562   2.031   3.522  14.828  0.5328  0.7242  0.4398
 1691TIP3   OH226563   4.917   3.524   6.824  0.4039  0.7379 -0.1547
 1691TIP3    H126564   4.936   3.454   6.762  0.0494 -2.1200  2.7779
 1691TIP3    H226565   4.984   3.590   6.808  0.3313  0.0675 -3.4949
 1692TIP3   OH226566   5.435   2.342   2.600 -0.3242 -0.0583 -0.2864
 1692TIP3    H126567   5.399   2.390   2.675  0.5412 -1.7270  1.2502
 1692TIP3    H226568   5.456   2.409   2.536 -0.6797  1.4595  1.1476
 1693TIP3   OH226569   2.485   5.554   0.058  0.3351  0.2555 -0.0696
 1693TIP3    H126570   2.463   5.548   0.151 -1.0665 -2.7305 -0.5375
 1693TIP3    H226571   2.408   5.593   0.017  0.2763 -0.0444 -0.2403
 1694TIP3   OH226572   2.208   0.021  13.483 -0.6685 -0.3057  0.3680
 1694TIP3    H126573   2.276   0.060  13.537 -0.5928  0.5623 -0.3571
 1694TIP3    H226574   2.185  -0.060  13.529  1.4391 -1.0341  0.1635
 1695TIP3   OH226575   1.366   6.367   4.857 -0.0529 -0.4009 -0.1236
 1695TIP3    H126576   1.313   6.299   4.898 -1.6573  0.5802 -0.5319
 1695TIP3    H226577   1.456   6.336   4.866 -0.5221 -1.1890  2.2833
 1696TIP3   OH226578   2.021   3.906   0.238 -0.0635  0.4463  0.3688
 1696TIP3    H126579   2.043   3.974   0.174  1.4570  0.6312  1.0531
 1696TIP3    H226580   1.925   3.906   0.241 -0.1971  0.0478 -2.2904
 1697TIP3   OH226581   4.707   3.953   3.308 -0.1522  0.3601  0.0346
 1697TIP3    H126582   4.703   4.005   3.228 -1.8113  0.0374 -0.0952
 1697TIP3    H226583   4.801   3.941   3.324  0.2247  2.5298 -0.4820
 1698TIP3   OH226584   2.738   5.798  14.808 -0.0848  0.1089 -0.4886
 1698TIP3    H126585   2.756   5.797  14.902  3.8664 -1.1441 -1.1875
 1698TIP3    H226586   2.737   5.891  14.785  2.6977  0.3370  0.1748
 1699TIP3   OH226587   3.752   0.539   2.704 -0.2102 -0.0598  0.1992
 1699TIP3    H126588   3.723   0.501   2.621  0.1716  1.0431 -0.4478
 1699TIP3    H226589   3.677   0.526   2.763 -0.5606 -0.6586 -0.3660
 1700TIP3   OH226590   1.118   5.500  13.502  0.8144  0.6379 -0.3019
 1700TIP3    H126591   1.068   5.440  13.446  0.8772 -0.0767  0.3908
 1700TIP3    H226592   1.055   5.525  13.570  0.8793  1.1313 -0.4216
 1701TIP3   OH226593   6.054   4.787  15.305  0.6661  0.1773 -0.4354
 1701TIP3    H126594   6.128   4.833  15.345 -0.2127  0.6040  0.7490
 1701TIP3    H226595   5.980   4.808  15.362 -0.8768  1.7522 -2.9324
 1702TIP3   OH226596   3.464   0.293   2.880 -0.2355  0.3160 -0.2485
 1702TIP3    H126597   3.379   0.248   2.881 -0.9985  1.7439 -0.7156
 1702TIP3    H226598   3.507   0.260   2.801  0.2020 -1.3817  0.6545
 1703TIP3   OH226599   3.674   5.703   4.530 -0.2760  0.7693  0.5543
 1703TIP3    H126600   3.728   5.635   4.570 -1.4026 -0.4278  0.1064
 1703TIP3    H226601   3.589   5.695   4.574 -0.2723  2.2303  0.8479
 1704TIP3   OH226602   1.692   2.311   2.408 -0.2356 -0.3540 -0.2683
 1704TIP3    H126603   1.674   2.325   2.315  1.4596 -1.5850 -0.7882
 1704TIP3    H226604   1.605   2.317   2.450 -1.1127 -0.6052 -2.0078
 1705TIP3   OH226605   3.104   0.383  12.036 -0.1478  0.0360 -0.4932
 1705TIP3    H126606   3.161   0.330  11.980  0.9944 -0.2878  0.9409
 1705TIP3    H226607   3.113   0.472  12.002  1.0910 -0.0416 -0.3926
 1706TIP3   OH226608   1.860   1.489  15.613 -0.1423  0.6351  0.4535
 1706TIP3    H126609   1.836   1.582  15.613  1.2192  1.0502 -2.3199
 1706TIP3    H226610   1.956   1.489  15.612 -0.1389 -0.7702 -0.4380
 1707TIP3   OH226611   1.362   4.826  16.750  0.4512  0.7633  0.3192
 1707TIP3    H126612   1.437   4.801  16.804  0.9860  0.8338 -0.3881
 1707TIP3    H226613   1.383   4.915  16.720  0.1566  0.7205 -0.0156
 1708TIP3   OH226614   4.998   0.645   6.021 -0.6904 -0.7244 -0.0410
 1708TIP3    H126615   4.989   0.738   6.001 -0.1750 -0.1746  2.1239
 1708TIP3    H226616   5.076   0.640   6.077  0.0737 -2.6333 -1.2286
 1709TIP3   OH226617   2.046   6.327   2.737 -0.0293  0.3808 -0.1389
 1709TIP3    H126618   2.120   6.280   2.774  0.8218  0.5200 -1.5964
 1709TIP3    H226619   2.070   6.420   2.743 -0.6265  0.4990  0.5010
 1710TIP3   OH226620   6.519   3.514  11.694 -0.1513  0.0890 -0.4058
 1710TIP3    H126621   6.567   3.462  11.758 -1.3799  0.3388  0.7236
 1710TIP3    H226622   6.585   3.571  11.655  0.5791  0.0254  0.7263
 1711TIP3   OH226623   0.532   2.588   5.051  0.0219  0.4861 -0.5516
 1711TIP3    H126624   0.580   2.658   5.096 -0.0520  1.0619 -1.3434
 1711TIP3    H226625   0.465   2.561   5.113 -0.2487  1.4540 -0.4100
 1712TIP3   OH226626   0.378   0.720   2.181 -0.3788  0.4034 -0.1197
 1712TIP3    H126627   0.313   0.778   2.222 -1.0631 -0.1541 -0.3963
 1712TIP3    H226628   0.331   0.678   2.109  0.2377 -0.1515 -0.2075
 1713TIP3   OH226629   0.663   3.835  11.142 -0.1824  0.5244  0.5372
 1713TIP3    H126630   0.678   3.747  11.107 -0.6076  1.0051 -0.8988
 1713TIP3    H226631   0.696   3.831  11.232  0.5674 -0.8633  0.2182
 1714TIP3   OH226632   5.571   3.950   4.882 -0.4406  0.3616  0.3069
 1714TIP3    H126633   5.631   3.881   4.910 -0.6652 -0.1910 -0.5550
 1714TIP3    H226634   5.557   3.934   4.789  0.6261  2.4265 -0.2496
 1715TIP3   OH226635   6.052   6.807   4.189  0.2994 -0.4475  1.1267
 1715TIP3    H126636   6.127   6.824   4.246  1.3911  1.1090 -0.7188
 1715TIP3    H226637   6.084   6.743   4.126  0.3602  0.8682 -0.1996
 1716TIP3   OH226638   5.082   5.604  15.138 -0.2674  0.6609 -0.0576
 1716TIP3    H126639   4.997   5.574  15.170 -0.6241  0.1576 -1.4358
 1716TIP3    H226640   5.116   5.531  15.086  0.7300  1.0909 -0.0217
 1717TIP3   OH226641   2.169   5.702  12.757 -0.5452  0.0784  0.3768
 1717TIP3    H126642   2.157   5.632  12.692  0.1295  1.3240 -1.1108
 1717TIP3    H226643   2.122   5.670  12.834 -1.1951 -1.5238 -0.6420
 1718TIP3   OH226644   3.306   0.001   3.876  0.1234 -0.1793 -0.2728
 1718TIP3    H126645   3.357  -0.043   3.944  0.8149  2.6934  1.1582
 1718TIP3    H226646   3.365   0.068   3.842 -1.4800  0.8561 -1.0921
 1719TIP3   OH226647   3.639   0.415  13.143 -0.0204  0.2645  0.3909
 1719TIP3    H126648   3.647   0.367  13.225 -1.5761 -0.9343 -0.1320
 1719TIP3    H226649   3.632   0.507  13.169 -0.4737 -0.1070  1.5904
 1720TIP3   OH226650   3.723   0.237  14.071 -0.1122  0.4367 -0.3025
 1720TIP3    H126651   3.679   0.247  13.986 -0.1735  1.6964 -0.1307
 1720TIP3    H226652   3.682   0.161  14.110  1.0049 -1.1205 -2.0722
 1721TIP3   OH226653   2.751   1.813   4.236  0.5118  0.2431  0.6114
 1721TIP3    H126654   2.830   1.772   4.270  0.1230 -1.7955 -0.8548
 1721TIP3    H226655   2.681   1.750   4.256 -0.1184  0.2186 -1.5352
 1722TIP3   OH226656   1.485   5.343   5.691  0.7367 -0.4917  0.2933
 1722TIP3    H126657   1.488   5.248   5.680  2.9040 -0.5354  0.9043
 1722TIP3    H226658   1.571   5.365   5.728  0.3719  1.7349 -0.1165
 1723TIP3   OH226659   5.158   0.305  17.078  0.2561  0.0170 -0.5926
 1723TIP3    H126660   5.100   0.233  17.056 -1.7149  1.7155 -1.0866
 1723TIP3    H226661   5.172   0.298  17.172 -0.4416 -0.6119 -0.5355
 1724TIP3   OH226662   6.259   5.023   4.546 -0.4590 -0.0091  0.1774
 1724TIP3    H126663   6.268   5.001   4.639  2.6546  0.8131  0.1331
 1724TIP3    H226664   6.220   4.945   4.506  2.6397 -2.2741  1.4064
 1725TIP3   OH226665   0.395   4.816  16.497  0.0040 -0.0630 -0.0784
 1725TIP3    H126666   0.465   4.755  16.523  0.4358  0.3892 -0.1897
 1725TIP3    H226667   0.408   4.829  16.403 -1.0193 -0.9960 -0.3573
 1726TIP3   OH226668   0.153   5.289  15.771  0.9819 -0.2954 -0.3512
 1726TIP3    H126669   0.171   5.308  15.679 -0.5284  1.0570 -0.3867
 1726TIP3    H226670   0.086   5.221  15.768  0.5648  0.1103 -0.2552
 1727TIP3   OH226671   4.662   5.255  16.969  0.2734 -0.3630 -0.1661
 1727TIP3    H126672   4.592   5.293  17.023 -0.1955  1.1495 -1.7728
 1727TIP3    H226673   4.704   5.191  17.025 -2.0222 -0.8585  1.0574
 1728TIP3   OH226674   1.682   5.397   4.728 -0.4005  0.2143  0.1043
 1728TIP3    H126675   1.687   5.301   4.721 -0.1170  0.2771 -0.5663
 1728TIP3    H226676   1.593   5.418   4.698  0.0009  0.2752 -1.0688
 1729TIP3   OH226677   6.190   3.843   1.467 -0.6907  0.5750  0.3987
 1729TIP3    H126678   6.168   3.828   1.375 -0.5653 -0.5470  0.5473
 1729TIP3    H226679   6.237   3.927   1.467 -1.4786  1.0195 -0.4381
 1730TIP3   OH226680   6.797   6.486  15.649 -0.6118  0.2192  0.0238
 1730TIP3    H126681   6.783   6.391  15.650 -1.5433  0.3410 -0.5655
 1730TIP3    H226682   6.891   6.497  15.667 -0.3454 -0.8448 -0.6828
 1731TIP3   OH226683   3.646   1.551  12.464  0.6140  0.7773  0.1284
 1731TIP3    H126684   3.622   1.555  12.556 -1.1795  0.9280 -0.3284
 1731TIP3    H226685   3.718   1.614  12.455  1.9433 -0.4601  1.7309
 1732TIP3   OH226686   1.862   6.490  11.679  0.3364  0.0995 -0.0718
 1732TIP3    H126687   1.780   6.519  11.718  1.0464  1.3868  0.5007
 1732TIP3    H226688   1.864   6.395  11.694  0.8048  0.5979  3.5076
 1733TIP3   OH226689   1.292   5.081   1.077  0.1454 -0.0024 -0.2817
 1733TIP3    H126690   1.307   4.988   1.091  0.6386  0.1806  0.4566
 1733TIP3    H226691   1.287   5.118   1.165 -1.6772  0.4279 -0.5365
 1734TIP3   OH226692   4.127   6.326   1.355  0.5547  0.3739  0.1361
 1734TIP3    H126693   4.176   6.319   1.274 -1.1556  1.3075 -1.0051
 1734TIP3    H226694   4.059   6.259   1.348  0.5697  0.2658  0.9258
 1735TIP3   OH226695   5.654   1.384   1.944  0.0811 -0.2481  0.1094
 1735TIP3    H126696   5.736   1.433   1.950 -0.5124  0.6771  0.8211
 1735TIP3    H226697   5.615   1.412   1.862  0.2179 -0.2711  0.0369
 1736TIP3   OH226698   1.221   4.162  16.667 -0.1500 -0.2913 -0.3386
 1736TIP3    H126699   1.273   4.156  16.586 -0.8172 -1.5064 -0.6882
 1736TIP3    H226700   1.147   4.218  16.644 -0.1746 -0.3826 -0.4824
 1737TIP3   OH226701   2.059   6.510   0.199  0.2256 -0.1730  0.4166
 1737TIP3    H126702   2.124   6.533   0.133 -1.2356  0.3651 -0.8484
 1737TIP3    H226703   1.976   6.541   0.164 -0.6810 -0.4787  2.2009
 1738TIP3   OH226704   2.120   6.678   1.287  0.4295 -0.1309 -0.2452
 1738TIP3    H126705   2.212   6.656   1.279  0.9296  1.7226  0.1137
 1738TIP3    H226706   2.082   6.608   1.340  1.7105 -0.6439 -0.0043
 1739TIP3   OH226707   1.427   3.975   4.837 -0.7317  0.0499  0.2971
 1739TIP3    H126708   1.446   4.058   4.880  0.8077  0.1941 -0.6001
 1739TIP3    H226709   1.433   3.994   4.744 -0.6468 -0.9893  0.0804
 1740TIP3   OH226710   1.378   5.256  12.993  0.0031 -0.0300  0.3977
 1740TIP3    H126711   1.348   5.298  13.074 -0.9143  1.4199 -0.6784
 1740TIP3    H226712   1.336   5.306  12.923  1.0696 -1.0523 -0.9938
 1741TIP3   OH226713   0.291   3.578   6.062  0.0060 -0.0873  0.1107
 1741TIP3    H126714   0.305   3.489   6.030 -1.7471  0.2360 -1.6181
 1741TIP3    H226715   0.335   3.579   6.148  0.9682 -2.2734 -0.3088
 1742TIP3   OH226716   4.503   0.967  13.008 -0.1938  0.4571 -0.3539
 1742TIP3    H126717   4.571   1.011  13.059 -0.6209 -0.9600  1.4741
 1742TIP3    H226718   4.422   1.009  13.035 -0.3715  0.0161 -0.1955
 1743TIP3   OH226719   5.078   2.095   4.535  0.1393 -0.0436 -0.0210
 1743TIP3    H126720   5.036   2.011   4.519 -0.7106  0.6711 -1.5639
 1743TIP3    H226721   5.088   2.099   4.631 -0.8314 -1.3953  0.1396
 1744TIP3   OH226722   1.960   6.567  12.302 -0.4527  0.1096 -0.1791
 1744TIP3    H126723   1.987   6.624  12.230 -0.0770  0.5045  0.2689
 1744TIP3    H226724   1.869   6.545  12.283 -0.3936  0.3241 -0.7039
 1745TIP3   OH226725   2.183   2.949   2.050  0.2903  0.3922  0.0014
 1745TIP3    H126726   2.270   2.919   2.076  0.1267 -0.4301 -0.3970
 1745TIP3    H226727   2.176   3.037   2.087  1.0186  0.1879  0.6325
 1746TIP3   OH226728   5.902   4.650  12.938 -0.6653 -0.1877 -0.6585
 1746TIP3    H126729   5.880   4.742  12.927 -1.8729 -0.3264  0.4563
 1746TIP3    H226730   5.998   4.648  12.943 -0.7205  1.4083  2.4823
 1747TIP3   OH226731   0.440   0.547  14.837 -0.1055  0.1849 -0.0969
 1747TIP3    H126732   0.475   0.617  14.782  0.5698 -0.4776 -0.5179
 1747TIP3    H226733   0.345   0.558  14.831 -0.0048  1.2452  0.0874
 1748TIP3   OH226734   5.535   3.933  14.249 -0.8958  0.2983 -0.3809
 1748TIP3    H126735   5.546   3.915  14.156 -0.1311  1.0334 -0.4459
 1748TIP3    H226736   5.597   4.004  14.267  0.5842 -1.3176  1.1550
 1749TIP3   OH226737   6.397   4.913  14.991  0.8283 -0.2764 -0.0305
 1749TIP3    H126738   6.361   4.824  14.990 -0.8332  0.3708  0.5776
 1749TIP3    H226739   6.400   4.938  14.898  2.6932 -1.4860 -0.3268
 1750TIP3   OH226740   5.961   0.910  15.350 -0.1963  0.0423  0.1967
 1750TIP3    H126741   5.920   0.845  15.292  0.0695  1.7765 -2.0283
 1750TIP3    H226742   5.888   0.947  15.400 -0.7943  0.1989 -0.7677
 1751TIP3   OH226743   4.567   6.259   3.976 -0.0435 -0.2861  0.1937
 1751TIP3    H126744   4.629   6.276   4.047  0.7286  0.0764 -0.5658
 1751TIP3    H226745   4.621   6.229   3.903 -0.6460  1.0810 -0.8224
 1752TIP3   OH226746   0.026   2.688  11.648  0.2082  0.1494  0.4467
 1752TIP3    H126747   0.087   2.632  11.601 -0.1837 -0.5998  0.8225
 1752TIP3    H226748   0.034   2.773  11.605  2.9983  0.6072  1.7838
 1753TIP3   OH226749   2.463   1.915  12.424 -0.1669 -0.8292  0.1787
 1753TIP3    H126750   2.498   2.003  12.414  1.4387 -1.6236 -1.2510
 1753TIP3    H226751   2.530   1.867  12.472 -0.2332 -1.7566 -0.6282
 1754TIP3   OH226752   0.887   1.425   1.477 -0.2192  0.7429 -0.0354
 1754TIP3    H126753   0.942   1.450   1.402 -0.1685  0.3596 -0.1279
 1754TIP3    H226754   0.817   1.490   1.478 -0.9946 -0.0480 -1.2691
 1755TIP3   OH226755   1.712   1.974  12.491  0.3099 -0.7315 -0.4036
 1755TIP3    H126756   1.747   2.052  12.534 -1.0594 -0.3241  0.0198
 1755TIP3    H226757   1.671   2.007  12.411  0.3117 -1.1000 -0.5566
 1756TIP3   OH226758   4.193   3.851   0.016 -0.5396  0.4898 -0.0989
 1756TIP3    H126759   4.184   3.823   0.108  0.3331  0.1368 -0.1087
 1756TIP3    H226760   4.119   3.910   0.001 -1.4095 -0.4397  0.4611
 1757TIP3   OH226761   6.264   6.060  15.865 -0.0844 -0.5552  0.3414
 1757TIP3    H126762   6.258   6.149  15.899 -0.5469 -1.1437  1.8330
 1757TIP3    H226763   6.358   6.043  15.860  0.0330  0.3762 -0.9578
 1758TIP3   OH226764   2.886   6.818  12.875 -0.0485  0.1086  0.6078
 1758TIP3    H126765   2.843   6.818  12.790 -1.5849  0.4286  1.3702
 1758TIP3    H226766   2.928   6.732  12.881 -0.2684 -0.0678 -0.2992
 1759TIP3   OH226767   2.504   0.838  13.774  0.3376 -0.4509  0.1068
 1759TIP3    H126768   2.520   0.780  13.848  1.4466 -1.5964 -1.0030
 1759TIP3    H226769   2.547   0.795  13.700 -1.6725  0.1378 -1.4408
 1760TIP3   OH226770   4.541   3.957  15.118 -0.6985 -0.7762 -0.1005
 1760TIP3    H126771   4.522   3.869  15.151 -1.1233 -0.3817  0.7381
 1760TIP3    H226772   4.591   3.999  15.189 -0.5198 -0.3363 -0.4842
 1761TIP3   OH226773   0.162   1.639  14.171 -0.2528 -0.0685  0.0777
 1761TIP3    H126774   0.111   1.642  14.251 -3.6337 -0.7030 -1.9592
 1761TIP3    H226775   0.191   1.548  14.165 -1.0769 -0.3229 -0.0660
 1762TIP3   OH226776   3.072   5.499   0.143 -0.1593 -0.8056 -0.1334
 1762TIP3    H126777   3.125   5.492   0.063 -1.2494  0.2824 -0.9825
 1762TIP3    H226778   3.017   5.577   0.128  0.6952  0.3149  2.3309
 1763TIP3   OH226779   5.125   0.925   0.205 -0.4987  0.5106 -0.1943
 1763TIP3    H126780   5.099   0.992   0.268 -0.6805 -0.4086  0.7182
 1763TIP3    H226781   5.203   0.884   0.244 -1.0258 -0.5372 -0.2138
 1764TIP3   OH226782   4.665   3.115  11.219  0.0831  0.0071  0.5388
 1764TIP3    H126783   4.642   3.145  11.307  0.1308 -1.0090  0.9050
 1764TIP3    H226784   4.585   3.075  11.186  0.5588 -1.2248  0.8240
 1765TIP3   OH226785   4.217   6.812   0.596  0.5515 -0.0167  0.0827
 1765TIP3    H126786   4.243   6.733   0.644 -2.1325 -2.6839 -2.7080
 1765TIP3    H226787   4.148   6.851   0.650  0.0889 -0.9818  0.1995
 1766TIP3   OH226788   6.252   6.351  14.140 -0.1075 -0.1381 -0.6817
 1766TIP3    H126789   6.272   6.257  14.144 -0.2327 -0.1040  1.2632
 1766TIP3    H226790   6.163   6.355  14.105 -1.1572 -0.9179  1.7821
 1767TIP3   OH226791   5.389   4.342   2.355 -0.0267  0.0554  0.2897
 1767TIP3    H126792   5.321   4.339   2.423 -1.7535  1.5047 -1.2882
 1767TIP3    H226793   5.340   4.342   2.273  1.7767  2.9112 -0.8748
 1768TIP3   OH226794   3.859   0.440  11.983  0.5621  0.0573  0.4483
 1768TIP3    H126795   3.896   0.423  12.070 -0.9309  1.1781  1.3158
 1768TIP3    H226796   3.857   0.535  11.976  0.3284 -0.0229 -0.6703
 1769TIP3   OH226797   2.612   3.501  11.748  0.5565 -0.4851 -0.3480
 1769TIP3    H126798   2.662   3.484  11.669  0.2646 -0.7656 -0.4691
 1769TIP3    H226799   2.542   3.436  11.748  1.0068 -0.9857  0.5304
 1770TIP3   OH226800   3.823   5.127  13.356  0.0196 -0.4819  0.0036
 1770TIP3    H126801   3.794   5.045  13.316  0.8470 -0.0894 -1.4350
 1770TIP3    H226802   3.831   5.107  13.449  0.6743 -2.1818 -0.3980
 1771TIP3   OH226803   5.673   5.417  14.168 -0.6453 -0.0186 -0.3223
 1771TIP3    H126804   5.613   5.344  14.150 -1.7944  0.4815  1.3763
 1771TIP3    H226805   5.617   5.494  14.170  0.5147  0.9001 -1.7580
 1772TIP3   OH226806   1.011   6.165   0.695 -0.1692  0.3491  0.2480
 1772TIP3    H126807   0.971   6.249   0.718  0.7486  1.5099 -2.1819
 1772TIP3    H226808   1.103   6.175   0.721 -0.0915  0.0305  0.0936
 1773TIP3   OH226809   0.136   1.401  13.695  0.4124  0.4962 -0.1430
 1773TIP3    H126810   0.133   1.484  13.647  0.8741  1.5696  1.6278
 1773TIP3    H226811   0.104   1.423  13.783  0.9920 -1.1056  0.4926
 1774TIP3   OH226812   4.126   6.282   2.317  0.0443 -0.1752 -0.5948
 1774TIP3    H126813   4.100   6.341   2.247 -0.0898 -1.4065 -1.6006
 1774TIP3    H226814   4.093   6.197   2.291 -2.4191 -0.1879  2.3103
 1775TIP3   OH226815   1.956   5.997  17.029  0.6735  0.4835 -0.0217
 1775TIP3    H126816   2.022   6.036  17.086  2.9622 -0.5319 -1.8855
 1775TIP3    H226817   1.960   6.049  16.949  1.1983 -1.2773 -1.1726
 1776TIP3   OH226818   3.108   2.445   1.188  0.0323  0.4484 -0.2467
 1776TIP3    H126819   3.141   2.374   1.243  1.5036  1.0311 -0.3801
 1776TIP3    H226820   3.186   2.488   1.153 -0.8096  3.0950  1.0316
 1777TIP3   OH226821   5.599   1.920  11.189 -0.1596  0.6863  0.0592
 1777TIP3    H126822   5.535   1.876  11.245 -1.1488  0.1929 -1.4298
 1777TIP3    H226823   5.633   1.851  11.132 -1.1145  1.6540 -1.7324
 1778TIP3   OH226824   3.312   1.817   5.150  0.1066  0.1636  0.4178
 1778TIP3    H126825   3.349   1.743   5.102  0.7655  0.3754  0.5905
 1778TIP3    H226826   3.386   1.854   5.198 -0.5464 -0.0571  1.6177
 1779TIP3   OH226827   5.765   1.417  13.174  0.3631  0.4824  0.4423
 1779TIP3    H126828   5.808   1.340  13.137  0.4780  0.4717  0.5961
 1779TIP3    H226829   5.832   1.486  13.171 -0.2233  1.0028 -1.1312
 1780TIP3   OH226830   3.008   2.415   1.767  0.5053  1.1485  0.2818
 1780TIP3    H126831   2.975   2.452   1.686  0.4978  1.8415  0.5976
 1780TIP3    H226832   2.986   2.480   1.834 -3.1445 -1.2287  1.5231
 1781TIP3   OH226833   3.631   6.031  15.538  0.4624  0.0609  0.4557
 1781TIP3    H126834   3.693   6.063  15.603 -0.4491  0.6149  1.0695
 1781TIP3    H226835   3.545   6.042  15.580  0.0023 -1.4378 -0.0614
 1782TIP3   OH226836   2.717   4.493   0.299 -0.1824 -0.3124  0.1328
 1782TIP3    H126837   2.656   4.420   0.288  1.0783 -1.5346  1.0283
 1782TIP3    H226838   2.763   4.498   0.216  1.9178 -2.6195  1.0910
 1783TIP3   OH226839   6.358   5.241  17.255 -0.2871  0.5336  0.1520
 1783TIP3    H126840   6.346   5.196  17.171  0.9070 -1.8681  1.2133
 1783TIP3    H226841   6.438   5.292  17.244 -1.1756  1.7544 -0.7802
 1784TIP3   OH226842   0.996   5.317  12.434 -0.3346  0.0674  0.4850
 1784TIP3    H126843   1.015   5.409  12.452  0.5023  0.1294 -0.6745
 1784TIP3    H226844   1.062   5.291  12.370 -0.8507 -1.2169  0.4614
 1785TIP3   OH226845   6.533   3.570   4.893  0.0228  0.2902 -0.4238
 1785TIP3    H126846   6.514   3.651   4.939 -0.9875  0.4543 -1.1306
 1785TIP3    H226847   6.621   3.582   4.857 -0.1230  1.0548 -0.5141
 1786TIP3   OH226848   5.314   4.119   4.633  0.5170  0.1303 -0.0477
 1786TIP3    H126849   5.223   4.146   4.647  1.1616  1.6949  1.2199
 1786TIP3    H226850   5.366   4.186   4.676  2.3092 -0.4902 -1.2029
 1787TIP3   OH226851   5.631   4.663  10.821  0.0494  0.2156 -0.1344
 1787TIP3    H126852   5.702   4.606  10.853 -0.9906 -1.2016 -0.3251
 1787TIP3    H226853   5.600   4.708  10.899  1.8231  1.6323 -0.1973
 1788TIP3   OH226854   2.473   5.390   4.034 -0.1031 -0.1171  0.2127
 1788TIP3    H126855   2.443   5.424   3.950  1.0652 -1.9431 -0.9700
 1788TIP3    H226856   2.472   5.466   4.092 -0.4063  1.2800 -1.5765
 1789TIP3   OH226857   0.519   5.258  13.960  0.1154  0.1084 -0.0371
 1789TIP3    H126858   0.439   5.299  13.926 -0.4181  0.8782  2.0859
 1789TIP3    H226859   0.590   5.314  13.927 -0.3741  0.7083 -0.0857
 1790TIP3   OH226860   1.868   1.820  16.868  0.7145  0.2365 -0.3542
 1790TIP3    H126861   1.849   1.894  16.925 -0.8743  0.6622 -1.3925
 1790TIP3    H226862   1.794   1.760  16.879  1.4898 -0.7330 -0.2851
 1791TIP3   OH226863   5.498   3.148   1.964  0.0520  0.2178  0.2555
 1791TIP3    H126864   5.502   3.107   1.877 -0.6908 -0.9156  0.7433
 1791TIP3    H226865   5.405   3.165   1.978  0.2368  0.9508  0.5780
 1792TIP3   OH226866   0.571   4.990  16.915  0.1495  0.3983 -0.0831
 1792TIP3    H126867   0.599   4.944  16.994 -0.9533 -1.1041 -0.5397
 1792TIP3    H226868   0.621   4.949  16.844  0.6686  1.3046 -0.2395
 1793TIP3   OH226869   4.441   4.898  12.527 -0.1650  0.1561  0.3619
 1793TIP3    H126870   4.384   4.970  12.500 -1.6675 -0.8136  0.9066
 1793TIP3    H226871   4.518   4.905  12.469 -1.7442  0.2320 -1.8004
 1794TIP3   OH226872   1.086   4.319  17.212 -0.8147 -0.6765  0.7463
 1794TIP3    H126873   1.020   4.253  17.231 -0.3275 -0.8100  2.0124
 1794TIP3    H226874   1.105   4.359  17.296 -1.1232  1.1168 -0.0181
 1795TIP3   OH226875   4.575   3.176  13.241 -0.4193  0.3332  0.0871
 1795TIP3    H126876   4.572   3.081  13.253  1.1340  0.4343  1.5224
 1795TIP3    H226877   4.668   3.199  13.250 -1.0065  2.2166  1.7561
 1796TIP3   OH226878   1.131   0.571   2.448  0.5795  0.1053  0.2380
 1796TIP3    H126879   1.204   0.543   2.392 -0.4790 -1.1042 -0.5462
 1796TIP3    H226880   1.141   0.519   2.527 -0.3521 -1.2331 -0.5102
 1797TIP3   OH226881   6.388   0.082   0.948 -0.0110 -0.4814 -0.3741
 1797TIP3    H126882   6.296   0.079   0.976 -0.3008  0.3399 -1.2193
 1797TIP3    H226883   6.384   0.081   0.853  0.8341  0.2424 -0.4211
 1798TIP3   OH226884   1.889   4.338   0.926  0.2670 -0.1554  0.0513
 1798TIP3    H126885   1.925   4.388   0.999  2.5168  0.9204 -1.7225
 1798TIP3    H226886   1.880   4.249   0.960  2.3342  0.0754  1.3078
 1799TIP3   OH226887   0.588   3.345  14.711 -0.5227  0.1523  0.1829
 1799TIP3    H126888   0.667   3.394  14.733 -0.8694  0.6314  0.3744
 1799TIP3    H226889   0.604   3.311  14.623  0.2793 -0.5421  0.5891
 1800TIP3   OH226890   2.873   5.358  16.567  0.2423  1.0019  0.3814
 1800TIP3    H126891   2.874   5.400  16.482 -1.9648 -0.6284 -0.5085
 1800TIP3    H226892   2.857   5.265  16.548  0.3325  0.5167  2.5169
 1801TIP3   OH226893   5.489   5.594   2.368 -0.7937 -0.8815 -0.5512
 1801TIP3    H126894   5.503   5.595   2.274 -0.8361 -0.3423 -0.5522
 1801TIP3    H226895   5.564   5.544   2.402 -0.1337 -0.0505 -0.7675
 1802TIP3   OH226896   0.710   4.699   2.649  0.2553 -0.4471  0.2253
 1802TIP3    H126897   0.696   4.745   2.567 -0.1774 -1.0774 -0.0641
 1802TIP3    H226898   0.655   4.746   2.712 -3.4679 -2.9516 -0.9278
 1803TIP3   OH226899   3.928   3.065  12.697 -0.2030  0.1370 -0.3319
 1803TIP3    H126900   3.896   3.155  12.693  0.5963  0.4118 -0.5264
 1803TIP3    H226901   3.912   3.038  12.787 -0.3700  0.4993 -0.2514
 1804TIP3   OH226902   5.421   4.500  10.668  0.0414  0.7381  0.5657
 1804TIP3    H126903   5.357   4.565  10.639  1.3666  0.8973 -2.1938
 1804TIP3    H226904   5.475   4.546  10.732 -1.1159  1.3327  1.1257
 1805TIP3   OH226905   4.972   4.775  17.263  0.1729  0.3604  0.4296
 1805TIP3    H126906   4.900   4.737  17.213  0.1435  0.0629  0.6915
 1805TIP3    H226907   5.012   4.839  17.204  0.5045 -0.4113 -0.2004
 1806TIP3   OH226908   4.246   6.360  12.482  0.0315  0.5789 -0.1212
 1806TIP3    H126909   4.265   6.289  12.421 -0.2177 -0.7802  1.3548
 1806TIP3    H226910   4.281   6.438  12.439 -0.5972 -0.2678 -2.2236
 1807TIP3   OH226911   4.724   2.780   2.043 -0.2476 -0.5579  0.4164
 1807TIP3    H126912   4.635   2.746   2.051  0.0246 -1.2036  0.7305
 1807TIP3    H226913   4.742   2.778   1.949 -0.6860 -0.1083  0.3207
 1808TIP3   OH226914   3.388   6.668   2.822  0.1898 -0.1247 -0.0748
 1808TIP3    H126915   3.347   6.737   2.875  0.0443  0.5444 -1.0362
 1808TIP3    H226916   3.368   6.587   2.868  1.2760  0.5574  1.6718
 1809TIP3   OH226917   2.633   5.583  13.675 -0.0235 -0.1834 -0.2519
 1809TIP3    H126918   2.686   5.590  13.754 -0.3040 -0.9281  0.0079
 1809TIP3    H226919   2.567   5.517  13.697  0.8782 -1.5848 -1.6585
 1810TIP3   OH226920   5.942   1.289   4.003 -0.5884 -0.0672 -0.2458
 1810TIP3    H126921   5.966   1.307   3.913 -0.8178 -0.0435 -0.3038
 1810TIP3    H226922   5.972   1.365   4.053 -0.9261  0.1560 -0.3823
 1811TIP3   OH226923   4.934   4.663   0.518 -0.4632 -0.0835  0.0310
 1811TIP3    H126924   4.852   4.659   0.568 -0.9776  1.1094 -0.6931
 1811TIP3    H226925   4.975   4.577   0.533 -0.7710  0.1032  2.1916
 1812TIP3   OH226926   3.720   1.470  11.702  0.5532 -0.0436  0.5588
 1812TIP3    H126927   3.783   1.457  11.773  1.1092  0.6926  0.2073
 1812TIP3    H226928   3.747   1.409  11.633 -0.6593 -1.5806  1.3920
 1813TIP3   OH226929   3.826   5.879  14.459  0.1887  0.0089 -0.2864
 1813TIP3    H126930   3.842   5.935  14.383 -1.0248  0.6287 -0.1005
 1813TIP3    H226931   3.876   5.920  14.530 -2.4243  2.1815  0.3989
 1814TIP3   OH226932   5.271   6.731  12.621  0.3920 -0.2008 -0.4623
 1814TIP3    H126933   5.269   6.678  12.541 -0.4223 -0.9306  0.0300
 1814TIP3    H226934   5.179   6.751  12.638  0.5421 -0.2419  0.4151
 1815TIP3   OH226935   1.945   0.052   1.686  0.8044  0.1335  0.1279
 1815TIP3    H126936   1.881   0.028   1.619 -0.7706 -1.6011  2.1738
 1815TIP3    H226937   2.015  -0.012   1.675  0.8376  0.2316 -0.2533
 1816TIP3   OH226938   1.683   1.428   4.080 -0.2123  0.5837 -0.2644
 1816TIP3    H126939   1.668   1.336   4.060 -0.2900  0.5739 -0.1603
 1816TIP3    H226940   1.775   1.432   4.107 -0.4568  0.3829  0.6270
 1817TIP3   OH226941   1.919   6.430  15.338 -0.1876 -0.5571 -0.0745
 1817TIP3    H126942   1.826   6.446  15.321  0.0928  0.9360 -0.2929
 1817TIP3    H226943   1.959   6.516  15.333  1.2913 -1.2515 -0.4437
 1818TIP3   OH226944   3.964   1.795   5.589 -0.2691  0.0747  0.1050
 1818TIP3    H126945   4.025   1.725   5.613  0.7369  1.0651  0.4722
 1818TIP3    H226946   3.921   1.818   5.671  1.8257  2.1740  0.6676
 1819TIP3   OH226947   0.293   5.547   2.181  0.2642 -0.2638 -0.5451
 1819TIP3    H126948   0.293   5.510   2.092  0.3034  2.8214 -1.9069
 1819TIP3    H226949   0.377   5.522   2.218 -0.8305 -3.8783 -0.3128
 1820TIP3   OH226950   0.604   5.620   2.954 -0.2617 -0.3135  0.1163
 1820TIP3    H126951   0.697   5.622   2.932 -0.6100 -4.0365 -2.0138
 1820TIP3    H226952   0.560   5.655   2.876 -0.6989  2.5410  1.5377
 1821TIP3   OH226953   1.669   1.708   0.166  0.3447 -0.3714 -0.9874
 1821TIP3    H126954   1.712   1.779   0.118 -0.9043  1.1942  0.1430
 1821TIP3    H226955   1.602   1.676   0.106 -0.3401  0.6947 -0.8168
 1822TIP3   OH226956   5.972   1.984  16.908 -0.0913 -0.2397 -0.3982
 1822TIP3    H126957   5.928   1.944  16.833 -1.5900 -2.1506  1.4660
 1822TIP3    H226958   5.902   2.021  16.961  0.7973 -0.4332  0.9455
 1823TIP3   OH226959   0.650   4.758  11.913 -0.1864 -0.2169  0.0294
 1823TIP3    H126960   0.740   4.784  11.894 -0.2420  0.5464  0.7490
 1823TIP3    H226961   0.606   4.759  11.828 -0.3626  2.7828  0.0968
 1824TIP3   OH226962   3.370   1.551  16.057  0.4970  0.2443 -0.3228
 1824TIP3    H126963   3.413   1.494  16.120  1.4388  0.5457 -0.6882
 1824TIP3    H226964   3.390   1.512  15.972 -1.4092 -0.5979 -0.4083
 1825TIP3   OH226965   1.156   3.286  13.570  0.6318 -0.0512  0.1603
 1825TIP3    H126966   1.099   3.287  13.647  0.2652  0.9153 -0.1055
 1825TIP3    H226967   1.241   3.257  13.603  0.1941 -0.7182  0.7133
 1826TIP3   OH226968   2.526   2.128   4.852 -0.1046 -0.1412 -0.2672
 1826TIP3    H126969   2.456   2.073   4.887  1.2039 -2.1141 -0.6890
 1826TIP3    H226970   2.606   2.093   4.891  0.7718  1.4993 -0.5278
 1827TIP3   OH226971   1.691   1.887   3.002  0.4964  0.6643  0.2235
 1827TIP3    H126972   1.660   1.977   2.986  1.0803  0.9891  0.8843
 1827TIP3    H226973   1.676   1.842   2.919  0.1729  1.3682 -0.1113
 1828TIP3   OH226974   3.708   6.305  13.130  0.2740 -0.0831 -0.2561
 1828TIP3    H126975   3.712   6.341  13.218 -2.9436  0.5525 -0.2890
 1828TIP3    H226976   3.713   6.210  13.143 -1.4773 -0.0735  0.7896
 1829TIP3   OH226977   0.895   2.993  12.039 -0.8153  0.6863 -0.4788
 1829TIP3    H126978   0.940   2.910  12.022 -1.6011  0.6093 -2.3299
 1829TIP3    H226979   0.942   3.031  12.113 -0.1170 -1.1597  0.0584
 1830TIP3   OH226980   0.735   1.573   3.346 -0.3996  0.4275 -0.0085
 1830TIP3    H126981   0.768   1.603   3.261  1.5956 -1.5363  0.0195
 1830TIP3    H226982   0.641   1.593   3.343 -0.4989 -0.1815 -2.9511
 1831TIP3   OH226983   1.473   6.740   3.874  0.0223  0.2424  0.8005
 1831TIP3    H126984   1.395   6.709   3.920  0.5062  0.8012  2.0137
 1831TIP3    H226985   1.537   6.670   3.885 -0.5415 -0.5695 -0.8766
 1832TIP3   OH226986   5.438   5.333   5.145  0.1816  0.8544 -0.1663
 1832TIP3    H126987   5.449   5.318   5.238 -1.0570  1.2964  0.0633
 1832TIP3    H226988   5.510   5.286   5.104 -0.8048 -1.6237  0.8398
 1833TIP3   OH226989   5.233   6.108  11.507 -0.2134  0.4441  0.1562
 1833TIP3    H126990   5.167   6.110  11.438 -1.9739  1.0712  1.8048
 1833TIP3    H226991   5.192   6.057  11.577  1.7777 -0.6914  0.5007
 1834TIP3   OH226992   6.525   1.294   5.523 -0.0295 -0.0764 -0.5900
 1834TIP3    H126993   6.459   1.311   5.457 -1.4986 -1.1214  0.5952
 1834TIP3    H226994   6.489   1.330   5.604  1.4091  0.4976 -0.1804
 1835TIP3   OH226995   3.726   2.215   6.586  0.1508 -0.3873  0.2074
 1835TIP3    H126996   3.640   2.255   6.578  0.9952  1.8721  2.0624
 1835TIP3    H226997   3.785   2.287   6.606  1.8436 -2.4430  2.9731
 1836TIP3   OH226998   6.616   2.793   1.541  0.0414  0.4077  0.4226
 1836TIP3    H126999   6.557   2.859   1.504 -0.2375  0.5254  1.0685
 1836TIP3    H227000   6.698   2.840   1.556 -0.1225  0.5847  0.7790
 1837TIP3   OH227001   3.662   1.472   1.479 -0.0095 -0.2896  0.5300
 1837TIP3    H127002   3.632   1.563   1.484  0.4583 -0.1343  0.5653
 1837TIP3    H227003   3.751   1.478   1.444 -1.0736 -0.9466 -2.4553
 1838TIP3   OH227004   0.087   4.462   0.992  0.5676  0.2462 -0.3088
 1838TIP3    H127005   0.055   4.530   1.051  0.2073 -0.9727  0.9247
 1838TIP3    H227006   0.180   4.454   1.012  0.6645  0.5421 -0.6313
 1839TIP3   OH227007   6.737   2.942   0.101  0.0816  0.8366 -0.0562
 1839TIP3    H127008   6.745   2.851   0.127 -0.3383  0.9992  0.6566
 1839TIP3    H227009   6.738   2.940   0.006  0.1948  0.1037 -0.0419
 1840TIP3   OH227010   3.940   1.412   0.884 -0.0390 -0.1732 -0.3231
 1840TIP3    H127011   3.954   1.420   0.978 -0.5153 -0.8414 -0.1845
 1840TIP3    H227012   3.869   1.347   0.876 -0.7092  0.6406 -1.0964
 1841TIP3   OH227013   6.286   4.878  13.107 -0.1302  0.4801 -0.1163
 1841TIP3    H127014   6.193   4.866  13.085 -0.2781 -1.1390  1.3041
 1841TIP3    H227015   6.329   4.885  13.022 -1.3606 -0.4009 -0.8361
 1842TIP3   OH227016   0.659   6.518   4.209 -0.2668 -0.2910  0.5355
 1842TIP3    H127017   0.725   6.490   4.146 -0.0570  0.4433  0.4213
 1842TIP3    H227018   0.677   6.468   4.288 -0.9219 -1.6941 -0.1832
 1843TIP3   OH227019   1.823   4.117  17.008 -0.2672  0.4274  0.7265
 1843TIP3    H127020   1.831   4.189  16.945  1.2240  0.9095  1.4406
 1843TIP3    H227021   1.729   4.107  17.022 -0.5360  1.3826 -0.3625
 1844TIP3   OH227022   6.589   3.162  14.964 -0.0416  0.3278  0.2123
 1844TIP3    H127023   6.651   3.210  15.019  0.7086  0.4158 -0.6938
 1844TIP3    H227024   6.601   3.071  14.990 -0.7648  0.5120  1.2386
 1845TIP3   OH227025   0.768   2.136   4.714 -0.4638 -0.1616 -0.0253
 1845TIP3    H127026   0.824   2.182   4.652  0.5984  0.7290  1.5689
 1845TIP3    H227027   0.785   2.043   4.699  2.0690  0.1185  1.0278
 1846TIP3   OH227028   4.328   2.039  10.328 -0.3431 -0.1036  0.0132
 1846TIP3    H127029   4.337   1.964  10.270 -1.3782  0.4847 -0.9130
 1846TIP3    H227030   4.249   2.021  10.379  0.1983 -0.3097  0.7860
 1847TIP3   OH227031   3.507   5.911  15.196  0.0210  0.0932  0.4728
 1847TIP3    H127032   3.439   5.955  15.246  0.3504  0.4747  0.5847
 1847TIP3    H227033   3.487   5.932  15.105 -0.7808 -0.8925  0.4198
 1848TIP3   OH227034   3.398   1.999  15.558  0.0844  1.0433 -0.0739
 1848TIP3    H127035   3.451   2.008  15.479  0.4128  0.8682  0.1230
 1848TIP3    H227036   3.346   1.920  15.543  0.7994  0.5003  0.2531
 1849TIP3   OH227037   1.121   1.197   0.574  0.0018  0.0328  0.9099
 1849TIP3    H127038   1.049   1.249   0.609  0.3707  0.9223  0.3451
 1849TIP3    H227039   1.079   1.118   0.539 -0.7118  0.6208  0.4349
 1850TIP3   OH227040   3.449   5.273  12.882  0.3628  0.0252 -0.1420
 1850TIP3    H127041   3.384   5.271  12.812 -0.4331  0.5690  0.5633
 1850TIP3    H227042   3.512   5.206  12.858 -1.1958 -1.4796 -0.1431
 1851TIP3   OH227043   5.952   5.017   4.588  0.9288  0.6549 -0.1605
 1851TIP3    H127044   5.961   4.936   4.538 -2.0954  1.1621 -1.6353
 1851TIP3    H227045   5.946   5.086   4.521 -0.6254  1.6234  0.9515
 1852TIP3   OH227046   5.323   0.624  13.506  0.3491 -0.2688 -0.2469
 1852TIP3    H127047   5.316   0.654  13.597  0.1459 -1.3721  0.1080
 1852TIP3    H227048   5.329   0.529  13.513  0.1537 -0.3663 -1.4032
 1853TIP3   OH227049   4.644   1.706  11.690  0.1421 -0.1339 -0.0806
 1853TIP3    H127050   4.605   1.654  11.761  0.0091 -0.1844 -0.1905
 1853TIP3    H227051   4.595   1.788  11.691  0.4580  0.0545  0.1967
 1854TIP3   OH227052   3.064   5.298  16.891  0.2566 -0.0100 -0.4491
 1854TIP3    H127053   2.971   5.276  16.892  0.1520  0.3867  1.3407
 1854TIP3    H227054   3.071   5.374  16.948  1.6525  0.0836 -0.7274
 1855TIP3   OH227055   0.027   0.643   3.395  0.3791  1.0342  0.3206
 1855TIP3    H127056   0.120   0.664   3.380  0.4436  2.1175  2.0855
 1855TIP3    H227057   0.027   0.589   3.474 -0.5353  1.4032  0.5779
 1856TIP3   OH227058   5.653   3.506   0.445  0.2354 -0.3891 -0.2079
 1856TIP3    H127059   5.602   3.428   0.470 -2.3697  0.8536 -1.4796
 1856TIP3    H227060   5.677   3.490   0.354  0.4632 -0.0871 -0.1997
 1857TIP3   OH227061   4.868   0.230   0.990 -0.2215 -0.2945 -0.0100
 1857TIP3    H127062   4.932   0.190   0.931 -0.2404  1.2292 -1.0915
 1857TIP3    H227063   4.914   0.305   1.028 -0.6426 -0.4999  0.9342
 1858TIP3   OH227064   2.039   4.809  10.585  0.0090 -0.2381 -0.0329
 1858TIP3    H127065   2.046   4.756  10.506 -1.2681  1.3949 -1.2815
 1858TIP3    H227066   2.128   4.840  10.601  0.2373 -0.4002 -0.9605
 1859TIP3   OH227067   0.479   6.676   1.982 -0.1380  0.1783 -0.0071
 1859TIP3    H127068   0.406   6.623   2.014  0.3863 -0.3266  0.3597
 1859TIP3    H227069   0.525   6.704   2.061 -1.4616  2.7109 -0.0885
 1860TIP3   OH227070   6.278   4.312  15.035 -0.1501 -0.5174  0.4010
 1860TIP3    H127071   6.264   4.327  15.128 -2.6073  0.9984 -0.1665
 1860TIP3    H227072   6.303   4.398  15.000 -4.6250  0.2435 -1.2142
 1861TIP3   OH227073   5.283   0.967  11.365  0.4347 -0.2795  0.4002
 1861TIP3    H127074   5.292   0.981  11.459 -0.3695 -1.3425  0.6536
 1861TIP3    H227075   5.193   0.935  11.354  0.1174  1.0070 -0.8813
 1862TIP3   OH227076   3.934   4.131  14.124  0.1774 -0.3791 -0.2406
 1862TIP3    H127077   3.863   4.072  14.100 -0.6648  1.0556 -1.3866
 1862TIP3    H227078   3.891   4.216  14.137  0.9878 -0.5004  3.8193
 1863TIP3   OH227079   0.401   0.661  15.577 -0.0176  0.4508 -0.1206
 1863TIP3    H127080   0.476   0.718  15.594 -0.7989  1.1439  1.0748
 1863TIP3    H227081   0.438   0.586  15.531  1.2855  1.1545 -0.2407
 1864TIP3   OH227082   4.291   2.961   1.997 -0.5744  0.9179 -0.4426
 1864TIP3    H127083   4.309   2.891   1.935 -2.1853 -0.7815  0.9421
 1864TIP3    H227084   4.369   2.966   2.052  0.1550  1.2545 -1.5077
 1865TIP3   OH227085   2.350   2.336  15.045 -0.4298  0.0438 -0.0417
 1865TIP3    H127086   2.347   2.403  15.113 -0.2349  0.2208 -0.2065
 1865TIP3    H227087   2.286   2.365  14.980  0.0977  0.3995 -0.4106
 1866TIP3   OH227088   6.272   3.548   2.443  0.2131 -0.1908  0.3342
 1866TIP3    H127089   6.217   3.470   2.451  2.3010 -1.6741  0.7116
 1866TIP3    H227090   6.281   3.581   2.532  0.4821 -0.3475  0.3662
 1867TIP3   OH227091   1.536   2.130  14.055 -0.7673 -0.1583 -0.1145
 1867TIP3    H127092   1.573   2.075  14.123  0.6255  1.8562  0.7914
 1867TIP3    H227093   1.567   2.092  13.973  1.0489 -0.1176  0.5430
 1868TIP3   OH227094   2.713   6.108   1.110  0.8045  0.1747  0.0955
 1868TIP3    H127095   2.707   6.194   1.069 -0.0405  0.3215  0.5003
 1868TIP3    H227096   2.714   6.127   1.204  0.4464 -0.2559  0.1896
 1869TIP3   OH227097   2.830   6.095   4.226  0.1443 -0.4664 -0.1347
 1869TIP3    H127098   2.854   6.156   4.156  0.6601 -1.0160 -0.4473
 1869TIP3    H227099   2.805   6.015   4.180  0.9950 -1.0023  0.3188
 1870TIP3   OH227100   5.447   0.392   1.716 -0.2652 -0.0071 -0.3403
 1870TIP3    H127101   5.428   0.404   1.810 -0.9011  0.0705 -0.4736
 1870TIP3    H227102   5.420   0.474   1.676 -1.1072 -0.4793 -0.7496
 1871TIP3   OH227103   4.373   0.170   0.781 -0.8381  0.7404  0.0908
 1871TIP3    H127104   4.296   0.197   0.830 -0.8727 -1.6555  1.4287
 1871TIP3    H227105   4.339   0.111   0.714 -0.2694  0.2291  0.2473
 1872TIP3   OH227106   0.422   2.005   3.372  0.3326  0.2544 -0.0359
 1872TIP3    H127107   0.512   2.016   3.402 -0.3073 -1.8773  2.8369
 1872TIP3    H227108   0.373   2.072   3.417  0.4566  1.5138 -1.7188
 1873TIP3   OH227109   6.474   5.247   3.700  0.3761 -0.3254 -0.4157
 1873TIP3    H127110   6.514   5.332   3.716  0.6620 -0.2962 -1.2598
 1873TIP3    H227111   6.381   5.265   3.688 -0.1630 -0.5455  2.9249
 1874TIP3   OH227112   1.349   1.185  12.238  0.1081  0.1393  0.2664
 1874TIP3    H127113   1.383   1.127  12.306 -1.4269 -2.2475 -0.9358
 1874TIP3    H227114   1.257   1.160  12.228  0.1548  0.8166 -2.2940
 1875TIP3   OH227115   2.784   1.066  12.319 -0.0899 -0.2289  0.3012
 1875TIP3    H127116   2.732   1.027  12.389  0.1891 -0.0804  0.5870
 1875TIP3    H227117   2.727   1.135  12.282 -1.1467 -1.8166 -1.1285
 1876TIP3   OH227118   5.183   2.686  14.308 -0.1754 -0.7103  0.2361
 1876TIP3    H127119   5.234   2.674  14.388 -1.2030  0.0622  1.0074
 1876TIP3    H227120   5.223   2.762  14.265  0.5306 -1.2725 -0.1284
 1877TIP3   OH227121   0.582   1.442  12.575  0.0719  0.2802 -0.0087
 1877TIP3    H127122   0.610   1.473  12.662  0.5088  0.2905 -0.1512
 1877TIP3    H227123   0.662   1.410  12.534 -0.0300  0.8197 -0.6378
 1878TIP3   OH227124   4.883   2.056  12.257 -0.2626  0.4464 -0.2786
 1878TIP3    H127125   4.940   2.085  12.186  0.3354  1.1756  0.4925
 1878TIP3    H227126   4.853   2.137  12.298  0.7718  0.0140  1.3816
 1879TIP3   OH227127   4.299   6.723  12.677 -0.3570 -0.0877 -0.0442
 1879TIP3    H127128   4.244   6.656  12.718 -1.1938  0.1815 -0.7304
 1879TIP3    H227129   4.293   6.798  12.737  0.0607 -0.3909  0.3857
 1880TIP3   OH227130   4.716   5.825   2.020 -0.4302 -0.0959 -0.3380
 1880TIP3    H127131   4.787   5.887   2.034 -0.0159  0.3086 -3.6859
 1880TIP3    H227132   4.759   5.741   2.007 -0.6611 -0.1953 -0.4767
 1881TIP3   OH227133   4.923   2.583  14.263 -0.6216  0.3352 -0.0144
 1881TIP3    H127134   4.866   2.661  14.267 -0.6486  0.3273 -0.2630
 1881TIP3    H227135   5.011   2.618  14.253 -0.4945  0.3734  1.0894
 1882TIP3   OH227136   1.757   0.035   5.671 -0.2437  0.9913 -0.1137
 1882TIP3    H127137   1.751   0.039   5.576 -0.3542  0.7418 -0.1174
 1882TIP3    H227138   1.666   0.028   5.700 -0.3066  2.4440  0.0730
 1883TIP3   OH227139   6.765   6.263   0.439 -0.1103 -0.1492 -0.2496
 1883TIP3    H127140   6.811   6.334   0.485 -1.5685  2.2536 -2.4244
 1883TIP3    H227141   6.783   6.278   0.347 -2.5466 -1.1328 -0.9196
 1884TIP3   OH227142   4.807   4.166   3.947  0.6694 -0.2857  0.2608
 1884TIP3    H127143   4.842   4.251   3.919  1.2292 -0.7322 -0.4342
 1884TIP3    H227144   4.761   4.133   3.870  0.6210 -0.7047  0.4687
 1885TIP3   OH227145   2.756   1.566  14.848  0.0257  0.0717  0.7996
 1885TIP3    H127146   2.740   1.656  14.819  1.5067  0.1889  0.3324
 1885TIP3    H227147   2.725   1.512  14.776  1.0784  0.2804  0.1826
 1886TIP3   OH227148   1.502   6.526  12.780 -0.6763  0.3442  1.0856
 1886TIP3    H127149   1.540   6.478  12.706 -0.5994  1.3687  0.4542
 1886TIP3    H227150   1.431   6.470  12.811 -0.3665 -0.3354  0.5725
 1887TIP3   OH227151   2.467   6.050  13.274 -0.0038 -0.1210 -0.2620
 1887TIP3    H127152   2.465   6.047  13.178  0.6424  1.7789 -0.3598
 1887TIP3    H227153   2.440   6.140  13.295  0.5134 -0.3249  1.3118
 1888TIP3   OH227154   5.644   2.372   2.274 -0.0406  0.1131  0.0218
 1888TIP3    H127155   5.627   2.462   2.299 -0.2978  0.7293 -2.2742
 1888TIP3    H227156   5.561   2.341   2.237  0.1979 -0.9192  0.3154
 1889TIP3   OH227157   5.230   0.627  13.201  0.0542 -0.3732  0.2310
 1889TIP3    H127158   5.214   0.621  13.295 -0.4764 -1.0778  0.1069
 1889TIP3    H227159   5.293   0.556  13.184  0.5944  0.1270  0.1496
 1890TIP3   OH227160   0.001   2.667   0.078  0.2979 -0.2933  0.2319
 1890TIP3    H127161   0.022   2.580   0.111 -1.0701 -0.8154 -0.2406
 1890TIP3    H227162  -0.094   2.669   0.074  0.3228  1.1700  0.0808
 1891TIP3   OH227163   0.068   3.407   4.287 -0.0107  0.3969  0.1630
 1891TIP3    H127164   0.064   3.407   4.383 -1.9848 -0.7174  0.1144
 1891TIP3    H227165   0.122   3.483   4.265 -0.3614  1.2564  2.1351
 1892TIP3   OH227166   3.326   0.427  17.223 -0.2837  0.0986  0.6643
 1892TIP3    H127167   3.407   0.376  17.222  1.1019  2.2506  0.1090
 1892TIP3    H227168   3.355   0.518  17.222 -2.6875  0.9340  2.0398
 1893TIP3   OH227169   2.012   0.763  14.929 -0.0224  0.5046 -0.6578
 1893TIP3    H127170   2.051   0.848  14.947  1.1484 -0.2034  0.2698
 1893TIP3    H227171   2.002   0.760  14.834 -0.4127  1.8119 -0.6594
 1894TIP3   OH227172   1.691   6.624  14.696  0.1038 -0.0322  0.3077
 1894TIP3    H127173   1.685   6.684  14.771  0.0454  0.8076 -0.3639
 1894TIP3    H227174   1.785   6.617  14.678  0.1341 -0.4259  0.6078
 1895TIP3   OH227175   1.661   0.843  16.134 -0.1184  0.4365 -0.0044
 1895TIP3    H127176   1.705   0.761  16.157  0.4541  0.4116 -1.1604
 1895TIP3    H227177   1.577   0.816  16.099 -0.0381  0.3510 -0.1309
 1896TIP3   OH227178   4.988   4.389  16.206  0.1601  0.2173 -1.0098
 1896TIP3    H127179   4.902   4.348  16.194  0.6447 -0.5730 -1.8193
 1896TIP3    H227180   4.968   4.481  16.227 -0.9949 -0.8899  3.1129
 1897TIP3   OH227181   0.050   1.961   4.130 -0.5216 -0.2610  0.5047
 1897TIP3    H127182  -0.022   2.016   4.160  0.3892  0.4240  1.4689
 1897TIP3    H227183   0.038   1.956   4.035 -0.3615  1.9805  0.3424
 1898TIP3   OH227184   4.410   2.847  12.521  0.4413 -0.0865 -0.6169
 1898TIP3    H127185   4.478   2.872  12.458  0.1579  0.1041 -0.8520
 1898TIP3    H227186   4.421   2.908  12.594  1.2438 -0.7827 -0.1452
 1899TIP3   OH227187   2.940   0.764  14.873 -0.6639 -0.3345  0.1760
 1899TIP3    H127188   2.995   0.815  14.813 -1.9711 -0.0099 -0.7517
 1899TIP3    H227189   2.970   0.789  14.961  0.8847 -0.4085 -0.3158
 1900TIP3   OH227190   2.249   2.102   5.654  0.4080 -0.4200  0.0444
 1900TIP3    H127191   2.313   2.171   5.670 -1.2031  0.5735  2.5671
 1900TIP3    H227192   2.166   2.138   5.687 -0.9037 -2.6994 -0.6577
 1901TIP3   OH227193   1.675   1.496  16.758 -0.5430 -0.0584 -0.2951
 1901TIP3    H127194   1.610   1.559  16.788  1.5927  1.4540  1.3022
 1901TIP3    H227195   1.705   1.530  16.674 -0.8877 -0.0868 -0.4330
 1902TIP3   OH227196   3.231   3.770  13.618 -0.2688  0.3220 -0.2335
 1902TIP3    H127197   3.280   3.849  13.595 -1.9517  1.3940 -0.2375
 1902TIP3    H227198   3.207   3.784  13.710 -2.2742  0.7482 -0.8075
 1903TIP3   OH227199   4.585   0.351   2.512 -0.0317  0.1089  0.5056
 1903TIP3    H127200   4.498   0.362   2.473 -0.1560 -0.7003  0.5445
 1903TIP3    H227201   4.625   0.438   2.506 -0.2061  0.1062 -1.0703
 1904TIP3   OH227202   2.832   5.024  12.559 -0.0820  0.2631 -0.6811
 1904TIP3    H127203   2.738   5.005  12.565 -0.3603  1.6884 -0.4692
 1904TIP3    H227204   2.869   4.946  12.518 -1.2126 -0.7459  0.1878
 1905TIP3   OH227205   1.521   3.237   1.753 -0.6266 -0.1098 -0.5474
 1905TIP3    H127206   1.518   3.163   1.815 -0.6184  1.0525  0.8752
 1905TIP3    H227207   1.471   3.207   1.677 -0.8257 -1.4921  0.1059
 1906TIP3   OH227208   3.692   0.404   1.752  0.3536 -0.2757  0.2910
 1906TIP3    H127209   3.724   0.314   1.751  0.1253 -0.4015  1.8099
 1906TIP3    H227210   3.726   0.443   1.672  1.8845 -1.2396  0.4458
 1907TIP3   OH227211   3.850   0.874   2.849  0.1501 -0.4463 -0.3664
 1907TIP3    H127212   3.828   0.875   2.756 -1.4416 -1.5477 -0.0167
 1907TIP3    H227213   3.885   0.962   2.866  0.2108 -0.1547 -1.9347
 1908TIP3   OH227214   4.401   6.794  11.642 -0.2301 -0.3074  0.6084
 1908TIP3    H127215   4.453   6.781  11.562  0.0109  0.8912  0.5670
 1908TIP3    H227216   4.404   6.708  11.685 -0.3273 -0.9556 -0.6409
 1909TIP3   OH227217   1.432   0.926  15.322 -0.6156  0.2063 -0.3607
 1909TIP3    H127218   1.523   0.906  15.302 -0.7324 -0.3042 -0.3896
 1909TIP3    H227219   1.432   1.019  15.345  0.2415 -0.2568  1.6274
 1910TIP3   OH227220   1.968   1.115   6.337 -0.5177 -0.1221 -0.1928
 1910TIP3    H127221   1.928   1.152   6.416 -1.3412 -0.3242 -0.5088
 1910TIP3    H227222   2.042   1.172   6.319 -1.6691  1.2818 -0.5680
 1911TIP3   OH227223   0.112   3.595  11.796 -0.2276 -0.3647  0.0431
 1911TIP3    H127224   0.175   3.663  11.818  1.8895 -1.2173 -3.1004
 1911TIP3    H227225   0.132   3.523  11.857  0.7734 -0.0211  0.1216
 1912TIP3   OH227226   3.295   4.389  15.216 -0.2178 -0.2263 -0.3524
 1912TIP3    H127227   3.335   4.474  15.199 -1.8948  0.9986  1.6165
 1912TIP3    H227228   3.330   4.332  15.147  2.7257  1.4475 -0.3316
 1913TIP3   OH227229   5.497   6.069   1.348 -0.1717 -0.5672 -0.3305
 1913TIP3    H127230   5.477   6.153   1.306 -0.6140 -0.6972 -0.3832
 1913TIP3    H227231   5.414   6.021   1.346  0.1785 -1.1578 -0.6543
 1914TIP3   OH227232   1.417   5.565   3.780  0.0626  0.2033  0.4679
 1914TIP3    H127233   1.433   5.548   3.873 -2.1040  0.4033  0.8995
 1914TIP3    H227234   1.330   5.603   3.777  0.6144  1.3791 -1.5447
 1915TIP3   OH227235   1.331   2.400   3.861  0.0405  0.5603 -0.2510
 1915TIP3    H127236   1.350   2.465   3.928 -0.0295  0.3090  0.0179
 1915TIP3    H227237   1.241   2.371   3.881 -0.2385  0.9953 -0.8780
 1916TIP3   OH227238   3.623   0.513   3.669  0.6755 -0.0675  0.0332
 1916TIP3    H127239   3.642   0.596   3.625  2.7381 -0.0465  0.8750
 1916TIP3    H227240   3.590   0.539   3.755 -1.8857 -0.1247 -0.8821
 1917TIP3   OH227241   1.266   2.475  11.177  0.0778 -0.4025  0.5671
 1917TIP3    H127242   1.226   2.442  11.097 -1.3050 -0.7760  1.3909
 1917TIP3    H227243   1.204   2.452  11.246  2.0776 -1.6724  1.9919
 1918TIP3   OH227244   4.617   0.925  13.637 -0.5875  0.9847 -0.4901
 1918TIP3    H127245   4.546   0.990  13.634  0.0341  1.6774 -0.5037
 1918TIP3    H227246   4.648   0.919  13.547  0.5351  2.0154 -0.1951
 1919TIP3   OH227247   1.531   0.795  14.250 -0.4490  0.2010  0.7273
 1919TIP3    H127248   1.504   0.885  14.269 -1.4092  0.2949 -0.9576
 1919TIP3    H227249   1.627   0.798  14.253 -0.3479  1.9355 -1.9891
 1920TIP3   OH227250   5.955   4.556   4.547 -0.5011  0.1830 -0.1038
 1920TIP3    H127251   5.962   4.631   4.489  1.1661  1.1988  1.3590
 1920TIP3    H227252   5.999   4.485   4.500  0.9492  1.0263 -0.0448
 1921TIP3   OH227253   0.530   6.019  16.977  0.2903  0.3380  0.9016
 1921TIP3    H127254   0.527   6.019  17.072 -0.7540 -0.3103  0.8716
 1921TIP3    H227255   0.584   5.944  16.954  0.3048  0.3279  0.9732
 1922TIP3   OH227256   2.644   3.745  12.242 -0.4637  0.1046  0.0060
 1922TIP3    H127257   2.632   3.797  12.321  0.7378  0.2080  0.1335
 1922TIP3    H227258   2.735   3.716  12.246 -0.9203 -1.4619 -0.3959
 1923TIP3   OH227259   0.310   5.800   0.743 -0.0590  0.3757  0.3034
 1923TIP3    H127260   0.306   5.843   0.828  0.1701  0.6175  0.1912
 1923TIP3    H227261   0.297   5.870   0.679  0.2050  0.2639  0.1255
 1924TIP3   OH227262   5.527   2.487  14.674 -0.2995 -0.4465 -0.0478
 1924TIP3    H127263   5.554   2.396  14.662 -1.0710 -1.1544  3.1666
 1924TIP3    H227264   5.479   2.509  14.594  2.2444 -1.9249 -2.0605
 1925TIP3   OH227265   1.885   5.393   0.225 -0.0324  0.0282  0.3983
 1925TIP3    H127266   1.964   5.372   0.275 -0.7030 -1.5633  0.8176
 1925TIP3    H227267   1.813   5.358   0.277 -0.7822 -1.2144 -1.4070
 1926TIP3   OH227268   3.628   4.343  13.393  0.1767  0.4298 -0.3451
 1926TIP3    H127269   3.639   4.306  13.481 -0.9743 -0.2671 -0.4698
 1926TIP3    H227270   3.670   4.429  13.397  1.9280 -0.4331  0.2818
 1927TIP3   OH227271   5.198   6.368  13.121 -0.3812 -0.1798  0.4232
 1927TIP3    H127272   5.229   6.379  13.031  1.0055 -2.3842  0.6078
 1927TIP3    H227273   5.212   6.454  13.162  1.5997  0.0413 -0.6754
 1928TIP3   OH227274   6.605   6.162   3.834  0.1030  0.1782  0.7317
 1928TIP3    H127275   6.669   6.092   3.816  0.4777 -0.0152  2.6946
 1928TIP3    H227276   6.561   6.134   3.913 -1.9755  0.6627 -0.2368
 1929TIP3   OH227277   5.409   6.335  16.026  0.1345  0.1763 -0.3032
 1929TIP3    H127278   5.368   6.404  16.077 -1.1222 -0.2645 -0.6996
 1929TIP3    H227279   5.423   6.373  15.940 -0.0031  0.1450 -0.3417
 1930TIP3   OH227280   2.964   0.849  13.353 -0.5637  0.1922  0.1485
 1930TIP3    H127281   3.002   0.762  13.339 -1.7614 -0.3329  0.0737
 1930TIP3    H227282   2.904   0.861  13.280 -2.0600  0.1467  1.3453
 1931TIP3   OH227283   3.213   6.681   4.995  0.6830  0.0461 -0.0861
 1931TIP3    H127284   3.240   6.772   5.008  0.2905  0.0153  1.0560
 1931TIP3    H227285   3.282   6.630   5.037 -0.6840 -0.0555  2.1500
 1932TIP3   OH227286   5.490   5.308   5.609  0.0841 -0.2344  0.1804
 1932TIP3    H127287   5.550   5.380   5.628 -1.5898  1.0726  0.6287
 1932TIP3    H227288   5.423   5.346   5.552 -0.6630 -1.5091  0.1696
 1933TIP3   OH227289   1.982   1.499   4.914  0.4426 -0.2835  0.3345
 1933TIP3    H127290   2.070   1.531   4.893  1.1349 -2.3047 -0.0035
 1933TIP3    H227291   1.988   1.473   5.006  0.6621 -1.8135 -0.0930
 1934TIP3   OH227292   4.495   5.414   4.502  0.3661  0.2041  0.3163
 1934TIP3    H127293   4.476   5.500   4.539 -0.9811  0.4950 -0.9820
 1934TIP3    H227294   4.590   5.409   4.500  0.4509  1.4316  0.9556
 1935TIP3   OH227295   1.750   1.473   3.069  0.5335 -0.6933  0.1462
 1935TIP3    H127296   1.819   1.535   3.045  1.1622 -1.5307 -0.2378
 1935TIP3    H227297   1.789   1.420   3.139 -0.6204  0.4908  1.7157
 1936TIP3   OH227298   0.916   4.099  11.496 -0.3302 -0.1165 -0.2805
 1936TIP3    H127299   0.915   4.065  11.585 -0.5553 -0.2138 -0.3238
 1936TIP3    H227300   1.005   4.079  11.464  0.1237  0.9208  0.3135
 1937TIP3   OH227301   3.711   3.619   0.344  0.6974  0.0458 -0.2824
 1937TIP3    H127302   3.657   3.578   0.276  0.5349 -0.5133  0.1745
 1937TIP3    H227303   3.691   3.569   0.423 -0.6558  1.9687  0.6310
 1938TIP3   OH227304   5.593   0.601   0.477  0.0687 -0.5707  0.0239
 1938TIP3    H127305   5.603   0.523   0.422 -1.6899 -0.5875 -0.2901
 1938TIP3    H227306   5.557   0.667   0.418 -0.7626 -0.2517  0.8864
 1939TIP3   OH227307   5.567   1.816   6.169 -0.6972 -0.4816  0.1586
 1939TIP3    H127308   5.600   1.813   6.259  0.4939  0.0077 -0.2623
 1939TIP3    H227309   5.505   1.742   6.165 -1.4325  0.0155  1.6237
 1940TIP3   OH227310   3.550   0.224   2.618  0.1870  0.3366  0.2694
 1940TIP3    H127311   3.484   0.271   2.567  0.2594  0.3400  0.1796
 1940TIP3    H227312   3.608   0.185   2.553  0.3796  0.4873  0.3492
 1941TIP3   OH227313   1.273   1.952  13.681 -0.1486  0.7071 -0.8194
 1941TIP3    H127314   1.361   1.971  13.713 -0.2403  1.3768 -0.9767
 1941TIP3    H227315   1.215   1.972  13.755 -0.1189 -0.3920 -0.4779
 1942TIP3   OH227316   3.744   4.772   3.468 -0.0604  0.2267 -0.0700
 1942TIP3    H127317   3.717   4.732   3.551  0.9862 -1.0659 -0.3447
 1942TIP3    H227318   3.663   4.806   3.431 -0.6658  0.1071  1.0995
 1943TIP3   OH227319   3.433   3.424  10.909  0.0429  0.3493 -0.5975
 1943TIP3    H127320   3.462   3.481  10.980  0.1383 -0.7720  0.2917
 1943TIP3    H227321   3.514   3.403  10.861  0.7982 -2.6018  1.7567
 1944TIP3   OH227322   1.516   3.991  13.638 -0.0086  0.1560  0.3221
 1944TIP3    H127323   1.503   3.912  13.689 -1.3774  0.4104  0.4112
 1944TIP3    H227324   1.604   4.021  13.659  1.2564 -2.3710 -1.1760
 1945TIP3   OH227325   0.967   5.322   3.088 -0.3809  0.5618 -0.5896
 1945TIP3    H127326   0.957   5.313   3.183 -3.1462  1.6113 -0.7413
 1945TIP3    H227327   1.057   5.352   3.076 -0.0375  0.5307  1.7028
 1946TIP3   OH227328   3.556   5.362   5.045  0.0480  0.5403 -0.8322
 1946TIP3    H127329   3.518   5.440   5.085 -0.5755  0.5874 -1.4983
 1946TIP3    H227330   3.597   5.315   5.117  0.1846  1.3437 -0.3802
 1947TIP3   OH227331   6.044   4.032   2.152 -0.1981  0.2641 -0.3747
 1947TIP3    H127332   5.963   4.078   2.174 -0.6742 -0.8774  0.2779
 1947TIP3    H227333   6.040   3.951   2.202  0.6662 -0.4613 -1.4578
 1948TIP3   OH227334   3.164   5.500  15.979 -0.4909 -0.4277  0.4009
 1948TIP3    H127335   3.157   5.542  15.893 -0.2711 -2.5152 -0.6627
 1948TIP3    H227336   3.078   5.514  16.020 -0.9493 -0.3136 -0.5806
 1949TIP3   OH227337   4.553   4.453  14.130 -0.4131 -0.4060  0.0672
 1949TIP3    H127338   4.469   4.497  14.138 -0.2531 -0.1013  0.0824
 1949TIP3    H227339   4.600   4.504  14.064 -0.7097 -1.2988 -0.8439
 1950TIP3   OH227340   5.893   2.842  16.925 -0.4353  0.2417 -0.2972
 1950TIP3    H127341   5.904   2.785  16.848  2.3690 -1.2785  1.1500
 1950TIP3    H227342   5.826   2.798  16.978  1.4247 -1.5807  0.6182
 1951TIP3   OH227343   4.874   1.020  14.775 -0.2932  0.1621  0.2590
 1951TIP3    H127344   4.842   1.015  14.866  0.3970  0.8921  0.5526
 1951TIP3    H227345   4.928   1.100  14.774 -2.0648  1.3826 -1.3391
 1952TIP3   OH227346   0.241   5.896   0.999  0.0884 -0.0739 -0.6140
 1952TIP3    H127347   0.273   5.864   1.084  1.6793  1.6536 -0.5474
 1952TIP3    H227348   0.147   5.880   1.003  0.4000 -1.8684  0.6645
 1953TIP3   OH227349   4.156   6.349   5.884 -0.2935 -0.5066  0.8412
 1953TIP3    H127350   4.219   6.323   5.951 -0.2836 -0.1750  0.9648
 1953TIP3    H227351   4.158   6.445   5.886  0.6463 -0.4918 -0.5013
 1954TIP3   OH227352   6.291   0.202   5.960 -0.0750 -0.1505  0.2665
 1954TIP3    H127353   6.330   0.147   6.029 -1.0218 -0.2781  0.7069
 1954TIP3    H227354   6.277   0.142   5.887  0.8020 -0.0441 -0.0039
 1955TIP3   OH227355   2.546   2.132   0.497 -0.5348 -0.3833 -0.6128
 1955TIP3    H127356   2.610   2.204   0.493 -0.8000 -0.2064 -1.9348
 1955TIP3    H227357   2.531   2.109   0.405 -0.5967 -2.0086 -0.1933
 1956TIP3   OH227358   1.628   4.758  17.285  0.1259 -0.2005 -0.4931
 1956TIP3    H127359   1.627   4.832  17.224 -0.5100 -0.4557 -0.7958
 1956TIP3    H227360   1.555   4.775  17.344  0.8470  0.1320  0.3111
 1957TIP3   OH227361   0.120   3.465   3.252 -0.3124 -0.6841 -0.2148
 1957TIP3    H127362   0.209   3.498   3.249 -0.6290  0.7229  3.6596
 1957TIP3    H227363   0.091   3.465   3.160  3.0159  0.4938 -1.3182
 1958TIP3   OH227364   6.430   0.745  13.579 -0.8748  0.2479 -0.2216
 1958TIP3    H127365   6.384   0.829  13.593 -0.2557  0.5427  0.0705
 1958TIP3    H227366   6.479   0.758  13.498 -0.6798  0.2142 -0.1091
 1959TIP3   OH227367   3.898   1.895  12.063 -0.3416 -0.3308  0.2905
 1959TIP3    H127368   3.834   1.825  12.070 -0.7444 -0.1302 -1.2296
 1959TIP3    H227369   3.978   1.859  12.102 -0.7301 -1.4003  0.1113
 1960TIP3   OH227370   4.250   5.326   3.722  0.7520 -0.2890  0.2335
 1960TIP3    H127371   4.274   5.311   3.813 -1.3558 -1.7844  0.5965
 1960TIP3    H227372   4.154   5.336   3.724  0.5616 -1.2754 -1.8931
 1961TIP3   OH227373   2.306   4.888   5.234  0.1959  0.1254  0.0196
 1961TIP3    H127374   2.353   4.955   5.184  0.5865  0.2928  0.6053
 1961TIP3    H227375   2.214   4.909   5.223  0.0212 -1.9964 -3.7607
 1962TIP3   OH227376   5.991   0.450   1.521 -0.6496  0.3690 -0.3506
 1962TIP3    H127377   5.938   0.517   1.564 -0.3786 -0.6997  1.6860
 1962TIP3    H227378   6.047   0.499   1.460 -1.4740  1.8417  0.0676
 1963TIP3   OH227379   3.006   4.278  17.101 -0.2680  0.2648 -0.4108
 1963TIP3    H127380   3.045   4.315  17.180 -1.7366  3.9999 -1.3109
 1963TIP3    H227381   3.079   4.271  17.039  0.9290 -2.8733  1.2217
 1964TIP3   OH227382   1.717   5.287   0.474  0.0793  0.3124  0.1149
 1964TIP3    H127383   1.732   5.200   0.510 -0.1899  0.6482  1.0425
 1964TIP3    H227384   1.636   5.279   0.424  0.3379 -0.0971 -0.2456
 1965TIP3   OH227385   5.571   2.584  17.282  0.8396  0.2807 -0.0529
 1965TIP3    H127386   5.571   2.494  17.313  2.0528  0.4111  0.3725
 1965TIP3    H227387   5.479   2.609  17.279  0.4109 -1.3530 -1.3309
 1966TIP3   OH227388   0.463   3.941  11.709  0.2914 -0.3399 -0.1981
 1966TIP3    H127389   0.500   4.028  11.724 -1.4885  0.3859  0.1149
 1966TIP3    H227390   0.469   3.928  11.614  0.4219  0.1879 -0.2609
 1967TIP3   OH227391   0.484   4.781   5.105  0.1152  0.1792 -0.1272
 1967TIP3    H127392   0.423   4.853   5.086  0.0498 -0.3170 -1.9386
 1967TIP3    H227393   0.569   4.814   5.076  0.5390  0.4744  1.4201
 1968TIP3   OH227394   0.166   3.577  12.885 -0.0651  0.4007 -0.1465
 1968TIP3    H127395   0.112   3.617  12.954 -0.5422  0.1530 -0.3804
 1968TIP3    H227396   0.103   3.539  12.824  0.3708  0.2697 -0.5125
 1969TIP3   OH227397   2.104   2.848   3.701  0.1799  0.4553  0.6097
 1969TIP3    H127398   2.074   2.924   3.750  0.9345 -0.6189  2.8197
 1969TIP3    H227399   2.062   2.773   3.744  0.8984 -0.5246 -0.3540
 1970TIP3   OH227400   5.536   4.852   1.109  0.3203  0.2159  0.0196
 1970TIP3    H127401   5.459   4.908   1.097  0.0496 -0.2099 -0.2447
 1970TIP3    H227402   5.507   4.784   1.169  1.0260  1.0769  1.3475
 1971TIP3   OH227403   3.671   3.264   6.623  0.4290  0.5066  0.9475
 1971TIP3    H127404   3.684   3.170   6.621 -3.0256 -0.0176  0.3341
 1971TIP3    H227405   3.668   3.287   6.716 -3.4812 -0.7692  1.1987
 1972TIP3   OH227406   0.480   5.925  14.144 -0.1762 -0.4087  0.4203
 1972TIP3    H127407   0.454   6.000  14.197  1.7210  1.2042 -0.8263
 1972TIP3    H227408   0.423   5.854  14.172 -3.1182  1.9163  0.5099
 1973TIP3   OH227409   4.362   2.544  13.788 -0.0851  0.2859  0.1915
 1973TIP3    H127410   4.354   2.476  13.855 -0.3711  1.0035  0.9037
 1973TIP3    H227411   4.412   2.614  13.831  0.4445  0.4202 -0.6194
 1974TIP3   OH227412   4.251   0.663   2.178  0.4046  0.1018  0.4589
 1974TIP3    H127413   4.173   0.716   2.158  1.1246  0.7055 -0.7832
 1974TIP3    H227414   4.235   0.580   2.134  0.0487 -0.1212  0.9935
 1975TIP3   OH227415   4.861   1.279   0.210  0.3386 -0.1994 -0.3716
 1975TIP3    H127416   4.783   1.332   0.195  0.2569 -0.1185  0.3144
 1975TIP3    H227417   4.933   1.333   0.178  0.1928  0.0617 -0.2572
 1976TIP3   OH227418   3.963   3.404   3.583 -0.0301  0.0302  0.5144
 1976TIP3    H127419   3.913   3.423   3.504  0.9233 -0.7098 -0.2888
 1976TIP3    H227420   3.920   3.327   3.620 -0.5632  0.4600  0.7949
 1977TIP3   OH227421   5.201   6.634   1.637 -0.1533  0.1317  0.1300
 1977TIP3    H127422   5.132   6.696   1.663 -0.2715  0.3248 -0.6440
 1977TIP3    H227423   5.201   6.568   1.707  0.6495  1.5277  1.4619
 1978TIP3   OH227424   1.676   0.793   4.348  0.0257 -0.1059  0.1035
 1978TIP3    H127425   1.632   0.860   4.296  0.1403 -0.1250 -0.0167
 1978TIP3    H227426   1.767   0.796   4.319  0.1479  0.0815  0.5082
 1979TIP3   OH227427   3.707   2.903   4.724  0.1466 -0.5922  0.6407
 1979TIP3    H127428   3.702   2.872   4.815  0.4406 -0.3216  0.7492
 1979TIP3    H227429   3.763   2.839   4.680  0.4469 -0.4266  0.7779
 1980TIP3   OH227430   1.290   3.786   1.331  0.1999 -0.0707  0.2417
 1980TIP3    H127431   1.338   3.703   1.330  1.0623  0.4048  1.6421
 1980TIP3    H227432   1.246   3.787   1.415  2.1549  1.9852  1.2969
 1981TIP3   OH227433   1.436   3.680  14.979 -0.2405 -0.1584 -0.0937
 1981TIP3    H127434   1.474   3.599  15.013 -1.0595  0.0547  1.3698
 1981TIP3    H227435   1.369   3.652  14.917 -0.0272 -0.5889 -0.1286
 1982TIP3   OH227436   5.751   0.356   5.881 -0.2672 -0.0917  0.1534
 1982TIP3    H127437   5.783   0.424   5.942  1.8101 -0.3926 -0.5583
 1982TIP3    H227438   5.740   0.278   5.936  0.6777 -0.1025  0.3407
 1983TIP3   OH227439   3.492   1.770  10.834  0.4049 -0.7005 -0.5442
 1983TIP3    H127440   3.471   1.843  10.777  1.0717  1.1882  1.5583
 1983TIP3    H227441   3.557   1.720  10.786  2.4566  1.9599 -0.6241
 1984TIP3   OH227442   3.142   5.224   3.400  0.1007  0.0937 -0.1718
 1984TIP3    H127443   3.157   5.249   3.491  0.5172  2.1297 -0.7721
 1984TIP3    H227444   3.048   5.209   3.395 -0.3535  2.5475  0.0392
 1985TIP3   OH227445   1.079   6.339   2.100  0.3732 -0.1212 -0.1826
 1985TIP3    H127446   0.999   6.348   2.049  0.9590  0.1861 -1.0419
 1985TIP3    H227447   1.149   6.330   2.036  1.0457 -0.3465  0.5616
 1986TIP3   OH227448   6.249   5.501   5.281  0.1288 -0.3450  0.1258
 1986TIP3    H127449   6.173   5.529   5.331  1.5125  1.6297  1.2094
 1986TIP3    H227450   6.314   5.570   5.295  2.5731 -2.5619  0.2643
 1987TIP3   OH227451   1.597   3.299   6.400 -0.1455 -0.6713  0.1642
 1987TIP3    H127452   1.679   3.335   6.365 -0.1972 -1.6271 -0.9988
 1987TIP3    H227453   1.618   3.273   6.489  0.2918  0.8556  0.5161
 1988TIP3   OH227454   4.273   4.211   2.351  0.1731  0.1412 -0.5038
 1988TIP3    H127455   4.273   4.302   2.321 -1.0595 -0.0535 -1.1576
 1988TIP3    H227456   4.217   4.166   2.287 -0.1199 -0.8516  0.4483
 1989TIP3   OH227457   4.437   3.701  16.667  0.1562 -0.0071 -0.1482
 1989TIP3    H127458   4.464   3.656  16.587 -0.8690  0.8436 -0.9864
 1989TIP3    H227459   4.460   3.793  16.652 -2.1625  0.5498 -0.4261
 1990TIP3   OH227460   6.144   0.347  14.849 -0.4235 -0.3274  0.2276
 1990TIP3    H127461   6.149   0.414  14.918 -2.1160  0.2411 -0.1842
 1990TIP3    H227462   6.051   0.338  14.831 -0.0092 -0.5270 -1.9445
 1991TIP3   OH227463   6.143   6.120  16.777 -0.9995  0.0153  0.7644
 1991TIP3    H127464   6.188   6.040  16.748 -0.8328  0.3968 -0.0497
 1991TIP3    H227465   6.208   6.167  16.828 -0.2768  0.8282 -0.8669
 1992TIP3   OH227466   4.223   5.772   5.465  0.1499 -0.5468  0.3113
 1992TIP3    H127467   4.280   5.841   5.431  0.3311 -0.8738 -0.0440
 1992TIP3    H227468   4.199   5.721   5.388  1.8072 -2.2245  0.8803
 1993TIP3   OH227469   3.696   5.102   0.742 -0.0712  0.9174  0.0208
 1993TIP3    H127470   3.664   5.032   0.799 -1.6398 -0.1780 -2.1197
 1993TIP3    H227471   3.785   5.119   0.773 -0.0479 -1.2796  1.2816
 1994TIP3   OH227472   5.342   2.384  11.657  0.8303 -0.2142 -0.1838
 1994TIP3    H127473   5.348   2.369  11.562  0.7124  1.2404 -0.4256
 1994TIP3    H227474   5.248   2.386  11.675  0.8513  0.0508 -0.1139
 1995TIP3   OH227475   1.418   0.485   4.783  0.2574 -0.3553 -0.1122
 1995TIP3    H127476   1.500   0.472   4.736  0.0399  0.1263 -0.6149
 1995TIP3    H227477   1.445   0.495   4.875  1.0164  2.9690 -0.6595
 1996TIP3   OH227478   2.551   4.497   5.835 -0.3265 -0.9617 -0.1976
 1996TIP3    H127479   2.472   4.503   5.781 -0.9767 -0.9398  0.7630
 1996TIP3    H227480   2.521   4.511   5.924  0.8110 -0.6522  0.1404
 1997TIP3   OH227481   4.693   0.833   6.453 -0.0849  0.2957  0.6038
 1997TIP3    H127482   4.747   0.911   6.464  0.7708 -0.1878  0.0290
 1997TIP3    H227483   4.757   0.762   6.442 -0.8280 -0.2073 -0.7019
 1998TIP3   OH227484   0.329   2.729  16.785 -0.2994  0.2145  0.6940
 1998TIP3    H127485   0.321   2.668  16.858 -0.6170  0.4184  0.8290
 1998TIP3    H227486   0.287   2.684  16.712  0.5777 -0.2570  0.4683
 1999TIP3   OH227487   2.166   1.656  14.396 -0.3280 -0.0160  0.4557
 1999TIP3    H127488   2.147   1.740  14.437  0.5919 -0.0347  0.9409
 1999TIP3    H227489   2.123   1.591  14.453 -2.7551  0.2521 -1.0363
 2000TIP3   OH227490   1.737   5.976  12.840  0.6098 -0.0061  0.4474
 2000TIP3    H127491   1.701   5.900  12.885  1.5246 -0.2280  0.8136
 2000TIP3    H227492   1.744   6.043  12.908 -1.1204  0.7436 -0.0746
 2001TIP3   OH227493   3.667   4.267   2.981 -0.0706 -0.0281 -0.6772
 2001TIP3    H127494   3.699   4.306   3.062 -0.5819 -0.4093 -0.2912
 2001TIP3    H227495   3.592   4.322   2.956  0.1921  0.1908 -0.9775
 2002TIP3   OH227496   3.626   0.385  16.424 -0.0063 -0.0091  0.2151
 2002TIP3    H127497   3.708   0.381  16.375  0.0271  1.5373  0.1237
 2002TIP3    H227498   3.567   0.327  16.376  1.0592 -1.2068  0.3354
 2003TIP3   OH227499   6.167   5.735  13.536  0.2889  0.0293 -0.3337
 2003TIP3    H127500   6.098   5.698  13.480  0.4100  0.1305 -0.5518
 2003TIP3    H227501   6.150   5.829  13.537  0.5668  0.0832 -0.5834
 2004TIP3   OH227502   4.440   4.655   2.816  0.0070  0.1641 -0.1710
 2004TIP3    H127503   4.425   4.658   2.722  0.8319 -0.0786 -0.3105
 2004TIP3    H227504   4.505   4.586   2.829 -0.2762  0.0342  0.5987
 2005TIP3   OH227505   2.150   5.849  16.141  0.1371  0.3101 -0.3038
 2005TIP3    H127506   2.149   5.818  16.051  1.4829  0.7297 -0.4658
 2005TIP3    H227507   2.205   5.927  16.140  1.5911 -0.6490  1.1896
 2006TIP3   OH227508   1.955   2.289   3.046  0.2030  0.3776 -0.4910
 2006TIP3    H127509   1.915   2.254   3.126  1.9637 -0.2763  0.1352
 2006TIP3    H227510   1.893   2.355   3.015  0.2793  1.9170  2.4040
 2007TIP3   OH227511   6.773   6.755   0.800 -0.2698  0.0891 -0.8694
 2007TIP3    H127512   6.722   6.765   0.881 -2.1662 -0.1962 -1.9881
 2007TIP3    H227513   6.803   6.843   0.779  1.1624  0.0034  0.7112
 2008TIP3   OH227514   3.175   3.863   4.067  0.3390  0.6142  0.9543
 2008TIP3    H127515   3.162   3.778   4.024  1.2913 -0.8152  3.4014
 2008TIP3    H227516   3.088   3.887   4.098 -0.0949  0.9814 -0.4860
 2009TIP3   OH227517   6.809   2.577  15.346 -0.0086 -0.0744  0.2365
 2009TIP3    H127518   6.816   2.672  15.349  1.1536 -0.1598  0.6323
 2009TIP3    H227519   6.725   2.558  15.387  0.1258  0.7442  0.9128
 2010TIP3   OH227520   1.043   1.225   6.974  0.7029 -0.4186 -0.1272
 2010TIP3    H127521   1.011   1.151   6.922 -0.1244  0.1890 -0.5006
 2010TIP3    H227522   0.972   1.244   7.035  1.8259 -1.3820  1.5192
 2011TIP3   OH227523   1.353   6.746   3.367  0.2969 -0.1847 -0.0379
 2011TIP3    H127524   1.407   6.709   3.438 -0.1869  0.1480  0.5041
 2011TIP3    H227525   1.417   6.787   3.308  0.6688 -0.0651  0.4396
 2012TIP3   OH227526   3.836   5.098   1.960  0.3073 -0.8789  0.1538
 2012TIP3    H127527   3.864   5.106   2.051 -0.3365 -0.6683  0.3356
 2012TIP3    H227528   3.856   5.007   1.937  1.4462 -0.6440  0.1701
 2013TIP3   OH227529   4.722   0.655  14.279 -0.1283 -0.4819  0.8624
 2013TIP3    H127530   4.642   0.684  14.235  0.2541 -0.5943  0.0780
 2013TIP3    H227531   4.697   0.572  14.320 -0.2071 -0.9274 -0.0618
 2014TIP3   OH227532   1.736   6.175  15.950 -0.1883 -0.2029  0.4206
 2014TIP3    H127533   1.663   6.184  16.012 -0.2830  2.7867 -0.0409
 2014TIP3    H227534   1.796   6.246  15.973  0.5848 -0.0907 -1.8319
 2015TIP3   OH227535   6.629   4.674  13.712 -0.0222  0.3976 -0.0810
 2015TIP3    H127536   6.690   4.700  13.782 -0.2170  0.6474 -0.0053
 2015TIP3    H227537   6.620   4.752  13.658 -0.0682  0.2781 -0.2458
 2016TIP3   OH227538   3.582   2.417   5.863 -0.3251  0.5124 -0.0583
 2016TIP3    H127539   3.508   2.402   5.921 -0.1676 -0.8599 -0.1848
 2016TIP3    H227540   3.611   2.329   5.838 -0.0896  1.0629 -1.8139
 2017TIP3   OH227541   6.239   5.655   4.870  0.1477  0.4117 -0.3346
 2017TIP3    H127542   6.303   5.726   4.877 -2.7350  3.2491 -1.6081
 2017TIP3    H227543   6.244   5.627   4.778  0.9822 -0.8203  0.0642
 2018TIP3   OH227544   4.360   3.706   2.139  0.0084  0.2816  0.1136
 2018TIP3    H127545   4.364   3.715   2.234 -0.0359 -3.0593  0.4891
 2018TIP3    H227546   4.274   3.666   2.123  0.9286 -1.2432 -1.1163
 2019TIP3   OH227547   3.541   4.154  13.035 -0.0700 -0.3390  0.3177
 2019TIP3    H127548   3.614   4.214  13.053 -0.7677  0.5933  0.0740
 2019TIP3    H227549   3.532   4.156  12.939  2.0116 -3.3562 -0.0127
 2020TIP3   OH227550   6.696   2.112   0.449 -0.3021 -0.5350 -0.0609
 2020TIP3    H127551   6.619   2.075   0.405 -0.4759 -1.0788  0.7052
 2020TIP3    H227552   6.700   2.066   0.533  1.0378 -0.7210 -0.2283
 2021TIP3   OH227553   3.048   1.167  14.156 -0.2757  0.0125 -0.0703
 2021TIP3    H127554   3.016   1.175  14.245 -0.7229 -0.3276 -0.1936
 2021TIP3    H227555   3.036   1.074  14.134 -0.5131  0.1646 -0.6066
 2022TIP3   OH227556   3.802   2.439  13.640  0.6918  0.0916  0.7642
 2022TIP3    H127557   3.726   2.381  13.632  0.1983  0.6331  1.5001
 2022TIP3    H227558   3.859   2.414  13.567  0.1075 -0.7596  0.5920
 2023TIP3   OH227559   2.870   1.212   2.124 -0.2035 -0.0162  0.8221
 2023TIP3    H127560   2.883   1.307   2.114  1.8696 -0.3055  0.7419
 2023TIP3    H227561   2.904   1.192   2.211  1.4343 -1.0417 -0.0256
 2024TIP3   OH227562   4.773   4.935  15.841 -0.1424 -0.2491 -0.3393
 2024TIP3    H127563   4.830   4.969  15.911  0.3560 -1.0362 -0.3626
 2024TIP3    H227564   4.686   4.936  15.879  0.2926 -1.8416  0.7295
 2025TIP3   OH227565   1.478   2.816  15.108  0.4427  0.6613  0.0143
 2025TIP3    H127566   1.545   2.794  15.174 -0.7514  0.1524  1.0833
 2025TIP3    H227567   1.395   2.813  15.157 -0.3158  1.7057 -1.1946
 2026TIP3   OH227568   0.111   3.735  15.456 -0.0981 -0.0823  0.3084
 2026TIP3    H127569   0.121   3.723  15.361 -0.4446  0.2090  0.2341
 2026TIP3    H227570   0.170   3.671  15.494 -1.4213 -1.5726 -0.0949
 2027TIP3   OH227571   0.199   4.731   2.008  0.6106 -0.0057 -0.1298
 2027TIP3    H127572   0.179   4.651   2.056  1.8142 -1.7283 -2.4458
 2027TIP3    H227573   0.294   4.739   2.012  0.5727  0.8129 -0.7101
 2028TIP3   OH227574   2.972   3.323   1.204 -0.1439  0.1169  0.7798
 2028TIP3    H127575   2.986   3.231   1.181 -0.7561  0.4499 -0.9969
 2028TIP3    H227576   2.877   3.331   1.215 -0.1078  0.5667  0.7767
 2029TIP3   OH227577   3.446   5.346  12.123 -0.0276 -0.0902  0.0473
 2029TIP3    H127578   3.507   5.275  12.143 -0.3061 -0.8971 -1.9025
 2029TIP3    H227579   3.360   5.304  12.123 -0.1852  0.2125 -1.1797
 2030TIP3   OH227580   1.004   5.343  15.149 -1.2276 -0.3358 -0.3710
 2030TIP3    H127581   0.933   5.372  15.092 -1.5212  0.8495  0.5966
 2030TIP3    H227582   1.056   5.285  15.094 -1.9531  0.1771 -1.6115
 2031TIP3   OH227583   5.884   4.124  13.797  0.0143  0.1495  0.3137
 2031TIP3    H127584   5.880   4.090  13.708 -0.2264  1.5377 -0.2297
 2031TIP3    H227585   5.831   4.063  13.848  1.0850 -1.2952 -0.2723
 2032TIP3   OH227586   4.833   4.119   2.673  0.1070 -0.1865 -0.4054
 2032TIP3    H127587   4.857   4.027   2.683 -2.3804 -0.8258  0.2149
 2032TIP3    H227588   4.849   4.158   2.759 -0.4423 -0.4605 -0.1749
 2033TIP3   OH227589   1.096   5.418  10.986 -0.0298  0.4948 -0.4393
 2033TIP3    H127590   1.190   5.430  10.968 -0.1146 -0.1544 -1.4286
 2033TIP3    H227591   1.072   5.491  11.042  1.3380  0.0211  0.8119
 2034TIP3   OH227592   2.724   0.520   3.995  0.3370 -0.1140 -0.2236
 2034TIP3    H127593   2.735   0.556   4.083 -0.3536 -2.6641  0.9787
 2034TIP3    H227594   2.630   0.499   3.989  0.5723 -0.9535 -1.1470
 2035TIP3   OH227595   2.229   3.471   5.114  0.3823 -0.1730  0.1003
 2035TIP3    H127596   2.268   3.531   5.177  1.9991 -0.0798 -0.9556
 2035TIP3    H227597   2.299   3.454   5.050 -1.2653 -0.0979 -1.7730
 2036TIP3   OH227598   4.803   0.151   0.226 -0.6358  0.3663  0.7502
 2036TIP3    H127599   4.805   0.075   0.284 -1.4355  0.0319  0.3467
 2036TIP3    H227600   4.849   0.220   0.274  1.1102 -0.6963  0.6686
 2037TIP3   OH227601   2.083   1.859  13.967  0.0902  0.1802 -0.1793
 2037TIP3    H127602   2.077   1.954  13.955 -1.1292  0.3354  1.4129
 2037TIP3    H227603   2.102   1.825  13.880  0.5708  1.8857 -0.7701
 2038TIP3   OH227604   4.217   1.058  15.362  0.6392  0.7286  0.0932
 2038TIP3    H127605   4.204   1.149  15.336  1.7361  0.2323 -2.4305
 2038TIP3    H227606   4.247   1.015  15.281  1.1431 -1.6310  1.4949
 2039TIP3   OH227607   5.687   5.380   2.939 -0.3800  0.6517  0.1159
 2039TIP3    H127608   5.611   5.437   2.947 -0.5456  0.1790  1.9202
 2039TIP3    H227609   5.662   5.317   2.871 -0.8184  1.7076 -0.7210
 2040TIP3   OH227610   2.333   0.123  15.826  0.2026  0.1211  0.3902
 2040TIP3    H127611   2.424   0.095  15.813 -0.5011 -1.1482 -2.0906
 2040TIP3    H227612   2.294   0.054  15.879  0.8789  1.1389  2.2932
 2041TIP3   OH227613   1.761   1.526   2.292 -0.4385  0.2607 -0.4206
 2041TIP3    H127614   1.799   1.611   2.267 -0.0034 -0.2653 -1.5496
 2041TIP3    H227615   1.744   1.482   2.209  0.3487 -1.2124  0.2023
 2042TIP3   OH227616   3.339   3.468  14.262 -0.3564 -0.5028  0.1653
 2042TIP3    H127617   3.369   3.378  14.267  1.8911  0.2068  0.2669
 2042TIP3    H227618   3.244   3.464  14.275 -0.6196 -3.0615 -2.1934
 2043TIP3   OH227619   2.501   3.573  15.279 -0.0982  0.0635  0.7514
 2043TIP3    H127620   2.525   3.526  15.358 -0.0563  1.4893  1.6179
 2043TIP3    H227621   2.448   3.511  15.228  1.5445 -1.5246  0.9633
 2044TIP3   OH227622   5.391   4.656  16.187  0.2510  0.1805 -0.0668
 2044TIP3    H127623   5.316   4.624  16.237  1.4139 -1.5193  0.6131
 2044TIP3    H227624   5.461   4.665  16.251  1.2398 -0.3116 -1.0581
 2045TIP3   OH227625   5.811   0.742   6.294  0.1699 -0.0558  0.1020
 2045TIP3    H127626   5.731   0.713   6.336  0.1072 -1.0032 -0.6611
 2045TIP3    H227627   5.796   0.834   6.273  0.2178  0.4467  2.1715
 2046TIP3   OH227628   2.360   3.475   1.252  0.2085 -0.0529 -0.0575
 2046TIP3    H127629   2.326   3.512   1.171 -0.0193 -0.7782 -0.3012
 2046TIP3    H227630   2.282   3.450   1.302  0.3572 -0.9635 -0.2612
 2047TIP3   OH227631   6.071   1.541  12.899 -0.3311  0.3807  0.5384
 2047TIP3    H127632   6.090   1.536  12.805 -1.3515  0.7639  0.3010
 2047TIP3    H227633   6.119   1.468  12.937  0.7204  0.6888 -0.1748
 2048TIP3   OH227634   4.223   3.630  16.807  0.8184  0.0429  0.4987
 2048TIP3    H127635   4.173   3.710  16.826 -1.1517 -1.1324  0.4229
 2048TIP3    H227636   4.296   3.660  16.754 -1.3851  1.4447 -1.8729
 2049TIP3   OH227637   3.954   2.221   3.413 -0.0800 -0.2927 -0.0445
 2049TIP3    H127638   3.962   2.312   3.438 -0.5716 -0.2875  0.0921
 2049TIP3    H227639   3.952   2.222   3.317 -0.2727 -0.1440 -0.0384
 2050TIP3   OH227640   5.989   2.482  13.427 -0.5390 -0.6257 -0.2558
 2050TIP3    H127641   5.946   2.440  13.501  0.0813 -0.1260  0.3892
 2050TIP3    H227642   5.927   2.549  13.397  1.1992  2.5225  2.8841
 2051TIP3   OH227643   1.531   3.456  13.787 -0.3651 -0.0641  0.3185
 2051TIP3    H127644   1.618   3.437  13.821  0.1367 -0.8619 -1.3887
 2051TIP3    H227645   1.540   3.450  13.692 -2.2052  0.1362  0.1118
 2052TIP3   OH227646   2.147   1.812   3.376 -0.6388 -0.1896  0.0061
 2052TIP3    H127647   2.154   1.729   3.422 -0.0229 -0.9098 -1.3479
 2052TIP3    H227648   2.069   1.801   3.320 -0.3636  0.0079 -0.4203
 2053TIP3   OH227649   5.812   4.498  15.246  0.1034  0.5843 -0.1581
 2053TIP3    H127650   5.796   4.465  15.157 -0.1093  0.9845 -0.2710
 2053TIP3    H227651   5.725   4.511  15.283  0.1822 -1.2561  0.7466
 2054TIP3   OH227652   2.540   0.704   3.368  0.6103  0.3644 -0.2634
 2054TIP3    H127653   2.570   0.617   3.342 -0.7483 -0.6724  1.5127
 2054TIP3    H227654   2.502   0.741   3.289  1.3178 -0.6259 -1.0725
 2055TIP3   OH227655   5.919   0.018  14.196 -0.2941  0.3886  0.5869
 2055TIP3    H127656   5.964   0.103  14.192 -0.7108  0.6252  0.9696
 2055TIP3    H227657   5.843   0.034  14.251 -1.4824  0.2713 -0.9749
 2056TIP3   OH227658   6.708   0.438  16.057  0.4965 -0.1962  0.4333
 2056TIP3    H127659   6.670   0.504  15.999  0.2467 -0.4199  0.3385
 2056TIP3    H227660   6.643   0.428  16.127 -1.0609 -2.7333 -1.2761
 2057TIP3   OH227661   5.185   4.622  16.360 -0.1821  0.4456  0.4155
 2057TIP3    H127662   5.095   4.640  16.331 -0.6439 -0.5680  1.1633
 2057TIP3    H227663   5.179   4.536  16.402  1.0363  0.6130  0.9432
 2058TIP3   OH227664   1.226   5.690   5.378 -0.1446  0.2505  0.4810
 2058TIP3    H127665   1.243   5.751   5.450 -2.5989  0.7373  0.6962
 2058TIP3    H227666   1.235   5.604   5.418  2.8693  0.4350  0.2921
 2059TIP3   OH227667   5.841   3.257   4.630  0.7985 -0.0254  0.0160
 2059TIP3    H127668   5.867   3.170   4.599 -1.1846 -0.8275  0.5627
 2059TIP3    H227669   5.774   3.286   4.568  1.2035  0.9772  0.0357
 2060TIP3   OH227670   4.333   2.366   5.354  0.1538  0.3922 -0.2429
 2060TIP3    H127671   4.364   2.341   5.441  0.2585 -1.1903 -0.7299
 2060TIP3    H227672   4.356   2.459   5.347  2.2419 -0.0233  0.5361
 2061TIP3   OH227673   6.565   4.405  13.698 -0.3807  0.7258  0.1037
 2061TIP3    H127674   6.521   4.378  13.779 -0.7576 -0.8349 -0.6112
 2061TIP3    H227675   6.560   4.500  13.699 -1.9654  0.6519  1.0411
 2062TIP3   OH227676   5.671   3.472   3.822  0.6656  0.1493 -0.3304
 2062TIP3    H127677   5.709   3.451   3.907  0.6126  0.8265 -0.1324
 2062TIP3    H227678   5.658   3.388   3.779 -0.3361 -0.2779  0.7726
 2063TIP3   OH227679   2.488   0.209  15.153  0.8416 -0.2620 -0.3034
 2063TIP3    H127680   2.545   0.142  15.115  0.7695 -0.2704 -0.3969
 2063TIP3    H227681   2.548   0.268  15.199  1.0072  0.2487 -1.1831
 2064TIP3   OH227682   6.754   6.155   2.900 -0.1272  0.1846 -0.7522
 2064TIP3    H127683   6.728   6.101   2.974  0.7481  3.5150  2.1099
 2064TIP3    H227684   6.848   6.141   2.890  0.0730  0.9983 -0.1011
 2065TIP3   OH227685   1.750   3.190  16.734 -0.4721 -0.2706 -0.0816
 2065TIP3    H127686   1.756   3.114  16.676  0.3059  0.3716 -0.8632
 2065TIP3    H227687   1.685   3.166  16.799  0.9601 -2.2877  0.6732
 2066TIP3   OH227688   4.966   5.241  11.373  0.7279  0.8746 -0.0060
 2066TIP3    H127689   4.894   5.264  11.314  1.4559  0.4939 -1.0654
 2066TIP3    H227690   5.041   5.291  11.339  1.5185 -0.4996 -0.3284
 2067TIP3   OH227691   1.576   1.826   5.901  0.4047  0.1461 -0.2231
 2067TIP3    H127692   1.625   1.818   5.819  0.1201 -0.3821 -0.3455
 2067TIP3    H227693   1.640   1.808   5.969  0.7820  1.1970 -0.3038
 2068TIP3   OH227694   0.047   1.440   4.976  0.0382 -0.4041 -0.3142
 2068TIP3    H127695   0.042   1.483   4.890  1.2222  0.5858  0.0880
 2068TIP3    H227696  -0.042   1.449   5.012  0.2238  1.6111 -0.3038
 2069TIP3   OH227697   6.646   4.965   5.805 -0.3896 -0.0456  0.0188
 2069TIP3    H127698   6.590   4.944   5.730 -1.9097  0.8246  0.8671
 2069TIP3    H227699   6.611   4.911   5.876 -0.5958  0.9989  0.7279
 2070TIP3   OH227700   5.106   6.066   1.456  0.0097  0.0653 -0.2612
 2070TIP3    H127701   5.053   6.084   1.378  0.0697  0.3901 -0.2293
 2070TIP3    H227702   5.191   6.106   1.438  0.3460 -0.7176 -0.4352
 2071TIP3   OH227703   3.392   1.054   1.235  0.1434  0.8474 -0.4740
 2071TIP3    H127704   3.300   1.036   1.214  0.5531  0.1791 -1.7997
 2071TIP3    H227705   3.411   1.137   1.191 -0.1699  1.6493  0.8772
 2072TIP3   OH227706   5.786   1.711   0.147 -0.6813  0.6181  0.2552
 2072TIP3    H127707   5.744   1.631   0.180 -1.2103  0.4601 -0.7904
 2072TIP3    H227708   5.878   1.687   0.137 -0.9904 -0.1549 -0.9161
 2073TIP3   OH227709   4.320   1.491   4.053  0.1476 -0.6570 -1.0636
 2073TIP3    H127710   4.411   1.500   4.025  0.8592 -2.1165  0.6726
 2073TIP3    H227711   4.314   1.543   4.133  0.6166 -3.9375  1.1890
 2074TIP3   OH227712   4.201   0.370   3.396 -0.6232  0.5038  0.4898
 2074TIP3    H127713   4.166   0.327   3.475 -0.1237  1.1495  1.0747
 2074TIP3    H227714   4.123   0.404   3.352 -0.8830  0.4359  0.8866
 2075TIP3   OH227715   4.983   3.755   6.487 -0.5112 -0.0359 -0.4230
 2075TIP3    H127716   5.070   3.781   6.457 -0.5834 -0.8807 -1.3886
 2075TIP3    H227717   5.000   3.710   6.570 -0.2569  1.7752  0.5431
 2076TIP3   OH227718   3.845   6.367  14.196 -0.0103 -0.3619  0.2082
 2076TIP3    H127719   3.905   6.398  14.264 -0.6346  0.2448  0.5036
 2076TIP3    H227720   3.762   6.410  14.218 -0.1955 -0.0989 -0.9883
 2077TIP3   OH227721   5.956   4.942   5.400  0.1847  0.4992 -0.7341
 2077TIP3    H127722   5.919   4.861   5.436  1.3349 -0.3528 -1.4571
 2077TIP3    H227723   5.891   5.009   5.421  0.1738 -0.2278  1.7194
 2078TIP3   OH227724   3.843   5.343   2.800  0.0339 -0.4589 -0.1310
 2078TIP3    H127725   3.926   5.356   2.753  0.4760  0.1973  0.8109
 2078TIP3    H227726   3.776   5.348   2.732  0.6910  0.0831 -0.7502
 2079TIP3   OH227727   3.555   2.737   3.753 -0.2530 -0.5359  0.2224
 2079TIP3    H127728   3.589   2.693   3.831  0.2635  0.6878  0.6907
 2079TIP3    H227729   3.461   2.719   3.755 -0.2868 -0.2176  1.3076
 2080TIP3   OH227730   6.814   3.623   5.922  0.2729  0.2884 -0.0939
 2080TIP3    H127731   6.813   3.591   6.013  1.3794  0.6983  0.0700
 2080TIP3    H227732   6.834   3.716   5.929  0.3986  0.3164 -0.7569
 2081TIP3   OH227733   3.307   2.572  14.902 -0.1274  0.4186  0.6197
 2081TIP3    H127734   3.362   2.578  14.981  0.4212  1.2332  0.1850
 2081TIP3    H227735   3.224   2.611  14.929  0.1358  0.9129  0.7350
 2082TIP3   OH227736   2.224   0.861  16.539  0.8546  0.1134 -0.6821
 2082TIP3    H127737   2.211   0.767  16.524 -0.2027  0.1874 -0.2306
 2082TIP3    H227738   2.138   0.900  16.526  1.2786  1.0222 -0.8035
 2083TIP3   OH227739   0.416   5.905  14.813 -0.2507 -0.3197 -0.1828
 2083TIP3    H127740   0.487   5.889  14.752 -0.0114 -0.6356  0.1774
 2083TIP3    H227741   0.366   5.977  14.774  0.7500  0.4665 -0.0243
 2084TIP3   OH227742   5.054   1.617  10.974  0.0495  0.4879 -0.2130
 2084TIP3    H127743   5.143   1.651  10.988 -0.2864  0.8289  1.1460
 2084TIP3    H227744   4.999   1.695  10.965 -0.1121  0.2751 -1.0872
 2085TIP3   OH227745   6.642   3.183   1.429 -0.0798 -0.2197  0.2146
 2085TIP3    H127746   6.566   3.219   1.384 -0.9279 -1.9742  0.2032
 2085TIP3    H227747   6.636   3.216   1.518  1.4255  3.0078 -0.7745
 2086TIP3   OH227748   4.950   0.503  15.844 -0.3229  0.4992 -0.0045
 2086TIP3    H127749   4.988   0.524  15.930  0.7709 -1.3963  0.0128
 2086TIP3    H227750   4.905   0.420  15.859 -0.8325  0.5831 -1.0826
 2087TIP3   OH227751   5.630   0.718   2.278 -0.6822 -0.0413  0.0198
 2087TIP3    H127752   5.598   0.713   2.188 -0.1494  1.3258 -0.2626
 2087TIP3    H227753   5.638   0.627   2.306 -0.3059 -0.4953 -1.5118
 2088TIP3   OH227754   5.297   6.752   4.596  0.0106 -0.1920 -0.4666
 2088TIP3    H127755   5.295   6.801   4.513  0.1979  1.5954  0.5740
 2088TIP3    H227756   5.221   6.785   4.644 -0.2388 -1.4127 -0.0288
 2089TIP3   OH227757   6.303   4.702   6.344 -0.0288  0.0004 -0.5317
 2089TIP3    H127758   6.299   4.787   6.299  0.2423  0.5686  0.4934
 2089TIP3    H227759   6.384   4.706   6.395  0.1358 -1.0008 -0.7067
 2090TIP3   OH227760   2.492   4.493  16.465  0.0584  0.5213 -0.4866
 2090TIP3    H127761   2.493   4.474  16.559 -0.4560 -3.3442 -1.1958
 2090TIP3    H227762   2.583   4.486  16.438  0.2158  1.7013 -0.2879
 2091TIP3   OH227763   6.623   0.696  11.167  0.3800 -0.5555 -0.8019
 2091TIP3    H127764   6.594   0.781  11.134  1.3340  0.1259  0.0845
 2091TIP3    H227765   6.621   0.705  11.263  1.4393 -1.2063 -0.7115
 2092TIP3   OH227766   3.250   0.076  15.066  0.0765 -0.0913 -0.9621
 2092TIP3    H127767   3.272   0.055  15.157  1.0266 -0.4913 -1.2760
 2092TIP3    H227768   3.322   0.039  15.015 -0.1119  0.7253 -1.8273
 2093TIP3   OH227769   4.445   5.320  11.976  0.0632 -0.2042 -0.6221
 2093TIP3    H127770   4.438   5.414  11.993  0.6099 -0.0210 -1.3915
 2093TIP3    H227771   4.400   5.279  12.050 -0.7301  0.6720 -0.6129
 2094TIP3   OH227772   0.288   4.425   6.014  0.4716 -0.2592  0.1805
 2094TIP3    H127773   0.236   4.485   5.959 -0.2872 -1.5166 -0.4887
 2094TIP3    H227774   0.316   4.479   6.087  0.7557  1.2303 -0.9920
 2095TIP3   OH227775   0.154   3.673   0.575 -0.2458  0.1337  0.2653
 2095TIP3    H127776   0.065   3.705   0.589  0.7826  2.1221  2.4534
 2095TIP3    H227777   0.189   3.729   0.505  0.6431  2.1046  2.2435
 2096TIP3   OH227778   4.311   5.539  14.652  0.4427  0.0229 -0.3284
 2096TIP3    H127779   4.226   5.579  14.633  0.7818  0.3076 -1.2295
 2096TIP3    H227780   4.311   5.528  14.747  0.2644  1.9667 -0.0923
 2097TIP3   OH227781   2.263   5.934   5.566  0.4587  0.5023 -0.2212
 2097TIP3    H127782   2.331   5.921   5.633  0.4239  5.2898  0.8965
 2097TIP3    H227783   2.186   5.961   5.615 -0.4997  0.9389 -1.9401
 2098TIP3   OH227784   2.462   3.322   3.027 -0.1760  0.3894 -0.2392
 2098TIP3    H127785   2.477   3.382   2.953 -1.5965  0.6999 -0.2893
 2098TIP3    H227786   2.484   3.236   2.992 -0.7217  0.5529 -0.9952
 2099TIP3   OH227787   3.847   3.839   3.629  0.2160  0.6762 -0.1192
 2099TIP3    H127788   3.926   3.824   3.578  0.3945  0.9275  0.0804
 2099TIP3    H227789   3.828   3.754   3.669  1.3172  0.9878  1.1384
 2100TIP3   OH227790   1.659   3.047   2.470 -0.1863  0.0251 -0.6181
 2100TIP3    H127791   1.755   3.051   2.473 -0.0742 -0.7592 -2.3632
 2100TIP3    H227792   1.634   3.023   2.559  1.2353  0.2719 -0.1246
 2101TIP3   OH227793   3.024   2.302   2.392  0.1523 -1.0700 -0.5965
 2101TIP3    H127794   3.068   2.298   2.477 -1.1475 -3.3980  0.0129
 2101TIP3    H227795   3.054   2.383   2.353 -1.0471  1.2933  3.1159
 2102TIP3   OH227796   1.289   3.144   1.220 -0.5063  0.0686  0.7390
 2102TIP3    H127797   1.248   3.221   1.180 -1.1357 -1.0147 -0.7575
 2102TIP3    H227798   1.378   3.173   1.242 -0.7792  1.2685  0.3373
 2103TIP3   OH227799   0.274   5.092  15.995  0.2802  0.0270 -0.0121
 2103TIP3    H127800   0.368   5.072  15.989  0.5691 -0.0393  3.6049
 2103TIP3    H227801   0.270   5.187  16.005 -0.0805  0.0927 -0.7711
 2104TIP3   OH227802   2.571   3.097   2.612 -0.0648  0.3125 -0.1860
 2104TIP3    H127803   2.609   3.162   2.671  0.2750  1.5866 -1.7463
 2104TIP3    H227804   2.524   3.150   2.547  0.1096 -1.0105 -1.4124
 2105TIP3   OH227805   1.483   5.745   1.204 -0.0135  0.8004  0.1363
 2105TIP3    H127806   1.453   5.657   1.226 -0.1760  0.3944 -1.5919
 2105TIP3    H227807   1.563   5.756   1.254 -0.7335  0.2065  1.4376
 2106TIP3   OH227808   4.143   2.089  17.237 -0.2406  0.5182 -0.3742
 2106TIP3    H127809   4.238   2.090  17.244 -0.3339 -1.0229  1.5957
 2106TIP3    H227810   4.113   2.163  17.289 -0.1374  0.8779 -0.8220
 2107TIP3   OH227811   4.206   4.727  11.682 -0.8579  0.3776  0.5182
 2107TIP3    H127812   4.163   4.674  11.749 -0.1183 -0.3752  0.4060
 2107TIP3    H227813   4.221   4.811  11.724 -0.9755  0.1181  1.0852
 2108TIP3   OH227814   2.914   3.609   4.328  0.5422 -0.0188 -0.1974
 2108TIP3    H127815   3.008   3.607   4.344  0.8746  0.2466 -1.9922
 2108TIP3    H227816   2.904   3.572   4.240 -0.8704  1.3574 -0.6412
 2109TIP3   OH227817   2.486   1.284  14.032  0.1835 -0.0954 -0.4318
 2109TIP3    H127818   2.466   1.323  14.117  1.1056 -1.4511  0.4219
 2109TIP3    H227819   2.413   1.225  14.015 -0.6220  1.1016 -1.1710
 2110TIP3   OH227820   6.348   5.393   6.000  0.2183 -0.8396 -0.4343
 2110TIP3    H127821   6.352   5.459   6.069  0.9947 -1.3400  0.0103
 2110TIP3    H227822   6.256   5.370   5.993 -0.0064  0.0046 -0.3242
 2111TIP3   OH227823   4.578   4.016  12.018 -0.1990  0.6816  0.5414
 2111TIP3    H127824   4.658   3.986  12.062  0.2664 -0.9805 -1.3560
 2111TIP3    H227825   4.598   4.106  11.992 -0.3265  1.5448  3.2709
 2112TIP3   OH227826   1.650   5.978   6.605 -0.2780 -0.1505 -0.0630
 2112TIP3    H127827   1.730   5.948   6.649 -0.5273 -1.5091 -0.5242
 2112TIP3    H227828   1.679   6.003   6.517 -0.7288 -2.9453 -1.0580
 2113TIP3   OH227829   3.855   4.237  14.543  0.0455  0.4452  0.2704
 2113TIP3    H127830   3.914   4.226  14.468 -2.0772  0.7889 -1.5356
 2113TIP3    H227831   3.865   4.156  14.593 -0.0928 -0.8101 -1.6333
 2114TIP3   OH227832   5.914   3.069  12.997  0.1417  0.2901 -0.3199
 2114TIP3    H127833   5.961   3.143  13.035 -1.3698  1.4548 -0.6589
 2114TIP3    H227834   5.916   3.084  12.903  0.4478 -0.4920 -0.4452
 2115TIP3   OH227835   6.254   0.664   1.714 -0.2420  0.2379 -0.2329
 2115TIP3    H127836   6.304   0.614   1.778  0.2081 -0.3904 -1.0627
 2115TIP3    H227837   6.243   0.604   1.641 -1.4123  0.6943 -0.4320
 2116TIP3   OH227838   2.829   3.459  14.367 -0.0244  0.4643  0.3918
 2116TIP3    H127839   2.752   3.450  14.312  0.6280 -0.0387 -0.4580
 2116TIP3    H227840   2.796   3.449  14.457 -1.3408  2.8923  0.2296
 2117TIP3   OH227841   0.953   6.303   1.522  0.5140  0.1343  0.2477
 2117TIP3    H127842   0.927   6.216   1.550  1.9506 -1.3269 -2.7466
 2117TIP3    H227843   0.944   6.302   1.427  2.0269  2.7442  0.0062
 2118TIP3   OH227844   5.016   3.372   4.356 -0.1790 -0.0908  0.7907
 2118TIP3    H127845   4.936   3.319   4.353  0.4009 -0.9677  0.1913
 2118TIP3    H227846   4.988   3.461   4.336 -1.1664 -0.1832  1.7460
 2119TIP3   OH227847   4.426   2.392   0.052  0.6286  0.4482  0.8158
 2119TIP3    H127848   4.469   2.429  -0.025 -0.2024 -2.1507 -0.9177
 2119TIP3    H227849   4.487   2.325   0.083  0.6525  1.0237  2.0463
 2120TIP3   OH227850   6.685   3.244   5.981  0.2353 -0.4219  0.4044
 2120TIP3    H127851   6.677   3.306   6.053  1.6976 -0.7540  0.8720
 2120TIP3    H227852   6.703   3.160   6.022  0.0280 -0.8195 -0.2984
 2121TIP3   OH227853   0.108   5.157  12.425  0.3001 -0.4825  0.1222
 2121TIP3    H127854   0.143   5.079  12.469  4.4448  0.6501 -0.8900
 2121TIP3    H227855   0.107   5.224  12.492 -2.3078 -1.1129  0.7422
 2122TIP3   OH227856   1.855   4.317  14.925 -0.7985 -0.1569  0.4434
 2122TIP3    H127857   1.767   4.328  14.961 -1.0088 -1.5016  0.3931
 2122TIP3    H227858   1.841   4.284  14.836 -0.2676  2.1517 -0.5171
 2123TIP3   OH227859   2.807   0.918   3.742 -0.0433  0.1025 -0.0562
 2123TIP3    H127860   2.827   0.873   3.660  0.4234 -0.8943  0.6005
 2123TIP3    H227861   2.868   0.992   3.743  0.2904 -0.1619 -0.3755
 2124TIP3   OH227862   1.716   4.611  13.673 -0.4807  0.2199 -0.9266
 2124TIP3    H127863   1.654   4.664  13.624 -0.0962  1.0667 -0.5052
 2124TIP3    H227864   1.743   4.667  13.746  1.0734  0.0027 -1.3325
 2125TIP3   OH227865   0.678   3.915   2.757 -0.3791  0.9582  0.1157
 2125TIP3    H127866   0.623   3.878   2.827  0.4915  0.8355  0.7401
 2125TIP3    H227867   0.615   3.941   2.690 -1.2244  0.9672  0.8892
 2126TIP3   OH227868   3.938   0.471  14.850  0.0346 -0.4847  0.3848
 2126TIP3    H127869   3.923   0.377  14.864 -0.0870 -0.6618 -0.8114
 2126TIP3    H227870   4.013   0.492  14.905 -1.3351 -0.7705  2.3837
 2127TIP3   OH227871   2.569   4.539  13.980  0.2767  0.4761  0.4284
 2127TIP3    H127872   2.620   4.611  13.943 -0.0057  1.0142  1.0834
 2127TIP3    H227873   2.556   4.479  13.906 -1.4621  2.1903 -0.7153
 2128TIP3   OH227874   3.281   5.757   5.108  0.4815 -0.4864 -0.1677
 2128TIP3    H127875   3.206   5.814   5.092  1.3789  1.0699  1.0539
 2128TIP3    H227876   3.333   5.762   5.027  0.1514 -0.2207 -0.3617
 2129TIP3   OH227877   4.326   2.525  11.833  0.0029  0.2316  0.3297
 2129TIP3    H127878   4.363   2.503  11.918  1.3106 -0.2557 -0.3552
 2129TIP3    H227879   4.393   2.580  11.791 -0.0449 -0.6641 -0.9182
 2130TIP3   OH227880   6.111   2.788  16.533 -0.9613 -0.1280 -0.0191
 2130TIP3    H127881   6.183   2.804  16.472 -0.9522 -0.8130 -0.1928
 2130TIP3    H227882   6.140   2.827  16.616  0.0640 -1.3009  0.1949
 2131TIP3   OH227883   3.241   1.888  11.317  0.2433  0.0030  0.2138
 2131TIP3    H127884   3.301   1.825  11.278  0.3427 -0.0374  0.4361
 2131TIP3    H227885   3.265   1.972  11.278  0.2843 -0.0524  0.1207
 2132TIP3   OH227886   6.615   5.491   3.727 -0.4447  0.3508 -0.2049
 2132TIP3    H127887   6.610   5.567   3.785  0.5484 -1.1690  1.9443
 2132TIP3    H227888   6.697   5.502   3.680  1.0692 -0.6920  2.0825
 2133TIP3   OH227889   4.757   5.556   3.938 -0.2978  0.0730 -0.0390
 2133TIP3    H127890   4.721   5.643   3.956 -1.0703 -0.2496  0.0283
 2133TIP3    H227891   4.843   5.556   3.979 -0.4121  0.7069  0.2056
 2134TIP3   OH227892   4.078   6.760  11.271  0.0238 -0.3175  0.3185
 2134TIP3    H127893   4.138   6.834  11.270  0.1354 -0.3939  0.9276
 2134TIP3    H227894   4.133   6.685  11.293 -0.2887 -0.3850  0.8956
 2135TIP3   OH227895   0.499   0.168  16.452 -0.6572 -0.1308  0.0826
 2135TIP3    H127896   0.510   0.191  16.360  0.2245 -1.6299 -0.1950
 2135TIP3    H227897   0.430   0.102  16.453 -0.3579 -0.4409  0.4513
 2136TIP3   OH227898   2.372   1.311   2.056  0.2677  0.2818 -0.0046
 2136TIP3    H127899   2.356   1.373   1.985  0.5328 -0.5242 -0.7803
 2136TIP3    H227900   2.411   1.363   2.125  3.4532  0.4334 -1.8106
 2137TIP3   OH227901   3.990   6.200   0.052 -0.1787 -0.3250  0.2538
 2137TIP3    H127902   4.016   6.259   0.123 -0.5114  0.6848 -0.4520
 2137TIP3    H227903   4.062   6.205  -0.011  0.3019 -1.5259  0.6988
 2138TIP3   OH227904   3.377   2.007  14.618 -0.7343  0.6903  0.1287
 2138TIP3    H127905   3.311   2.075  14.631 -1.1708  0.2168  0.4175
 2138TIP3    H227906   3.453   2.037  14.669 -1.0417  0.7958  0.5294
 2139TIP3   OH227907   0.643   4.486  11.824  0.2888 -0.2513 -0.5240
 2139TIP3    H127908   0.549   4.471  11.819  0.2951  0.1219 -1.8943
 2139TIP3    H227909   0.652   4.567  11.875 -0.1690  0.0927 -0.9858
 2140TIP3   OH227910   5.379   3.393   5.177 -0.1976 -0.2278 -0.1945
 2140TIP3    H127911   5.325   3.434   5.245 -1.3364 -1.1240 -0.5417
 2140TIP3    H227912   5.468   3.398   5.211 -0.4614  1.4542  0.3023
 2141TIP3   OH227913   6.172   0.394   2.329 -0.1619 -0.2104  0.0675
 2141TIP3    H127914   6.236   0.379   2.399 -0.9236  0.5717  0.9315
 2141TIP3    H227915   6.178   0.488   2.311  0.1147 -0.4267 -1.0072
 2142TIP3   OH227916   4.473   5.937   1.989 -0.5472  0.2512 -0.4167
 2142TIP3    H127917   4.495   6.030   1.988  1.5582 -0.2266 -1.2935
 2142TIP3    H227918   4.557   5.892   1.984 -1.5194 -1.7167  0.3320
 2143TIP3   OH227919   3.159   1.424  13.731  0.5245 -0.0543  0.0487
 2143TIP3    H127920   3.226   1.364  13.699 -0.7942 -0.1007 -2.7177
 2143TIP3    H227921   3.103   1.370  13.787  1.2847 -0.5892  0.3083
 2144TIP3   OH227922   4.142   4.196  15.965 -0.5694 -0.6421  0.0179
 2144TIP3    H127923   4.058   4.154  15.949 -0.6350 -0.6305  0.3235
 2144TIP3    H227924   4.189   4.190  15.882 -0.5719 -1.3308  0.0628
 2145TIP3   OH227925   0.063   5.357   0.937 -0.2753  0.1281 -0.2193
 2145TIP3    H127926  -0.006   5.415   0.969 -0.0440  0.5801 -0.5309
 2145TIP3    H227927   0.124   5.415   0.891 -0.3389 -0.4419 -1.0273
 2146TIP3   OH227928   4.473   3.295   4.680  0.6058 -0.4866 -0.1118
 2146TIP3    H127929   4.548   3.239   4.699 -0.6530 -2.5347 -1.0573
 2146TIP3    H227930   4.434   3.313   4.765 -0.2352 -2.8639  0.0433
 2147TIP3   OH227931   3.480   4.801  11.744 -0.2858  0.6232 -0.1443
 2147TIP3    H127932   3.437   4.780  11.661  0.0843  0.8493 -0.3892
 2147TIP3    H227933   3.470   4.721  11.796  0.8274 -0.0477 -0.9536
 2148TIP3   OH227934   2.094   3.083   0.193 -0.1671 -0.1906 -0.1750
 2148TIP3    H127935   2.015   3.048   0.234  0.1435 -1.2826 -0.5021
 2148TIP3    H227936   2.166   3.039   0.238  0.2181 -0.2287 -0.8298
 2149TIP3   OH227937   4.718   3.224  13.618 -0.1993 -0.3729  0.1037
 2149TIP3    H127938   4.741   3.206  13.709 -1.1572  0.0287  0.4308
 2149TIP3    H227939   4.743   3.315  13.604  0.1517 -0.4997 -0.1015
 2150TIP3   OH227940   5.562   5.632   6.332 -0.6312 -0.0569 -0.1318
 2150TIP3    H127941   5.623   5.562   6.311  0.9383  1.0049  0.8025
 2150TIP3    H227942   5.607   5.712   6.304 -1.7773  0.7136  0.1839
 2151TIP3   OH227943   1.140   2.019   4.707  0.0323  0.1062  0.3716
 2151TIP3    H127944   1.051   1.991   4.728 -0.8666  1.5297 -1.4450
 2151TIP3    H227945   1.156   2.093   4.765 -0.2110  0.2837  0.2105
 2152TIP3   OH227946   6.415   1.185  16.329 -0.2707  0.1413  0.3831
 2152TIP3    H127947   6.378   1.149  16.248 -0.9035 -1.8160  1.5303
 2152TIP3    H227948   6.506   1.205  16.306 -0.5755  0.0866 -0.9454
 2153TIP3   OH227949   1.820   5.113  13.928 -0.4038 -0.0235 -0.4516
 2153TIP3    H127950   1.757   5.046  13.901 -0.5089 -1.0294  2.1359
 2153TIP3    H227951   1.774   5.196  13.913 -1.7680 -0.6907 -0.0759
 2154TIP3   OH227952   3.099   4.605  12.368  0.0678  0.4724  0.4399
 2154TIP3    H127953   3.154   4.679  12.343  1.5543  0.2922  2.9854
 2154TIP3    H227954   3.137   4.530  12.321  0.9475  0.6447  0.8759
 2155TIP3   OH227955   0.433   1.234  14.875 -0.3421 -0.3372  0.1669
 2155TIP3    H127956   0.453   1.157  14.929  0.5925 -0.0319  0.2640
 2155TIP3    H227957   0.400   1.198  14.793 -1.0469 -0.8227  0.6628
 2156TIP3   OH227958   6.530   0.202   5.315 -0.4003  0.1291 -0.3149
 2156TIP3    H127959   6.617   0.227   5.344 -0.1735  1.0560 -1.7380
 2156TIP3    H227960   6.520   0.243   5.229 -1.7289 -1.0557 -0.7573
 2157TIP3   OH227961   3.796   6.361   0.486 -0.3234  0.1022 -0.0767
 2157TIP3    H127962   3.839   6.380   0.402 -0.0797  0.0899  0.0465
 2157TIP3    H227963   3.864   6.319   0.539 -0.1085  1.2661  0.5876
 2158TIP3   OH227964   4.104   4.136   0.286 -0.3303  0.5458 -0.2480
 2158TIP3    H127965   4.105   4.172   0.197 -1.4076 -0.1070 -0.5457
 2158TIP3    H227966   4.120   4.043   0.274  1.2390  0.7240  0.4074
 2159TIP3   OH227967   3.886   5.970   4.215 -0.0945  0.7487  0.7302
 2159TIP3    H127968   3.797   5.964   4.251  0.0622 -1.3304  0.8518
 2159TIP3    H227969   3.927   5.887   4.240  1.5183  1.2229 -0.2908
 2160TIP3   OH227970   0.477   2.096  14.977  0.0534  0.1562  0.5157
 2160TIP3    H127971   0.390   2.060  14.993  1.1659 -2.6293  0.5610
 2160TIP3    H227972   0.469   2.189  14.999 -2.0504 -0.7029  3.7514
 2161TIP3   OH227973   5.662   6.748   6.434  0.6025 -0.2454 -0.8724
 2161TIP3    H127974   5.606   6.735   6.358 -1.6086  0.1429  0.6526
 2161TIP3    H227975   5.723   6.816   6.408 -1.9911  1.9638 -1.3316
 2162TIP3   OH227976   1.279   4.225   0.761  0.4310  0.2592 -0.5328
 2162TIP3    H127977   1.265   4.279   0.683 -1.5667  0.1538 -0.2690
 2162TIP3    H227978   1.339   4.276   0.815  2.1750  0.1506 -2.3021
 2163TIP3   OH227979   2.366   3.180  14.966 -0.5691  0.2533 -0.0834
 2163TIP3    H127980   2.458   3.175  14.991 -0.7797 -2.2404  0.3068
 2163TIP3    H227981   2.363   3.148  14.876 -0.9882  1.0282 -0.3601
 2164TIP3   OH227982   6.107   2.932  11.418 -0.0588 -0.3634  0.0806
 2164TIP3    H127983   6.124   2.859  11.358 -1.3972 -0.8122  0.2338
 2164TIP3    H227984   6.160   2.912  11.495 -1.1247 -1.6595  0.4899
 2165TIP3   OH227985   2.238   0.541   2.598  0.1001 -0.3814  0.3384
 2165TIP3    H127986   2.255   0.495   2.515 -0.0092 -0.2749  0.2581
 2165TIP3    H227987   2.262   0.632   2.580 -3.2019  0.3547 -0.6182
 2166TIP3   OH227988   3.684   2.163   3.576 -0.5404 -0.0677  0.1794
 2166TIP3    H127989   3.616   2.230   3.569 -0.2425  0.4221  1.7143
 2166TIP3    H227990   3.758   2.200   3.528 -1.7920 -1.2267 -2.7283
 2167TIP3   OH227991   6.413   3.377  12.841  0.7284  0.6710  0.7577
 2167TIP3    H127992   6.488   3.337  12.797 -0.0960  0.0392 -0.0882
 2167TIP3    H227993   6.436   3.376  12.934  1.3844 -0.3347  0.5905
 2168TIP3   OH227994   6.426   1.953  14.090 -0.2876 -0.2266  0.5153
 2168TIP3    H127995   6.338   1.919  14.108 -0.5925 -0.1935 -0.8060
 2168TIP3    H227996   6.454   1.992  14.172 -1.7039  0.1653  0.8314
 2169TIP3   OH227997   4.385   5.058  13.236 -0.3527 -0.4145 -0.0856
 2169TIP3    H127998   4.438   5.127  13.276 -0.2120  0.4186 -1.6983
 2169TIP3    H227999   4.415   5.054  13.145  0.5540 -3.4655  0.2731
 2170TIP3   OH228000   5.809   5.134  16.771  0.0316 -0.1359  0.2334
 2170TIP3    H128001   5.785   5.213  16.723 -0.4822 -1.0027 -0.9583
 2170TIP3    H228002   5.728   5.105  16.813  0.3855  0.3812  1.2752
 2171TIP3   OH228003   3.049   3.758  16.609 -0.7094  0.3275 -0.3335
 2171TIP3    H128004   3.067   3.847  16.576 -0.3310  0.1830 -0.5150
 2171TIP3    H228005   3.025   3.708  16.531 -2.1315  0.5709 -0.0665
 2172TIP3   OH228006   2.264   3.749  12.009  0.0400 -0.3165  0.3054
 2172TIP3    H128007   2.185   3.706  11.976 -0.6393  0.8635  0.3295
 2172TIP3    H228008   2.336   3.704  11.967 -0.7976  1.2064 -2.9309
 2173TIP3   OH228009   1.642   1.231  16.678  0.7416  0.1583 -0.7082
 2173TIP3    H128010   1.724   1.182  16.681  0.4750 -0.1814  2.6300
 2173TIP3    H228011   1.669   1.323  16.677  1.2079  0.0477  0.4125
 2174TIP3   OH228012   4.621   5.891   2.843  0.5460 -0.0359 -0.6669
 2174TIP3    H128013   4.588   5.969   2.889 -0.6322 -0.6422 -0.4579
 2174TIP3    H228014   4.639   5.921   2.754 -0.7791  0.2748 -0.8421
 2175TIP3   OH228015   4.418   1.899  12.478  0.5586  0.1773 -0.4692
 2175TIP3    H128016   4.488   1.859  12.427 -0.0994  2.0019 -2.9394
 2175TIP3    H228017   4.345   1.907  12.416 -0.5797  1.7149  1.0118
 2176TIP3   OH228018   3.474   5.953   5.652 -0.3288  0.4223 -0.1433
 2176TIP3    H128019   3.530   6.001   5.591 -0.1931  0.2478 -0.1571
 2176TIP3    H228020   3.478   5.862   5.621 -1.0375  0.4906 -0.4655
 2177TIP3   OH228021   4.565   6.316   0.992 -0.0641 -0.3265 -0.1696
 2177TIP3    H128022   4.500   6.293   0.925  0.1250  2.7329 -1.5072
 2177TIP3    H228023   4.628   6.371   0.945  2.8160 -2.2133  1.4068
 2178TIP3   OH228024   6.206   4.880  15.512 -0.1180 -0.2295 -0.2554
 2178TIP3    H128025   6.250   4.850  15.592  0.8664 -0.8663 -1.0236
 2178TIP3    H228026   6.173   4.967  15.534 -0.5444 -0.7214  1.0964
 2179TIP3   OH228027   5.335   4.491   3.339  0.1003  0.7871  0.3287
 2179TIP3    H128028   5.362   4.490   3.247 -0.1205 -0.6435  0.2778
 2179TIP3    H228029   5.314   4.400   3.359  1.2232  0.8882  2.1115
 2180TIP3   OH228030   4.951   2.324   0.660 -0.4645  0.3147 -0.4653
 2180TIP3    H128031   4.977   2.240   0.699  0.2044  1.9966  2.8976
 2180TIP3    H228032   5.028   2.380   0.670 -0.9555  1.4095 -2.5232
 2181TIP3   OH228033   1.791   5.511   1.280 -0.0389 -0.0848  0.1284
 2181TIP3    H128034   1.875   5.556   1.286 -0.0558  0.1296 -0.9804
 2181TIP3    H228035   1.732   5.562   1.334  0.3914  0.1480  0.3775
 2182TIP3   OH228036   0.984   3.577   4.818 -0.0258  0.0791 -0.2143
 2182TIP3    H128037   0.899   3.567   4.860  0.4693 -1.1250  0.5237
 2182TIP3    H228038   1.044   3.528   4.873  1.2050  1.1360 -0.5784
 2183TIP3   OH228039   1.241   1.129   4.906  0.1754  0.0270 -0.1027
 2183TIP3    H128040   1.285   1.078   4.838 -1.7426 -1.3380 -0.3810
 2183TIP3    H228041   1.218   1.211   4.863  0.2208 -0.2726 -0.7096
 2184TIP3   OH228042   6.775   3.677  14.681 -0.0266  0.1489 -0.0792
 2184TIP3    H128043   6.836   3.719  14.621  0.3978 -1.6237 -0.9270
 2184TIP3    H228044   6.699   3.656  14.627 -1.2374  1.9490  0.8749
 2185TIP3   OH228045   5.438   2.377   4.587  0.0354 -0.0012 -0.2380
 2185TIP3    H128046   5.518   2.354   4.541  0.7260 -0.3889  1.1519
 2185TIP3    H228047   5.432   2.472   4.580  0.6146  0.0263 -0.3339
 2186TIP3   OH228048   1.369   0.872  12.620  0.6048  0.0680  0.1326
 2186TIP3    H128049   1.411   0.946  12.577  0.1510 -0.4079 -1.1603
 2186TIP3    H228050   1.288   0.859  12.572  0.5137 -1.0532  0.5648
 2187TIP3   OH228051   0.841   1.429  15.263  0.2533  0.1008 -0.4564
 2187TIP3    H128052   0.786   1.479  15.203  2.4032  0.9082 -1.8061
 2187TIP3    H228053   0.881   1.496  15.320  1.3009 -0.2892 -0.7271
 2188TIP3   OH228054   2.995   6.188   0.665 -0.1281 -0.0140  0.2769
 2188TIP3    H128055   3.007   6.097   0.637 -1.4855  0.1901 -1.0342
 2188TIP3    H228056   3.029   6.240   0.592 -1.5034  0.5298  0.0165
 2189TIP3   OH228057   4.509   6.472   4.228  0.0158  0.1538  0.3655
 2189TIP3    H128058   4.455   6.393   4.219  2.8706 -1.6259 -1.9574
 2189TIP3    H228059   4.582   6.445   4.283  0.5450  1.4614  0.3168
 2190TIP3   OH228060   4.322   4.033   4.461 -0.2159 -0.3161 -0.0416
 2190TIP3    H128061   4.386   4.036   4.390 -0.1533  1.6394  0.0753
 2190TIP3    H228062   4.294   3.941   4.464  1.1740 -0.8098 -1.3329
 2191TIP3   OH228063   0.384   3.601  13.363  0.4070 -0.3044  0.1610
 2191TIP3    H128064   0.394   3.548  13.284  0.9194  2.0423 -1.4049
 2191TIP3    H228065   0.456   3.574  13.420  1.9554  0.1805 -1.5042
 2192TIP3   OH228066   4.348   5.407  16.460  0.1975 -0.2102 -0.0048
 2192TIP3    H128067   4.424   5.437  16.411 -0.7696  2.3877  0.0082
 2192TIP3    H228068   4.279   5.471  16.440 -0.9023 -0.3861  2.8834
 2193TIP3   OH228069   3.140   1.733   3.439  0.3713  0.7797 -0.3292
 2193TIP3    H128070   3.157   1.640   3.421  1.4607  1.0881 -0.8840
 2193TIP3    H228071   3.045   1.742   3.425  0.4326 -0.0137 -1.3337
 2194TIP3   OH228072   4.555   1.074   0.140  0.2197  0.1300 -0.2564
 2194TIP3    H128073   4.640   1.035   0.160 -0.0872 -1.4221 -1.8659
 2194TIP3    H228074   4.544   1.142   0.206  2.8953  0.6326 -0.2768
 2195TIP3   OH228075   5.266   3.009   3.839 -0.2736 -0.3138  0.4780
 2195TIP3    H128076   5.272   2.915   3.824 -1.0083 -0.3001  0.0244
 2195TIP3    H228077   5.298   3.022   3.928  1.0109 -0.8335  0.0919
 2196TIP3   OH228078   3.605   5.456  14.719 -0.0803  0.4022  0.0134
 2196TIP3    H128079   3.637   5.511  14.791  2.3862  0.2019 -0.8566
 2196TIP3    H228080   3.592   5.517  14.647  0.3990  0.1901 -0.2573
 2197TIP3   OH228081   2.058   3.215   6.502  0.1125  0.3327 -0.3474
 2197TIP3    H128082   2.011   3.282   6.552 -1.4975 -0.5014 -0.7254
 2197TIP3    H228083   2.117   3.175   6.566  1.1470  2.1318 -0.1263
 2198TIP3   OH228084   0.465   0.878  12.503 -0.5406 -0.5217  0.0407
 2198TIP3    H128085   0.502   0.936  12.569  0.7511 -0.7833 -0.4557
 2198TIP3    H228086   0.460   0.931  12.424 -0.4340 -0.7399 -0.1137
 2199TIP3   OH228087   6.129   0.432   3.261  0.0404 -0.0733  0.3491
 2199TIP3    H128088   6.094   0.373   3.194  0.0456 -1.3396  1.4514
 2199TIP3    H228089   6.097   0.397   3.344 -1.9788  2.8803  0.9006
 2200TIP3   OH228090   6.151   4.236   3.360  0.2233  0.0511  0.1555
 2200TIP3    H128091   6.095   4.309   3.387 -2.5680 -1.2094 -2.0321
 2200TIP3    H228092   6.235   4.277   3.339 -0.8173  2.4176  0.4859
 2201TIP3   OH228093   3.661   5.108  17.135  0.2638  0.2501 -0.6503
 2201TIP3    H128094   3.613   5.043  17.187  0.1154  0.3011 -0.7236
 2201TIP3    H228095   3.658   5.188  17.187 -0.2300  0.4097 -0.9177
 2202TIP3   OH228096   3.858   4.572  12.411  0.8729 -0.2577 -0.3492
 2202TIP3    H128097   3.945   4.588  12.375  0.6178  0.6676 -0.5709
 2202TIP3    H228098   3.849   4.636  12.482 -0.2586  0.7646 -1.3945
 2203TIP3   OH228099   5.732   1.961   0.263 -0.3241 -0.0444 -0.2011
 2203TIP3    H128100   5.741   1.879   0.214  0.6068 -1.7338  2.7336
 2203TIP3    H228101   5.638   1.978   0.263 -0.7166 -2.0865  0.7115
 2204TIP3   OH228102   4.833   2.292  11.954 -0.6631 -0.1405  0.0357
 2204TIP3    H128103   4.832   2.374  11.905  0.5219 -0.1467 -0.0077
 2204TIP3    H228104   4.743   2.282  11.985 -1.2014  0.3512 -1.3148
 2205TIP3   OH228105   3.452   0.527  15.471  0.0071 -0.6428 -0.0339
 2205TIP3    H128106   3.522   0.469  15.502  0.8167  0.8330  0.9792
 2205TIP3    H228107   3.388   0.528  15.543  0.8431  1.0774  0.7162
 2206TIP3   OH228108   5.063   3.146  13.378  0.0535  0.2093  0.2598
 2206TIP3    H128109   5.148   3.157  13.335 -0.2736  0.4624 -0.3272
 2206TIP3    H228110   5.071   3.196  13.459  0.1335  1.0282 -0.2531
 2207TIP3   OH228111   6.787   5.886   1.033 -0.5005  0.0350  0.4045
 2207TIP3    H128112   6.743   5.949   0.975  0.6013 -0.3206 -0.8521
 2207TIP3    H228113   6.764   5.913   1.121 -1.2085  1.3361 -0.1746
 2208TIP3   OH228114   2.452   1.918  16.498  0.1154  0.2517  0.7071
 2208TIP3    H128115   2.491   1.969  16.426 -0.5447  1.6549  1.3185
 2208TIP3    H228116   2.390   1.979  16.539 -0.4582 -0.9585  1.6632
 2209TIP3   OH228117   1.856   6.093  11.471 -0.2196 -0.4363  0.2680
 2209TIP3    H128118   1.831   6.003  11.490 -0.2097 -0.2326  1.2851
 2209TIP3    H228119   1.947   6.100  11.502  0.2710 -0.4794 -1.1362
 2210TIP3   OH228120   1.112   3.194   1.531  0.4981 -0.0383 -0.9783
 2210TIP3    H128121   1.059   3.115   1.533 -0.0268  0.3111  1.8799
 2210TIP3    H228122   1.200   3.163   1.510  0.3007 -1.4168  0.1194
 2211TIP3   OH228123   6.480   0.746  11.601  0.6326  0.0250 -0.6573
 2211TIP3    H128124   6.497   0.795  11.521  0.9302 -1.3144 -1.4183
 2211TIP3    H228125   6.536   0.787  11.667  0.6608  0.8869 -1.2106
 2212TIP3   OH228126   4.959   3.290   0.692  0.4306  0.8367  0.0481
 2212TIP3    H128127   4.960   3.354   0.763 -2.2320  1.3427 -0.3036
 2212TIP3    H228128   5.023   3.323   0.629  0.9460  1.7601  1.0346
 2213TIP3   OH228129   1.205   6.044   2.589 -0.1283  0.4112 -0.2897
 2213TIP3    H128130   1.290   6.011   2.560 -2.1010 -3.0753 -2.5226
 2213TIP3    H228131   1.182   6.110   2.524 -0.1915 -0.3719 -1.0679
 2214TIP3   OH228132   5.208   3.359   1.366  0.9857  0.2556 -1.1863
 2214TIP3    H128133   5.222   3.402   1.282  0.4166  0.8150 -1.0001
 2214TIP3    H228134   5.112   3.360   1.377  1.1573  1.8289  0.3232
 2215TIP3   OH228135   5.704   5.741   1.945 -0.1238  0.4439 -0.1180
 2215TIP3    H128136   5.753   5.685   1.885 -0.8239  0.7053 -0.9603
 2215TIP3    H228137   5.752   5.824   1.945  0.9924 -0.2004  1.2423
 2216TIP3   OH228138   5.997   5.790  13.975  0.4574  0.2137  0.5601
 2216TIP3    H128139   6.044   5.838  14.043  0.8626 -0.4043  0.7200
 2216TIP3    H228140   6.066   5.751  13.921  0.1338  0.0954  0.2230
 2217TIP3   OH228141   3.881   5.271   0.235 -0.4552 -0.1312  0.0593
 2217TIP3    H128142   3.962   5.253   0.188 -0.9671  1.1388 -1.3433
 2217TIP3    H228143   3.899   5.243   0.325  1.9650  1.2800  0.0688
 2218TIP3   OH228144   4.439   1.827   5.770 -0.0385  0.0006  0.8621
 2218TIP3    H128145   4.490   1.795   5.845  0.4144  0.8426  0.9169
 2218TIP3    H228146   4.486   1.793   5.694 -1.1562 -1.8579  0.9521
 2219TIP3   OH228147   3.508   2.321  14.345  0.1686  0.4522 -0.3415
 2219TIP3    H128148   3.584   2.294  14.294  0.5413  0.2283  0.3143
 2219TIP3    H228149   3.544   2.343  14.431 -0.7752 -1.7094  0.6432
 2220TIP3   OH228150   1.895   3.131   0.380  0.1879  0.5679  0.2288
 2220TIP3    H128151   1.922   3.222   0.382  1.4778  0.2329 -0.7677
 2220TIP3    H228152   1.877   3.108   0.471  0.7386  1.5527  0.5866
 2221TIP3   OH228153   2.640   2.326   3.658  0.4689  0.1562 -0.2188
 2221TIP3    H128154   2.648   2.375   3.577  1.7867 -0.6345 -0.5922
 2221TIP3    H228155   2.730   2.300   3.680  0.4841  2.5278  2.8795
 2222TIP3   OH228156   1.372   3.227   4.729  0.5418  0.1444 -0.2030
 2222TIP3    H128157   1.453   3.191   4.765 -0.3161 -0.9099  0.7239
 2222TIP3    H228158   1.388   3.322   4.726  2.2476 -0.1514 -1.2058
 2223TIP3   OH228159   1.012   2.118   3.500  0.4226 -0.1976  0.0060
 2223TIP3    H128160   1.070   2.193   3.485 -1.5718  1.5078  0.6034
 2223TIP3    H228161   1.008   2.073   3.415  0.6654  1.0663 -0.6795
 2224TIP3   OH228162   1.060   1.185  12.255 -0.1308  0.1709  0.3139
 2224TIP3    H128163   1.065   1.273  12.217 -2.6713 -0.1491 -0.8951
 2224TIP3    H228164   1.008   1.135  12.192 -0.7146 -1.5483  2.1194
 2225TIP3   OH228165   1.133   2.801   1.399 -0.6590 -0.3725  0.0101
 2225TIP3    H128166   1.078   2.847   1.463 -0.9039  1.5472 -1.5235
 2225TIP3    H228167   1.088   2.812   1.316 -0.3194 -2.8031 -0.5391
 2226TIP3   OH228168   4.682   4.997   0.165 -0.4972  0.3932  0.0263
 2226TIP3    H128169   4.700   5.052   0.089  0.1874  1.3650  0.8878
 2226TIP3    H228170   4.586   4.994   0.170 -0.5362  1.5755  0.0313
 2227TIP3   OH228171   1.902   5.440  11.733 -0.5892 -0.1172  0.1263
 2227TIP3    H128172   1.834   5.506  11.718 -1.0356 -0.0822  2.1244
 2227TIP3    H228173   1.951   5.436  11.651 -1.6173  1.4711 -0.5810
 2228TIP3   OH228174   3.492   5.375  16.824 -0.2999 -0.8757 -0.2502
 2228TIP3    H128175   3.475   5.378  16.730  1.8142 -1.3265 -0.6575
 2228TIP3    H228176   3.505   5.282  16.843 -2.6374 -1.0026  0.8579
 2229TIP3   OH228177   5.073   0.748   2.412  0.3112 -0.2294 -0.2477
 2229TIP3    H128178   5.086   0.683   2.482  1.6284  1.3775  1.0399
 2229TIP3    H228179   5.157   0.751   2.366  0.0382  0.0807 -0.7290
 2230TIP3   OH228180   4.241   0.265   1.647  0.1121  0.0591  1.0074
 2230TIP3    H128181   4.337   0.261   1.643  0.1269  1.2910 -0.5919
 2230TIP3    H228182   4.222   0.341   1.703  0.0444 -1.0439  2.5086
 2231TIP3   OH228183   4.893   6.364  13.553  0.1279 -0.3235  0.5520
 2231TIP3    H128184   4.952   6.290  13.567  1.5071  1.0091  2.0431
 2231TIP3    H228185   4.917   6.426  13.622  0.2522  2.2906 -1.7727
 2232TIP3   OH228186   1.186   4.605   0.980 -0.3524 -0.1071  0.1147
 2232TIP3    H128187   1.101   4.562   0.990  0.6533 -1.7869  1.9341
 2232TIP3    H228188   1.199   4.651   1.063 -0.3028  1.6844 -0.8731
 2233TIP3   OH228189   0.566   5.809  15.044  0.3094  0.3071 -0.9930
 2233TIP3    H128190   0.500   5.841  14.983 -0.0963  0.8158 -0.2895
 2233TIP3    H228191   0.649   5.817  14.996  0.1301  1.7555 -1.0832
 2234TIP3   OH228192   4.348   2.436   3.243 -0.2397 -0.2338 -0.2182
 2234TIP3    H128193   4.353   2.496   3.169  0.4157 -0.4591 -0.3574
 2234TIP3    H228194   4.380   2.353   3.209 -0.6598 -0.5366  0.1144
 2235TIP3   OH228195   5.247   5.671  11.719 -0.1779 -0.4655  0.7194
 2235TIP3    H128196   5.168   5.671  11.773  0.3659 -0.6458  1.5309
 2235TIP3    H228197   5.306   5.609  11.763  0.2378 -0.6851 -0.1365
 2236TIP3   OH228198   5.437   6.132   0.019  0.1728 -0.3227 -0.1467
 2236TIP3    H128199   5.468   6.174  -0.061 -0.9356 -0.0168 -0.4285
 2236TIP3    H228200   5.348   6.104  -0.001 -0.1579 -0.1492  1.0107
 2237TIP3   OH228201   2.862   0.210  11.000  0.6207 -0.2229 -0.0321
 2237TIP3    H128202   2.902   0.279  11.052 -1.1591  1.2601 -0.5921
 2237TIP3    H228203   2.843   0.140  11.063 -1.1733  1.4059  1.2704
 2238TIP3   OH228204   5.399   4.267   1.540  0.1151  0.2885  0.5157
 2238TIP3    H128205   5.318   4.240   1.583 -0.1579  0.2392 -0.0293
 2238TIP3    H228206   5.385   4.248   1.447  0.9731 -0.2629  0.4957
 2239TIP3   OH228207   6.212   6.433   1.171  0.1232 -0.1408 -0.3251
 2239TIP3    H128208   6.156   6.392   1.237 -0.1331  0.4129 -0.1992
 2239TIP3    H228209   6.291   6.379   1.171 -0.2550 -0.7037 -0.2423
 2240TIP3   OH228210   1.269   0.146  14.734 -0.2345 -0.6321  0.3799
 2240TIP3    H128211   1.360   0.150  14.704  0.0636 -2.7833  0.9251
 2240TIP3    H228212   1.274   0.167  14.828 -0.3809 -0.0424  0.2532
 2241TIP3   OH228213   3.806   2.766  13.059 -0.0728 -0.5858  0.0641
 2241TIP3    H128214   3.877   2.757  12.997 -0.1135 -0.0539 -0.0593
 2241TIP3    H228215   3.727   2.748  13.008 -0.2701  1.8366 -0.5190
 2242TIP3   OH228216   0.692   5.013  14.751 -0.6211  0.1487  0.3356
 2242TIP3    H128217   0.728   4.974  14.830  1.0812  0.2152 -0.3809
 2242TIP3    H228218   0.751   4.985  14.681 -2.1076  0.0758 -0.9172
 2243TIP3   OH228219   4.455   5.471  11.205  0.4457  0.2925  1.2147
 2243TIP3    H128220   4.475   5.564  11.198 -1.6853  0.7127  0.3279
 2243TIP3    H228221   4.446   5.441  11.114  0.3398 -0.6072  1.5141
 2244TIP3   OH228222   4.070   5.713   5.221  0.2883  0.0587  0.2068
 2244TIP3    H128223   4.013   5.751   5.287  2.8349  1.0960  1.8804
 2244TIP3    H228224   4.030   5.738   5.138 -0.8878  1.9927  1.3234
 2245TIP3   OH228225   5.742   4.224   3.654  0.6560  0.5533 -0.0742
 2245TIP3    H128226   5.815   4.174   3.617 -1.0839 -1.1069 -1.3625
 2245TIP3    H228227   5.675   4.158   3.673 -1.0749  2.1945 -0.2840
 2246TIP3   OH228228   0.219   1.491   6.015  0.3719  0.2003  0.9830
 2246TIP3    H128229   0.304   1.490   6.058  0.0710  2.1131  1.6755
 2246TIP3    H228230   0.172   1.417   6.053  1.7594 -0.9901  0.4497
 2247TIP3   OH228231   1.136   0.835  17.170 -0.3981  0.2766  0.3508
 2247TIP3    H128232   1.171   0.754  17.133  2.0991  1.8023 -0.7293
 2247TIP3    H228233   1.186   0.847  17.251 -0.7327  0.7671  0.4853
 2248TIP3   OH228234   5.973   3.733   0.499  0.3725 -0.0430 -0.3403
 2248TIP3    H128235   5.981   3.640   0.522 -0.8687 -0.3912 -1.2663
 2248TIP3    H228236   5.987   3.779   0.582 -0.2657 -1.1045  0.3696
 2249TIP3   OH228237   5.670   3.083  17.169 -0.5476 -0.2505 -0.0882
 2249TIP3    H128238   5.670   3.109  17.077 -1.1946 -0.5953 -0.1878
 2249TIP3    H228239   5.577   3.082  17.194 -0.3064  1.3942  1.0060
 2250TIP3   OH228240   0.767   6.256   3.451 -0.6874  0.4215 -0.2007
 2250TIP3    H128241   0.854   6.232   3.420 -1.1789  1.0739 -2.1990
 2250TIP3    H228242   0.779   6.339   3.495 -0.7027  2.0199 -3.0657
 2251TIP3   OH228243   3.140   6.051  13.304 -0.0399 -0.3895  0.2921
 2251TIP3    H128244   3.194   6.071  13.227 -1.3422  1.4961 -0.1708
 2251TIP3    H228245   3.078   5.985  13.273 -0.4038  0.1877 -0.2316
 2252TIP3   OH228246   6.183   5.763   0.953  0.4322  0.6924 -0.0835
 2252TIP3    H128247   6.214   5.837   1.005 -3.2965  2.4926 -0.2582
 2252TIP3    H228248   6.138   5.706   1.016 -0.5147  0.8016 -0.6511
 2253TIP3   OH228249   4.719   6.696   1.403 -0.5990  0.0478 -0.7998
 2253TIP3    H128250   4.669   6.671   1.481 -0.5332  1.9206 -0.1343
 2253TIP3    H228251   4.783   6.625   1.392 -0.4197 -0.0987  1.0294
 2254TIP3   OH228252   2.895   1.605  12.502  0.0840 -0.5148  0.3091
 2254TIP3    H128253   2.927   1.516  12.513 -0.3405 -0.6571  0.4200
 2254TIP3    H228254   2.974   1.659  12.495  0.3463 -0.9930 -0.5277
 2255TIP3   OH228255   1.890   1.754  12.068  0.2714  0.2456 -0.3001
 2255TIP3    H128256   1.826   1.719  12.007 -0.5249  1.3048 -0.0953
 2255TIP3    H228257   1.874   1.849  12.067 -0.6203  0.1714  2.4971
 2256TIP3   OH228258   1.427   3.619  16.020  0.1619 -0.2869 -0.2573
 2256TIP3    H128259   1.413   3.690  15.957  1.1179  0.3909  0.2857
 2256TIP3    H228260   1.425   3.540  15.967 -2.0863  0.0202 -0.7274
 2257TIP3   OH228261   4.720   1.683  12.500 -0.1288  0.3067  0.2017
 2257TIP3    H128262   4.800   1.631  12.495 -0.0919  0.6024 -2.7472
 2257TIP3    H228263   4.728   1.732  12.582  3.0464  0.8864 -0.3983
 2258TIP3   OH228264   1.249   0.348   1.787  0.0654  0.0203 -0.2866
 2258TIP3    H128265   1.195   0.415   1.829  0.7520  0.7013 -0.4901
 2258TIP3    H228266   1.219   0.347   1.696 -0.2714 -0.2837 -0.1730
 2259TIP3   OH228267   2.835   3.592   5.421  0.5516 -0.0763  0.2698
 2259TIP3    H128268   2.919   3.591   5.375 -0.2043 -0.0130 -1.1544
 2259TIP3    H228269   2.771   3.568   5.354 -0.9222  2.7345  0.5973
 2260TIP3   OH228270   4.308   6.397  17.044 -0.0698  0.7055  0.1552
 2260TIP3    H128271   4.224   6.368  17.009 -0.6484  0.7299  1.4742
 2260TIP3    H228272   4.315   6.353  17.129  0.1238  2.5818  1.1260
 2261TIP3   OH228273   0.907   2.725   3.971 -0.3295 -0.3595  0.0349
 2261TIP3    H128274   0.992   2.702   3.932 -1.1220 -0.8665 -1.4072
 2261TIP3    H228275   0.906   2.821   3.972 -0.0693 -0.3468 -0.6768
 2262TIP3   OH228276   2.826   6.794   6.046  0.4146  0.7372 -0.2776
 2262TIP3    H128277   2.827   6.761   6.136 -0.8153 -0.0544 -0.5395
 2262TIP3    H228278   2.741   6.836   6.037  1.1082  2.1019 -0.6337
 2263TIP3   OH228279   4.284   3.330  12.260  0.8672  0.0974  0.2438
 2263TIP3    H128280   4.345   3.304  12.329  0.9139 -1.2875 -0.2930
 2263TIP3    H228281   4.335   3.386  12.202  1.5894 -0.8860 -0.0884
 2264TIP3   OH228282   1.517   5.223  12.431  0.3166 -0.1353 -0.4427
 2264TIP3    H128283   1.569   5.143  12.432  0.2037 -0.2079  1.2494
 2264TIP3    H228284   1.565   5.282  12.372 -0.3916 -1.9311 -2.9227
 2265TIP3   OH228285   0.288   2.455   4.203 -0.3840 -0.1137 -0.6170
 2265TIP3    H128286   0.355   2.468   4.136  0.8624 -0.6377  0.5114
 2265TIP3    H228287   0.337   2.435   4.283 -1.8615  0.0806  0.3625
 2266TIP3   OH228288   2.114   0.861  17.173  0.0422  0.0194 -1.0192
 2266TIP3    H128289   2.033   0.863  17.224 -0.7291  0.9897 -2.2657
 2266TIP3    H228290   2.088   0.825  17.088  0.9923  0.0000 -1.3069
 2267TIP3   OH228291   6.781   3.258  13.632  0.4796  0.0330 -0.0742
 2267TIP3    H128292   6.790   3.165  13.652  0.5732 -0.2153 -1.2344
 2267TIP3    H228293   6.868   3.295  13.648  0.6443 -0.2288 -0.3579
 2268TIP3   OH228294   1.429   5.502  15.414 -0.5756 -0.0864 -0.2819
 2268TIP3    H128295   1.360   5.453  15.369 -0.4314 -0.8147  0.2766
 2268TIP3    H228296   1.453   5.446  15.488  1.4774 -0.4146 -1.1648
 2269TIP3   OH228297   2.549   1.696  13.026  0.0237 -0.3794 -0.1796
 2269TIP3    H128298   2.597   1.614  13.039 -0.6223 -0.1431  4.2683
 2269TIP3    H228299   2.609   1.763  13.057 -0.9004  0.5047 -0.2846
 2270TIP3   OH228300   0.276   2.447  14.761 -0.0381  0.0247 -0.6522
 2270TIP3    H128301   0.328   2.526  14.776 -2.4078  1.7418 -1.1825
 2270TIP3    H228302   0.265   2.442  14.666 -2.7363  0.9997 -0.4320
 2271TIP3   OH228303   0.196   6.716   1.362  0.5198  0.5537 -0.2419
 2271TIP3    H128304   0.244   6.674   1.433  0.1695 -2.4504 -1.7244
 2271TIP3    H228305   0.104   6.714   1.389  0.6318  1.6091  0.2628
 2272TIP3   OH228306   3.859   2.944  15.280  0.1307 -0.1636  0.2653
 2272TIP3    H128307   3.784   2.981  15.326 -1.0120 -1.4253 -0.5403
 2272TIP3    H228308   3.857   2.986  15.193 -1.2456 -2.1766 -0.6950
 2273TIP3   OH228309   4.788   3.103   1.262 -0.1619 -0.0549  0.2174
 2273TIP3    H128310   4.868   3.051   1.255 -0.3500 -0.2501 -0.5035
 2273TIP3    H228311   4.788   3.159   1.184 -1.0584 -0.5244 -0.1247
 2274TIP3   OH228312   5.356   4.859  15.785 -0.0538  0.1760  0.4107
 2274TIP3    H128313   5.313   4.905  15.857  0.4484  0.8471  0.2897
 2274TIP3    H228314   5.447   4.851  15.813  0.1507  0.4686 -0.1631
 2275TIP3   OH228315   4.677   0.380   3.817  0.7153  0.2990  0.0568
 2275TIP3    H128316   4.613   0.450   3.798  0.8316  0.7146  1.1219
 2275TIP3    H228317   4.755   0.427   3.846  1.2606 -0.2382 -0.5548
 2276TIP3   OH228318   5.831   1.190  17.096 -0.2177 -0.4395 -0.2596
 2276TIP3    H128319   5.773   1.118  17.119 -0.4700  0.3488  1.6682
 2276TIP3    H228320   5.783   1.240  17.030  0.5669 -2.8217 -2.7126
 2277TIP3   OH228321   3.738   4.416  15.816  0.2735  0.8928  0.2662
 2277TIP3    H128322   3.829   4.411  15.789 -0.3401 -1.9250 -1.5539
 2277TIP3    H228323   3.740   4.411  15.912  1.9250 -2.5311  0.1298
 2278TIP3   OH228324   0.751   2.772   2.277  0.0140 -0.3170 -0.0067
 2278TIP3    H128325   0.830   2.813   2.311 -1.3067 -0.5200  3.5856
 2278TIP3    H228326   0.775   2.681   2.263  0.1292 -0.6939  2.3841
 2279TIP3   OH228327   5.370   4.971  14.510  0.2087 -0.0370  0.1332
 2279TIP3    H128328   5.313   4.896  14.529  0.1766 -0.3622 -1.1971
 2279TIP3    H228329   5.322   5.047  14.544 -0.5442 -0.4281 -0.0480
 2280TIP3   OH228330   2.192   2.113  14.838  0.4093 -0.8416 -0.3812
 2280TIP3    H128331   2.287   2.118  14.825  0.5245 -0.1266  0.7065
 2280TIP3    H228332   2.178   2.144  14.927 -0.7462 -2.0269 -0.1298
 2281TIP3   OH228333   5.345   5.515   5.427 -0.0638  0.5401  0.5378
 2281TIP3    H128334   5.321   5.503   5.336 -0.4210  1.1750  0.5453
 2281TIP3    H228335   5.283   5.462   5.476  0.3840 -0.1257  0.3901
 2282TIP3   OH228336   2.513   3.002   2.210 -0.5419 -0.1003  0.1903
 2282TIP3    H128337   2.493   2.947   2.134 -1.5862 -2.0268  1.7915
 2282TIP3    H228338   2.441   2.985   2.271 -1.3301  3.7188  0.4355
 2283TIP3   OH228339   0.045   1.349  14.410  0.1207  0.2203 -0.4193
 2283TIP3    H128340   0.005   1.264  14.396 -0.0949  0.1757  0.4402
 2283TIP3    H228341  -0.017   1.412  14.373  0.4302 -0.0188 -1.3381
 2284TIP3   OH228342   3.066   3.864  11.767 -0.1101  0.2429  0.1060
 2284TIP3    H128343   2.985   3.894  11.726 -0.1810 -0.4043 -0.2266
 2284TIP3    H228344   3.098   3.795  11.709  0.1071 -0.2537  0.8069
 2285TIP3   OH228345   3.909   5.682   2.530  0.7736 -0.5155 -0.0872
 2285TIP3    H128346   3.997   5.661   2.559  0.9349  0.0736 -0.1473
 2285TIP3    H228347   3.856   5.681   2.610  0.6353 -1.8604 -0.1825
 2286TIP3   OH228348   2.669   3.091   1.281 -0.0960 -0.4828  0.3237
 2286TIP3    H128349   2.642   3.111   1.370 -0.0919  0.1447  0.1868
 2286TIP3    H228350   2.598   3.124   1.226  0.8903  1.1319 -0.0395
 2287TIP3   OH228351   1.319   4.200   3.566 -0.1278  0.0510 -0.0603
 2287TIP3    H128352   1.230   4.228   3.587 -0.3703 -1.3375  0.8776
 2287TIP3    H228353   1.358   4.274   3.520 -1.3765  1.1286  0.5950
 2288TIP3   OH228354   3.741   4.226   4.752  0.3325  0.4080 -0.3284
 2288TIP3    H128355   3.833   4.253   4.747  0.3136  0.6233  0.3808
 2288TIP3    H228356   3.698   4.298   4.799 -0.0891  0.0479 -0.1663
 2289TIP3   OH228357   4.593   3.464  12.581 -0.1507 -0.3410  0.2468
 2289TIP3    H128358   4.580   3.510  12.498 -0.8533 -2.2274 -0.7191
 2289TIP3    H228359   4.585   3.371  12.559  0.2730 -0.9055  2.3214
 2290TIP3   OH228360   2.953   2.052   0.491 -0.3023 -0.1496  0.2186
 2290TIP3    H128361   2.952   1.959   0.471 -0.4828 -0.5344  1.9477
 2290TIP3    H228362   2.878   2.088   0.444 -2.1898 -1.4640  2.1696
 2291TIP3   OH228363   4.907   0.855  13.567 -0.0470  0.7478 -0.1609
 2291TIP3    H128364   4.897   0.862  13.662 -1.9950  1.3966 -0.3801
 2291TIP3    H228365   4.906   0.760  13.550 -1.5590  0.6613  0.3153
 2292TIP3   OH228366   6.030   4.557  16.925  0.2036  0.2619  0.4200
 2292TIP3    H128367   5.965   4.627  16.933 -0.4798 -0.3485  0.2407
 2292TIP3    H228368   6.008   4.495  16.995  1.6044  0.8571  1.4195
 2293TIP3   OH228369   1.222   1.590   4.372  0.0824  0.3955  0.7949
 2293TIP3    H128370   1.179   1.645   4.307  1.7777  0.7192 -0.0744
 2293TIP3    H228371   1.299   1.641   4.399  0.3487 -0.5023  1.7617
 2294TIP3   OH228372   0.061   0.912  16.282 -0.1700 -0.4438  0.1928
 2294TIP3    H128373   0.113   0.906  16.362 -1.1007 -0.5203  0.7959
 2294TIP3    H228374   0.108   0.974  16.227  0.6677 -0.6652  0.6526
 2295TIP3   OH228375   5.444   6.339   3.917 -0.1272 -0.2765 -0.0442
 2295TIP3    H128376   5.399   6.357   3.999 -0.4315 -0.2432 -0.2167
 2295TIP3    H228377   5.432   6.418   3.865  1.0240  0.1296  0.3046
 2296TIP3   OH228378   5.745   0.831  12.140  0.3905  0.0321 -0.3981
 2296TIP3    H128379   5.804   0.899  12.173 -0.3164  0.4696 -0.0300
 2296TIP3    H228380   5.658   0.860  12.166  0.2028 -1.7390  1.0290
 2297TIP3   OH228381   3.034   1.586  16.788 -0.0480 -0.0759 -0.1541
 2297TIP3    H128382   3.062   1.669  16.751  1.6180 -1.3580 -1.9118
 2297TIP3    H228383   2.943   1.576  16.758 -0.7879  1.7825  1.3679
 2298TIP3   OH228384   2.005   2.629  11.849 -0.0821 -0.0226  0.0861
 2298TIP3    H128385   1.986   2.707  11.797  0.0128 -0.2445 -0.2859
 2298TIP3    H228386   1.950   2.638  11.927 -1.6654 -0.5965 -0.9315
 2299TIP3   OH228387   5.791   4.974  13.785  0.1118  0.0442 -0.2447
 2299TIP3    H128388   5.882   5.004  13.788  0.2789 -0.5209  0.2435
 2299TIP3    H228389   5.780   4.940  13.696  0.7911 -1.1844  0.1295
 2300TIP3   OH228390   3.876   6.450   2.841 -0.5984  0.2934  0.1831
 2300TIP3    H128391   3.902   6.541   2.855 -0.1902  0.2000  0.0308
 2300TIP3    H228392   3.899   6.432   2.750  0.4879 -0.3419  0.5664
 2301TIP3   OH228393   0.107   0.064  13.438  0.2981 -0.2028  0.2737
 2301TIP3    H128394   0.022   0.106  13.452 -0.3081 -1.6029  0.9218
 2301TIP3    H228395   0.164   0.100  13.506 -0.4501 -1.0674  1.3638
 2302TIP3   OH228396   2.406   2.395   0.718 -0.0599 -0.3431 -0.0178
 2302TIP3    H128397   2.491   2.412   0.678 -1.2237  2.4185 -1.4741
 2302TIP3    H228398   2.362   2.335   0.659  0.2218 -0.3772 -0.1903
 2303TIP3   OH228399   5.353   5.286   2.457  0.7645  0.3671 -0.6352
 2303TIP3    H128400   5.309   5.203   2.438  3.1994 -0.5176 -2.6558
 2303TIP3    H228401   5.283   5.351   2.458 -1.2777 -1.7630  1.6593
 2304TIP3   OH228402   1.032   2.059   1.818 -0.0318  0.1077 -0.3754
 2304TIP3    H128403   1.074   2.019   1.742 -0.9934 -0.9995 -0.3337
 2304TIP3    H228404   1.023   1.988   1.881  1.7652  1.2552  1.2402
 2305TIP3   OH228405   4.879   2.234  13.940  0.5700  0.0535 -0.5188
 2305TIP3    H128406   4.963   2.268  13.909 -0.2295  3.2102  0.6158
 2305TIP3    H228407   4.836   2.309  13.981 -1.6908 -2.1590  1.3036
 2306TIP3   OH228408   4.587   3.987   1.759  0.3861 -0.2773 -0.0865
 2306TIP3    H128409   4.592   3.952   1.670  0.5704 -0.0316 -0.1741
 2306TIP3    H228410   4.560   3.912   1.812 -0.3409 -0.2718 -0.4378
 2307TIP3   OH228411   2.725   4.151  11.528 -0.1621  0.5109  0.1054
 2307TIP3    H128412   2.786   4.213  11.487  0.3339 -0.8057 -1.1897
 2307TIP3    H228413   2.640   4.172  11.491  0.2060 -0.3600 -1.2882
 2308TIP3   OH228414   3.721   2.922   3.881 -0.1244 -0.1127 -0.5090
 2308TIP3    H128415   3.655   2.989   3.901 -0.0800 -0.9401  2.7173
 2308TIP3    H228416   3.674   2.856   3.830 -0.9964  0.7859 -0.8793
 2309TIP3   OH228417   0.580   0.564  13.611  0.1105  0.0090 -0.7178
 2309TIP3    H128418   0.620   0.551  13.526  1.6451 -0.7664  0.1080
 2309TIP3    H228419   0.648   0.540  13.674 -0.4048  2.2668  0.7553
 2310TIP3   OH228420   6.562   3.230   4.387  0.1139  0.2978  0.0512
 2310TIP3    H128421   6.580   3.228   4.293 -0.8776 -1.6497 -0.1290
 2310TIP3    H228422   6.470   3.253   4.394  0.3683  1.1755  0.5864
 2311TIP3   OH228423   2.782   4.538  15.117 -0.2881 -0.0048  0.3219
 2311TIP3    H128424   2.866   4.570  15.151  0.3291 -1.2571 -0.0199
 2311TIP3    H228425   2.783   4.444  15.135 -1.6592 -0.0051  0.3902
 2312TIP3   OH228426   5.671   4.222   1.333  0.3073  0.5479  0.3517
 2312TIP3    H128427   5.709   4.162   1.269  0.3556 -0.5996  1.4372
 2312TIP3    H228428   5.578   4.224   1.311 -0.2361 -2.3356  2.1728
 2313TIP3   OH228429   0.567   5.040  10.978 -0.5492  0.3522  0.1965
 2313TIP3    H128430   0.579   4.945  10.976 -1.2238  0.2717 -0.2023
 2313TIP3    H228431   0.656   5.076  10.985 -0.3383 -0.3283  1.0654
 2314TIP3   OH228432   2.886   0.950   5.466  0.1187  0.2257 -0.6247
 2314TIP3    H128433   2.832   0.904   5.530  1.9461 -1.6583 -0.3759
 2314TIP3    H228434   2.842   0.935   5.382 -0.0565 -0.7879 -0.3511
 2315TIP3   OH228435   5.571   0.014   0.574 -0.2302  0.1751 -0.0154
 2315TIP3    H128436   5.600  -0.029   0.655  0.3652  2.7568  1.1881
 2315TIP3    H228437   5.483  -0.021   0.558  0.7060 -2.3781  0.2440
 2316TIP3   OH228438   6.713   1.278  11.723  0.3379  0.2675 -0.1031
 2316TIP3    H128439   6.713   1.268  11.818  0.1669 -2.5526 -0.3762
 2316TIP3    H228440   6.770   1.208  11.691 -0.8739  0.1789 -2.1729
 2317TIP3   OH228441   5.318   0.942   2.972  0.4226 -0.3368  0.2840
 2317TIP3    H128442   5.387   0.962   2.909  0.7016 -2.1929 -0.0164
 2317TIP3    H228443   5.355   0.873   3.027 -0.7081 -0.4364  0.9371
 2318TIP3   OH228444   2.386   5.855   0.141 -0.2301 -0.2833 -0.0290
 2318TIP3    H128445   2.406   5.794   0.212  0.2572 -0.5052 -0.3552
 2318TIP3    H228446   2.465   5.908   0.132 -0.4855  0.0924 -0.0522
 2319TIP3   OH228447   2.686   2.896  16.795  0.2731  0.0377  0.2919
 2319TIP3    H128448   2.617   2.953  16.827 -0.2907 -0.0930 -0.6626
 2319TIP3    H228449   2.650   2.808  16.803  0.9301 -0.1577  1.2427
 2320TIP3   OH228450   0.791   1.188  16.008 -0.3755  0.3607 -0.0524
 2320TIP3    H128451   0.701   1.177  15.978  0.0145  0.3792 -1.2404
 2320TIP3    H228452   0.783   1.234  16.092 -1.4941 -0.1174  0.1046
 2321TIP3   OH228453   2.465   2.691  16.809 -0.5453 -0.0908 -0.1206
 2321TIP3    H128454   2.457   2.618  16.748 -0.8125 -1.1219  1.1065
 2321TIP3    H228455   2.387   2.744  16.794 -2.2368 -2.0310  1.4486
 2322TIP3   OH228456   6.591   4.084   1.446 -0.0206  0.6736  0.5765
 2322TIP3    H128457   6.612   4.099   1.538 -0.2222  0.3740  0.6729
 2322TIP3    H228458   6.583   3.989   1.438  2.2601  0.5127 -0.2505
 2323TIP3   OH228459   3.127   1.949  11.583 -0.3536  0.2133 -0.1868
 2323TIP3    H128460   3.148   1.861  11.614 -2.7463 -1.2085 -2.4329
 2323TIP3    H228461   3.154   1.949  11.491  2.9969  3.0825  0.6598
 2324TIP3   OH228462   5.238   1.444   4.444  0.6148  0.8318 -0.1418
 2324TIP3    H128463   5.192   1.438   4.360 -0.0816  0.9921  0.2232
 2324TIP3    H228464   5.326   1.414   4.426 -0.0913 -1.0536 -0.4778
 2325TIP3   OH228465   2.842   0.591   6.537 -0.4610  0.0629 -0.3254
 2325TIP3    H128466   2.811   0.666   6.587 -0.1003 -0.3274  0.4916
 2325TIP3    H228467   2.853   0.624   6.448 -1.6032  0.6324 -0.2666
 2326TIP3   OH228468   4.017   4.829  15.657  0.2971 -0.0817 -0.8389
 2326TIP3    H128469   4.059   4.877  15.585  0.8120 -0.2602 -0.6569
 2326TIP3    H228470   3.930   4.869  15.664  0.7505  0.8906 -0.6308
 2327TIP3   OH228471   2.521   3.501   2.822 -0.2274  0.9329  0.3328
 2327TIP3    H128472   2.612   3.521   2.800 -0.4582  1.0378 -0.5214
 2327TIP3    H228473   2.476   3.494   2.738 -0.3011 -2.5973  0.5895
 2328TIP3   OH228474   4.747   1.153   2.727  0.3223  0.0386  0.2746
 2328TIP3    H128475   4.674   1.188   2.676  1.3077  1.8070  0.0319
 2328TIP3    H228476   4.736   1.058   2.722 -3.2726  0.2594  2.1428
 2329TIP3   OH228477   6.019   1.186   1.507  0.4812 -0.2617  0.1559
 2329TIP3    H128478   6.062   1.171   1.423  0.7070  1.0175  0.0386
 2329TIP3    H228479   6.053   1.117   1.564 -0.0736 -1.4733 -0.9395
 2330TIP3   OH228480   2.978   5.166   1.238  0.1624  0.1431 -0.3503
 2330TIP3    H128481   2.998   5.256   1.212  0.2204  0.3086  0.2484
 2330TIP3    H228482   2.891   5.149   1.201 -0.3171  0.8245  0.4428
 2331TIP3   OH228483   5.863   1.399   5.584  0.9906  0.0398  0.2627
 2331TIP3    H128484   5.863   1.491   5.612  3.5507  0.1436  0.0778
 2331TIP3    H228485   5.956   1.375   5.581  0.4431 -2.0442 -1.3989
 2332TIP3   OH228486   5.514   0.863   1.340 -0.0107 -0.0002  0.2599
 2332TIP3    H128487   5.445   0.904   1.288 -1.8920  0.4814  2.9871
 2332TIP3    H228488   5.510   0.770   1.317 -1.3480  0.0852  0.0954
 2333TIP3   OH228489   3.218   1.971   2.816 -0.2160 -0.0677 -0.2154
 2333TIP3    H128490   3.208   1.915   2.892  0.3153 -0.4516 -0.4202
 2333TIP3    H228491   3.135   1.964   2.769 -0.1481 -0.6937 -0.2449
 2334TIP3   OH228492   5.646   5.019  15.671 -0.7721  0.2546  0.0599
 2334TIP3    H128493   5.599   5.039  15.590 -2.6419 -1.2973  0.7094
 2334TIP3    H228494   5.640   5.099  15.723 -1.5620  0.5027 -0.4110
 2335TIP3   OH228495   4.258   0.020   2.629  0.6198  0.2454  0.6690
 2335TIP3    H128496   4.339   0.063   2.655 -0.1601  1.4413  1.2162
 2335TIP3    H228497   4.255  -0.061   2.681  0.5224  1.1627  2.1362
 2336TIP3   OH228498   2.756   3.156   5.712  0.3598 -0.1634  0.4381
 2336TIP3    H128499   2.682   3.160   5.651 -0.0249 -0.3844  0.8889
 2336TIP3    H228500   2.729   3.091   5.777  1.3764 -1.0083  0.0256
 2337TIP3   OH228501   2.180   3.175   2.842  0.0584 -0.7742 -0.0273
 2337TIP3    H128502   2.178   3.139   2.753 -0.7005 -0.1140 -0.2789
 2337TIP3    H228503   2.263   3.143   2.878  0.5408 -0.7710 -1.0897
 2338TIP3   OH228504   5.272   1.403  14.705 -0.0217  0.1126  0.7079
 2338TIP3    H128505   5.268   1.308  14.716 -1.1230  0.0373 -0.2389
 2338TIP3    H228506   5.208   1.437  14.769 -1.1531  0.0831 -0.3838
 2339TIP3   OH228507   5.970   4.977   1.838 -0.1093  0.0424  0.1467
 2339TIP3    H128508   6.061   4.970   1.866 -0.5984  0.5228  1.9230
 2339TIP3    H228509   5.970   5.050   1.775  0.3760  1.5143  1.8137
 2340TIP3   OH228510   4.779   3.334   1.094  0.3841  0.7612 -0.5766
 2340TIP3    H128511   4.813   3.420   1.119 -1.2569  1.2117  0.1773
 2340TIP3    H228512   4.773   3.337   0.998 -0.1477  1.6776 -0.5197
 2341TIP3   OH228513   3.219   2.948   2.140  0.0602 -0.3579  0.2222
 2341TIP3    H128514   3.220   3.037   2.105  1.0700  0.4547  2.2414
 2341TIP3    H228515   3.239   2.892   2.065 -0.9798  1.0700 -1.1467
 2342TIP3   OH228516   2.205   6.151  15.663  0.1362  0.4564 -0.4953
 2342TIP3    H128517   2.230   6.224  15.606 -2.0382 -0.5533 -2.8670
 2342TIP3    H228518   2.155   6.191  15.733  1.0938  1.5079 -0.3908
 2343TIP3   OH228519   1.208   0.428  13.451  0.1804 -0.4874  0.3032
 2343TIP3    H128520   1.303   0.415  13.453  0.2324 -0.1215  0.3451
 2343TIP3    H228521   1.197   0.521  13.472 -0.1747 -0.4873  0.1166
 2344TIP3   OH228522   3.151   2.249   2.650 -0.1880  0.2626  0.1737
 2344TIP3    H128523   3.179   2.308   2.720  0.9065  0.9984 -0.8485
 2344TIP3    H228524   3.149   2.162   2.690  1.0975  0.5745  0.9365
 2345TIP3   OH228525   2.440   6.478  12.718 -0.1892  0.0367 -0.2618
 2345TIP3    H128526   2.484   6.491  12.802 -0.0166  0.1915 -0.3765
 2345TIP3    H228527   2.351   6.509  12.733 -0.1095  0.2331 -0.1872
 2346TIP3   OH228528   4.313   2.716   0.391  0.0588 -0.2428  0.2941
 2346TIP3    H128529   4.390   2.736   0.444  0.3008  3.4452 -1.2551
 2346TIP3    H228530   4.239   2.726   0.451  0.4588  1.8665  0.4898
 2347TIP3   OH228531   5.198   6.589  12.187  0.0292  0.8059  0.7637
 2347TIP3    H128532   5.114   6.543  12.188  0.6704 -0.3879  2.5055
 2347TIP3    H228533   5.175   6.680  12.203 -0.9802  0.5732  0.7135
 2348TIP3   OH228534   1.978   5.452   4.572 -0.0110 -0.5203 -0.4450
 2348TIP3    H128535   1.912   5.394   4.610  0.3443 -1.7288 -1.6325
 2348TIP3    H228536   1.955   5.457   4.479  1.4819 -0.8303 -0.8365
 2349TIP3   OH228537   4.971   2.273  15.580  0.1405 -0.2449  0.2644
 2349TIP3    H128538   5.023   2.285  15.501 -0.1880  2.2630  0.3765
 2349TIP3    H228539   5.032   2.293  15.652 -0.7348  2.0359  0.4202
 2350TIP3   OH228540   6.797   5.394  11.706 -0.1393 -0.0061 -0.3948
 2350TIP3    H128541   6.806   5.460  11.775  3.1664 -0.9524  0.1370
 2350TIP3    H228542   6.756   5.442  11.633 -2.1539  1.4041  1.6036
 2351TIP3   OH228543   6.087   2.296   5.667  0.3857  0.1818  0.6906
 2351TIP3    H128544   6.035   2.218   5.686  0.0369  0.2824  0.1714
 2351TIP3    H228545   6.144   2.270   5.595 -0.2569  0.6203  0.0124
 2352TIP3   OH228546   0.630   4.702  16.362 -0.2738 -0.2436 -0.0255
 2352TIP3    H128547   0.670   4.788  16.351 -0.4420 -0.0909  0.5529
 2352TIP3    H228548   0.592   4.682  16.276  0.4673 -0.1009 -0.3920
 2353TIP3   OH228549   4.044   0.820   6.613  0.5975 -0.0596 -0.0073
 2353TIP3    H128550   4.020   0.825   6.521 -0.1196  0.4312  0.2109
 2353TIP3    H228551   3.966   0.847   6.661  1.5356  1.4804  0.7035
 2354TIP3   OH228552   2.652   2.153   3.299 -0.6555 -0.2904 -0.0717
 2354TIP3    H128553   2.582   2.139   3.236 -1.7642  0.1111  1.0515
 2354TIP3    H228554   2.608   2.155   3.384  0.9101 -1.6516  0.8097
 2355TIP3   OH228555   3.226   1.939   3.272  0.9407 -0.4730  0.3703
 2355TIP3    H128556   3.230   1.873   3.342 -0.8806 -0.4987  0.4791
 2355TIP3    H228557   3.224   1.887   3.191  0.6980 -0.5218  0.4063
 2356TIP3   OH228558   5.563   6.259  14.363  0.0309 -0.2652 -0.5591
 2356TIP3    H128559   5.647   6.273  14.406 -1.2521  0.8538  1.6295
 2356TIP3    H228560   5.515   6.202  14.422 -1.5776  0.8907 -0.7270
 2357TIP3   OH228561   5.000   5.912  13.762  0.2946  0.0702  0.4572
 2357TIP3    H128562   4.922   5.966  13.773  0.3531  0.2473  0.0438
 2357TIP3    H228563   4.968   5.829  13.726 -0.0081 -0.8708  2.7984
 2358TIP3   OH228564   5.611   5.711  10.479  0.1359 -0.2182 -0.5984
 2358TIP3    H128565   5.564   5.795  10.478 -1.5761 -1.0223  3.1696
 2358TIP3    H228566   5.699   5.733  10.509  0.5751  0.5667 -2.3925
 2359TIP3   OH228567   4.326   5.269  16.993 -0.4269  0.2163 -0.4801
 2359TIP3    H128568   4.235   5.296  17.006 -0.2631  0.6489 -0.2176
 2359TIP3    H228569   4.377   5.349  17.006 -0.1343  0.3746 -2.4269
 2360TIP3   OH228570   0.725   4.594   1.419 -0.2769  0.1809 -0.2645
 2360TIP3    H128571   0.802   4.623   1.370 -0.3220 -0.1281 -0.5204
 2360TIP3    H228572   0.657   4.584   1.353 -0.1179 -0.9955 -0.2492
 2361TIP3   OH228573   6.382   6.085  12.127 -0.1051  0.3015 -0.0437
 2361TIP3    H128574   6.309   6.023  12.134 -0.8174  0.9842 -1.2943
 2361TIP3    H228575   6.396   6.114  12.217 -1.2344  0.0012  0.2483
 2362TIP3   OH228576   0.987   2.648  12.387  0.5107  0.2843  0.1377
 2362TIP3    H128577   0.979   2.553  12.393 -1.1324  0.3230 -1.0465
 2362TIP3    H228578   0.905   2.681  12.423  1.3443  1.2937  1.1506
 2363TIP3   OH228579   3.716   3.908  16.462 -0.2768 -0.0719 -0.1722
 2363TIP3    H128580   3.655   3.837  16.482  1.0791 -1.3470 -0.5485
 2363TIP3    H228581   3.793   3.889  16.515  0.3519  0.7749 -0.7738
 2364TIP3   OH228582   5.376   2.313  13.421 -0.6850  0.0977  0.3743
 2364TIP3    H128583   5.298   2.355  13.457  0.4856  1.8945  0.8768
 2364TIP3    H228584   5.390   2.236  13.477 -0.8754  0.9399  1.6037
 2365TIP3   OH228585   1.902   2.134  12.618  0.7329 -0.3491 -0.1346
 2365TIP3    H128586   1.960   2.206  12.591 -0.1926 -0.3483 -2.2189
 2365TIP3    H228587   1.930   2.113  12.706  2.6400  0.9587 -0.3923
 2366TIP3   OH228588   6.660   5.993  13.670 -0.1212 -0.2411 -0.1812
 2366TIP3    H128589   6.613   5.917  13.637 -0.2108  0.9345 -2.8427
 2366TIP3    H228590   6.592   6.051  13.705 -0.1716 -0.7364  0.5587
 2367TIP3   OH228591   1.480   2.124   1.560  0.7641 -0.8652  0.7594
 2367TIP3    H128592   1.482   2.042   1.609  1.6098 -0.1761  1.9078
 2367TIP3    H228593   1.403   2.170   1.595  0.3257 -1.1345  0.1594
 2368TIP3   OH228594   4.728   4.126   4.845  0.3697 -0.3054 -0.2878
 2368TIP3    H128595   4.645   4.103   4.804  0.7621 -1.3564 -0.4988
 2368TIP3    H228596   4.704   4.181   4.919 -0.5489 -1.0524 -0.0243
 2369TIP3   OH228597   4.595   4.684   1.487 -0.2737 -0.6200  0.2745
 2369TIP3    H128598   4.546   4.717   1.411 -0.5351 -0.7502  0.3881
 2369TIP3    H228599   4.599   4.759   1.547 -1.3005 -0.9385  0.7506
 2370TIP3   OH228600   5.225   6.748   1.241 -0.1112  0.6679 -0.1437
 2370TIP3    H128601   5.207   6.744   1.147  0.7327  2.0938 -0.3847
 2370TIP3    H228602   5.195   6.834   1.268  0.2365  0.5134  0.7729
 2371TIP3   OH228603   5.423   6.657  14.236 -0.3524  0.2924 -0.4472
 2371TIP3    H128604   5.488   6.622  14.297 -1.9904 -0.3514  0.9612
 2371TIP3    H228605   5.364   6.708  14.291 -1.6207  0.0343 -1.5599
 2372TIP3   OH228606   5.126   2.124   3.866 -0.1232 -0.3497 -0.5499
 2372TIP3    H128607   5.141   2.196   3.805 -1.4809 -0.2531 -0.7920
 2372TIP3    H228608   5.031   2.113   3.867 -0.0362 -1.0796  0.7114
 2373TIP3   OH228609   5.451   6.270   3.028 -0.1088  0.2553 -0.3061
 2373TIP3    H128610   5.519   6.309   3.083 -1.3936  0.9110  0.8553
 2373TIP3    H228611   5.492   6.192   2.991 -0.6795 -3.1856  5.6732
 2374TIP3   OH228612   0.527   1.929  13.119  0.7949 -0.0874  0.3102
 2374TIP3    H128613   0.621   1.927  13.103  0.4291 -2.0126 -1.8090
 2374TIP3    H228614   0.492   1.858  13.065 -1.7197 -0.2640  2.0935
 2375TIP3   OH228615   6.082   5.450   0.025  0.0156  0.0753 -0.3340
 2375TIP3    H128616   6.040   5.370  -0.005  0.8844  0.6200 -3.2045
 2375TIP3    H228617   6.174   5.427   0.035 -0.2052  0.0072  1.5987
 2376TIP3   OH228618   4.515   3.777   1.919 -0.1424 -0.4626  0.1262
 2376TIP3    H128619   4.534   3.687   1.892  0.1444 -1.0459  2.2284
 2376TIP3    H228620   4.476   3.769   2.006 -0.7617  1.4010  0.0369
 2377TIP3   OH228621   4.936   5.601  10.358 -0.0634  0.0990  0.1688
 2377TIP3    H128622   4.956   5.544  10.284 -0.0441  0.9874 -0.5289
 2377TIP3    H228623   5.022   5.629  10.390 -0.0791 -0.0120  0.3061
 2378TIP3   OH228624   1.898   0.880   2.067  0.8201 -0.0631 -0.0528
 2378TIP3    H128625   1.833   0.813   2.088 -0.8281  1.9882  1.5655
 2378TIP3    H228626   1.855   0.937   2.003  1.9193 -0.0486 -0.8076
 2379TIP3   OH228627   2.965   2.246  13.676  0.0514  0.2241  0.3166
 2379TIP3    H128628   3.025   2.234  13.750 -0.9513 -0.7311  0.9918
 2379TIP3    H228629   2.960   2.159  13.635  0.9801  0.8561 -1.1784
 2380TIP3   OH228630   2.122   1.058  15.055 -0.2767 -0.3521  0.2009
 2380TIP3    H128631   2.075   1.103  14.985  0.1078 -0.4521 -0.1278
 2380TIP3    H228632   2.214   1.078  15.037 -0.2397  0.4734  1.2681
 2381TIP3   OH228633   0.293   5.614  14.900 -0.2791 -0.5864  0.1898
 2381TIP3    H128634   0.250   5.537  14.863  1.5030 -1.4075 -0.2581
 2381TIP3    H228635   0.383   5.609  14.866  0.2734  0.8507  1.3999
 2382TIP3   OH228636   6.710   4.647   4.300 -0.2269  0.1112 -0.0405
 2382TIP3    H128637   6.677   4.647   4.210 -1.4922  0.9723  0.4025
 2382TIP3    H228638   6.741   4.737   4.314 -2.8944  0.8864  1.3553
 2383TIP3   OH228639   4.001   4.179  11.905 -0.2311 -0.3738 -0.4064
 2383TIP3    H128640   3.955   4.160  11.823 -1.3863 -0.9181  0.3543
 2383TIP3    H228641   3.988   4.101  11.958 -0.3287  0.3637  0.6669
 2384TIP3   OH228642   3.066   4.869  11.350  0.4976 -0.3869 -0.5006
 2384TIP3    H128643   3.052   4.956  11.312 -0.2771 -0.0262  0.5848
 2384TIP3    H228644   3.160   4.853  11.339  0.5024  0.2453 -1.4164
 2385TIP3   OH228645   2.294   0.560  12.762  0.2394  0.0627 -0.4174
 2385TIP3    H128646   2.229   0.621  12.796  1.6878  1.2618  0.2511
 2385TIP3    H228647   2.261   0.535  12.675 -0.9479  0.8827 -0.2073
 2386TIP3   OH228648   3.561   5.211  16.289 -0.4086 -0.1402  0.5622
 2386TIP3    H128649   3.485   5.170  16.329 -1.1492 -0.6684 -1.3497
 2386TIP3    H228650   3.606   5.254  16.362 -2.5423  0.2089  1.7072
 2387TIP3   OH228651   5.497   6.778  16.261  0.8483  0.0240  0.0629
 2387TIP3    H128652   5.431   6.847  16.257  0.8096  0.0532  1.0661
 2387TIP3    H228653   5.550   6.799  16.338  0.6276 -1.2522  0.5777
 2388TIP3   OH228654   6.013   3.989  12.808  0.3190  0.1295 -0.1859
 2388TIP3    H128655   5.929   4.023  12.779 -0.2493 -0.3289  0.8855
 2388TIP3    H228656   6.002   3.894  12.805  0.6598  0.0710  0.3400
 2389TIP3   OH228657   0.901   3.288   5.750  0.0448  0.2794 -0.2461
 2389TIP3    H128658   0.856   3.366   5.780  1.1249  0.7035  0.3179
 2389TIP3    H228659   0.993   3.302   5.774  0.4902 -0.5531 -1.3598
 2390TIP3   OH228660   4.512   2.306  14.766 -0.8836 -0.2848 -0.3322
 2390TIP3    H128661   4.494   2.392  14.805 -1.9033 -0.5317 -0.2406
 2390TIP3    H228662   4.433   2.286  14.717 -0.3868 -0.8848 -0.8937
 2391TIP3   OH228663   3.563   1.717   5.537  0.3484 -0.6596  0.5765
 2391TIP3    H128664   3.595   1.683   5.621 -0.8179 -0.3550  1.1475
 2391TIP3    H228665   3.624   1.788   5.516  0.4578 -0.5246  1.3263
 2392TIP3   OH228666   5.635   5.531   5.654 -0.1327 -0.1270  0.1826
 2392TIP3    H128667   5.621   5.618   5.617  0.9830  0.7146  1.6834
 2392TIP3    H228668   5.675   5.547   5.739  0.0462 -2.1135  0.5043
 2393TIP3   OH228669   0.314   0.671  16.910  0.9198 -0.2773  0.0971
 2393TIP3    H128670   0.327   0.596  16.968  0.6067  0.5008  1.1874
 2393TIP3    H228671   0.303   0.633  16.823  1.0059 -1.4811  0.6094
 2394TIP3   OH228672   3.862   3.749   5.029 -0.5543  0.6169  0.6553
 2394TIP3    H128673   3.837   3.808   4.958  1.5110  0.7282 -0.0173
 2394TIP3    H228674   3.899   3.806   5.096 -0.8703  0.3360  1.0734
 2395TIP3   OH228675   0.013   4.706  11.434 -0.1061 -0.6988 -0.3445
 2395TIP3    H128676  -0.082   4.706  11.425 -0.0632 -0.3417 -0.8609
 2395TIP3    H228677   0.032   4.780  11.492 -0.2855 -2.1201  1.5810
 2396TIP3   OH228678   3.325   4.113   5.717  0.0031 -0.5833 -0.1173
 2396TIP3    H128679   3.310   4.059   5.794  1.1764  0.8610  1.1754
 2396TIP3    H228680   3.262   4.185   5.726  0.1497 -0.4109 -0.4747
 2397TIP3   OH228681   2.180   6.388   2.489  0.6312 -0.2077 -0.2923
 2397TIP3    H128682   2.261   6.395   2.439  0.2172  2.1902 -0.6852
 2397TIP3    H228683   2.189   6.454   2.558 -1.2702  0.5391 -0.7376
 2398TIP3   OH228684   4.809   1.954   4.644  0.1880 -0.0379 -0.2914
 2398TIP3    H128685   4.883   1.982   4.698 -1.3322  0.3220  1.6527
 2398TIP3    H228686   4.744   1.922   4.706 -1.6346  0.3837 -1.9092
 2399TIP3   OH228687   4.620   4.587   0.972 -0.5557 -0.2338  0.2105
 2399TIP3    H128688   4.559   4.660   0.963  1.4561  1.2311 -2.0028
 2399TIP3    H228689   4.581   4.518   0.918 -1.5086 -0.1953  0.8223
 2400TIP3   OH228690   1.438   4.429   4.574  0.0142 -0.0696  0.4307
 2400TIP3    H128691   1.427   4.463   4.663 -1.6034  1.9233 -0.4834
 2400TIP3    H228692   1.387   4.349   4.572  0.9599 -0.7220  1.5987
 2401TIP3   OH228693   5.906   0.761   2.213 -0.1317 -0.0696  0.6354
 2401TIP3    H128694   5.899   0.715   2.130 -1.0586  1.3249 -0.0816
 2401TIP3    H228695   5.819   0.755   2.252  0.3072 -0.7514  1.5236
 2402TIP3   OH228696   5.509   3.012  10.454  0.2443 -0.4885  0.0351
 2402TIP3    H128697   5.540   2.963  10.378  1.5397 -0.9305  0.8305
 2402TIP3    H228698   5.575   2.996  10.521 -0.6582  0.2566  1.1180
 2403TIP3   OH228699   5.615   2.111   0.491  0.4722  0.0415 -0.4149
 2403TIP3    H128700   5.531   2.156   0.487  0.2638 -0.1550  1.1377
 2403TIP3    H228701   5.679   2.175   0.461  0.1255  1.2520  1.3581
 2404TIP3   OH228702   1.002   2.662   2.646 -0.5322  0.5498  0.7206
 2404TIP3    H128703   1.012   2.757   2.645  0.6122  0.4269 -0.8702
 2404TIP3    H228704   0.917   2.646   2.602 -1.0441  0.8624  1.5919
 2405TIP3   OH228705   1.532   5.755  11.297  0.5345  0.2495  0.1698
 2405TIP3    H128706   1.553   5.716  11.212 -1.1192 -1.4060  0.5088
 2405TIP3    H228707   1.478   5.831  11.275  1.8413  1.0549 -0.3515
 2406TIP3   OH228708   4.177   4.087  17.022  0.2332 -0.0576  0.0451
 2406TIP3    H128709   4.269   4.088  17.048 -0.3676  0.2377  2.2258
 2406TIP3    H228710   4.152   4.179  17.020 -0.0040 -0.1354 -0.6111
 2407TIP3   OH228711   0.619   3.458   1.198 -0.5833 -0.1630 -0.3883
 2407TIP3    H128712   0.578   3.439   1.114 -0.7618 -0.2274 -0.2876
 2407TIP3    H228713   0.711   3.437   1.186 -0.8436 -1.4817 -0.1533
 2408TIP3   OH228714   0.021   0.489   2.287 -0.1382 -0.4248  0.5675
 2408TIP3    H128715  -0.051   0.552   2.289  1.7451  1.7814  1.4078
 2408TIP3    H228716  -0.015   0.410   2.327 -2.3522  0.3362  0.1363
 2409TIP3   OH228717   4.380   3.722  16.055  0.0060  0.0168 -0.5731
 2409TIP3    H128718   4.357   3.759  15.970 -0.6531 -0.8637 -0.7820
 2409TIP3    H228719   4.471   3.693  16.046 -0.1047 -0.1920 -1.0218
 2410TIP3   OH228720   5.983   4.640   3.193 -0.0686  0.1099 -0.0849
 2410TIP3    H128721   6.008   4.652   3.101  0.2496  0.0765 -0.0016
 2410TIP3    H228722   5.947   4.725   3.219  0.0070  0.1723 -0.1876
 2411TIP3   OH228723   3.529   0.715   3.379 -0.1883 -0.3882 -0.2541
 2411TIP3    H128724   3.437   0.701   3.403  0.5501  0.9406  3.6955
 2411TIP3    H228725   3.537   0.809   3.366  0.2953 -0.6758 -2.1847
 2412TIP3   OH228726   0.343   4.564  12.527  0.0219 -0.0058  0.1750
 2412TIP3    H128727   0.425   4.596  12.564 -1.2869  1.3462  2.0182
 2412TIP3    H228728   0.284   4.556  12.602 -2.1454  0.9639 -1.3571
 2413TIP3   OH228729   1.463   4.620  12.000 -0.2467  0.0230 -0.1428
 2413TIP3    H128730   1.380   4.659  12.029  0.2603 -1.0220  2.8999
 2413TIP3    H228731   1.441   4.530  11.977 -0.3079  0.3275 -1.3107
 2414TIP3   OH228732   1.782   0.715  12.803  0.0870  0.2273  0.3828
 2414TIP3    H128733   1.759   0.761  12.722 -2.3566 -2.2945 -0.4469
 2414TIP3    H228734   1.697   0.691  12.841  1.2472 -0.7701  2.4212
 2415TIP3   OH228735   0.268   4.991   5.110 -0.1875  0.4275  0.3062
 2415TIP3    H128736   0.210   4.917   5.092 -0.6985  1.3443 -1.9417
 2415TIP3    H228737   0.231   5.063   5.060  1.5235  1.6694  0.7965
 2416TIP3   OH228738   6.405   2.896  13.889 -0.2612 -0.8663  0.4551
 2416TIP3    H128739   6.390   2.915  13.982 -1.1728 -2.6155  0.6802
 2416TIP3    H228740   6.500   2.894  13.879 -0.1519  0.7138  1.0500
 2417TIP3   OH228741   5.129   3.578  12.367 -0.4432  0.5974  0.5916
 2417TIP3    H128742   5.058   3.615  12.419 -0.4829  2.0760 -0.4761
 2417TIP3    H228743   5.140   3.489  12.400 -2.2120  0.6508  1.3462
 2418TIP3   OH228744   6.094   2.214   1.780  0.2663  0.5350 -0.0730
 2418TIP3    H128745   6.161   2.169   1.831 -0.5486  0.8259  1.2677
 2418TIP3    H228746   6.028   2.241   1.844 -1.2832 -0.0005 -1.3983
 2419TIP3   OH228747   0.681   1.178  15.011  0.0341 -0.8484 -0.1609
 2419TIP3    H128748   0.688   1.245  14.943  0.2092 -1.1850 -0.4748
 2419TIP3    H228749   0.729   1.215  15.085  0.1187 -0.6192 -0.3291
 2420TIP3   OH228750   1.741   0.295   1.834 -0.3794  0.2857 -0.1708
 2420TIP3    H128751   1.779   0.221   1.880 -0.7715  1.5659  2.3042
 2420TIP3    H228752   1.649   0.270   1.822 -0.0095 -0.5513 -1.3695
 2421TIP3   OH228753   4.879   5.050   5.243 -0.2534  0.0728  0.2282
 2421TIP3    H128754   4.924   5.119   5.292 -0.2250  0.1241  0.1300
 2421TIP3    H228755   4.932   4.972   5.257  0.3020  0.3119 -0.5415
 2422TIP3   OH228756   4.850   0.429  12.042  0.0485  0.1545 -0.4120
 2422TIP3    H128757   4.823   0.337  12.044  0.6947 -0.0312 -0.1853
 2422TIP3    H228758   4.789   0.472  12.102  0.0873 -0.2235 -0.0937
 2423TIP3   OH228759   4.773   5.503  17.198  0.4221 -0.7168  0.0185
 2423TIP3    H128760   4.793   5.597  17.200  1.1627 -0.8867  1.6458
 2423TIP3    H228761   4.799   5.475  17.111 -0.5277  0.7386 -0.7599
 2424TIP3   OH228762   6.173   5.465   1.438 -0.3124 -0.2792  0.1263
 2424TIP3    H128763   6.105   5.521   1.476 -0.8891 -0.0785 -1.1718
 2424TIP3    H228764   6.204   5.412   1.511  1.6723  3.1298  1.8263
 2425TIP3   OH228765   0.964   4.249  14.649  0.0164  0.0609 -0.0870
 2425TIP3    H128766   0.956   4.180  14.715 -0.0389  0.1154 -0.0357
 2425TIP3    H228767   1.053   4.283  14.660  1.3153 -2.4185 -2.5071
 2426TIP3   OH228768   0.798   0.337   2.533 -0.5687  0.1781 -0.1234
 2426TIP3    H128769   0.769   0.382   2.454 -1.6546 -0.6789 -0.2219
 2426TIP3    H228770   0.836   0.255   2.502 -1.8689 -0.5969  0.2927
 2427TIP3   OH228771   3.179   2.751  13.010  0.3566  0.1303  0.4132
 2427TIP3    H128772   3.113   2.768  12.944 -0.5344  1.7724  1.6946
 2427TIP3    H228773   3.262   2.775  12.969  0.0530 -0.8398 -0.7960
 2428TIP3   OH228774   4.080   3.106   5.343  0.0224  0.4252  0.0595
 2428TIP3    H128775   4.103   3.036   5.281  0.7354  0.6514  0.0634
 2428TIP3    H228776   4.072   3.184   5.288 -0.2784  0.4433  0.1265
 2429TIP3   OH228777   1.301   6.629  11.635 -0.3172 -0.1711 -0.1981
 2429TIP3    H128778   1.289   6.609  11.728 -0.2577 -1.7285 -0.5133
 2429TIP3    H228779   1.213   6.651  11.604 -0.2517  0.9054  0.3358
 2430TIP3   OH228780   1.641   0.782   0.357 -0.4087 -0.5153 -0.2644
 2430TIP3    H128781   1.637   0.779   0.262  1.7266 -0.4831 -0.3673
 2430TIP3    H228782   1.733   0.769   0.378 -0.8331 -0.3796  1.7957
 2431TIP3   OH228783   1.604   6.641   5.931  0.1041 -0.4098 -0.2389
 2431TIP3    H128784   1.518   6.603   5.948  0.3054 -0.0088  1.7349
 2431TIP3    H228785   1.586   6.729   5.898 -0.2680 -0.8995 -1.3645
 2432TIP3   OH228786   1.671   3.839   5.744  0.6580  0.1321 -0.5854
 2432TIP3    H128787   1.667   3.756   5.791 -0.5999 -0.5431 -1.8965
 2432TIP3    H228788   1.665   3.905   5.813 -0.3203 -0.8554  0.2916
 2433TIP3   OH228789   3.232   2.897   6.018  0.2123  0.6517  0.1366
 2433TIP3    H128790   3.211   2.935   6.103  1.8991  2.4234 -0.2015
 2433TIP3    H228791   3.147   2.881   5.977 -0.6434 -0.7746  2.3587
 2434TIP3   OH228792   1.154   2.022  11.929  0.1193  0.2383 -0.2808
 2434TIP3    H128793   1.242   2.027  11.967  0.6761  1.0247 -1.6217
 2434TIP3    H228794   1.167   2.046  11.837 -1.5657  0.7834 -0.3863
 2435TIP3   OH228795   4.373   1.001  15.600 -0.2320 -0.0765  0.1915
 2435TIP3    H128796   4.330   1.030  15.519 -0.5600  0.5442  0.5809
 2435TIP3    H228797   4.377   0.906  15.592 -0.4939 -0.0399 -0.4406
 2436TIP3   OH228798   6.511   2.799   4.825 -0.0064 -0.0243 -0.2357
 2436TIP3    H128799   6.554   2.727   4.872  1.2520  0.6129 -0.3778
 2436TIP3    H228800   6.569   2.816   4.750 -0.4772  0.9050 -0.3930
 2437TIP3   OH228801   1.073   5.305  11.838 -0.2534  0.1900 -0.4796
 2437TIP3    H128802   1.087   5.292  11.744 -1.0783 -0.6249 -0.4930
 2437TIP3    H228803   1.075   5.400  11.849  2.1618  0.2270 -0.9539
 2438TIP3   OH228804   3.320   0.046   1.586 -0.2277 -0.1545  0.1205
 2438TIP3    H128805   3.387   0.038   1.653 -0.0887 -2.3973 -0.2463
 2438TIP3    H228806   3.237   0.048   1.635 -0.0103  0.5532  0.4648
 2439TIP3   OH228807   0.086   5.329  14.015 -0.5517 -0.1980 -0.2123
 2439TIP3    H128808   0.153   5.334  13.947  0.2237  1.7633  0.6419
 2439TIP3    H228809   0.132   5.354  14.095 -2.2156  0.8667  0.4372
 2440TIP3   OH228810   3.985   6.665  15.800  0.2475  0.1885  0.3442
 2440TIP3    H128811   4.046   6.653  15.726 -0.2851 -2.1013  0.2259
 2440TIP3    H228812   3.899   6.676  15.758  0.3766  2.0782  0.5507
 2441TIP3   OH228813   2.749   1.335   6.216  0.2224 -0.0841  0.9763
 2441TIP3    H128814   2.839   1.329   6.184 -0.2848  1.0284 -0.7012
 2441TIP3    H228815   2.748   1.413   6.271  0.1453  0.1911  0.5795
 2442TIP3   OH228816   4.675   6.459   1.897 -0.1372  0.1332  0.1169
 2442TIP3    H128817   4.639   6.514   1.967 -2.0216 -1.3878  0.3921
 2442TIP3    H228818   4.770   6.462   1.909 -0.4531 -0.4379  3.0204
 2443TIP3   OH228819   1.850   3.339  16.365  0.2539  1.0434 -0.3123
 2443TIP3    H128820   1.867   3.260  16.415 -0.9719  0.1780 -1.2090
 2443TIP3    H228821   1.871   3.411  16.424  1.9448  0.0636  0.3146
 2444TIP3   OH228822   3.560   2.689   6.917 -0.2600  0.4171 -0.3491
 2444TIP3    H128823   3.567   2.596   6.896  0.4978  0.4075 -0.0835
 2444TIP3    H228824   3.476   2.697   6.963 -0.3415 -0.1257 -0.4011
 2445TIP3   OH228825   0.893   2.120  15.097  0.4345 -0.0566  0.1300
 2445TIP3    H128826   0.815   2.100  15.149  0.3360  2.0878  0.8654
 2445TIP3    H228827   0.887   2.214  15.080  2.3927 -0.0410 -0.6147
 2446TIP3   OH228828   2.728   6.499   6.003 -0.1381  0.0313  0.4147
 2446TIP3    H128829   2.771   6.583   6.015 -0.7046  0.3153  0.4578
 2446TIP3    H228830   2.752   6.448   6.080  0.0350  0.2287  0.4895
 2447TIP3   OH228831   0.283   5.904   5.349 -0.0482 -0.4080  0.4595
 2447TIP3    H128832   0.255   5.813   5.357 -0.8959  0.1322  5.1146
 2447TIP3    H228833   0.207   5.949   5.312 -0.9880 -1.0250  1.5958
 2448TIP3   OH228834   5.218   2.622  15.453 -0.1615  0.4038  0.3619
 2448TIP3    H128835   5.155   2.617  15.381 -1.0447 -2.2753  1.2578
 2448TIP3    H228836   5.170   2.660  15.526 -0.2331  0.0193  0.5172
 2449TIP3   OH228837   6.020   3.408  14.011 -0.1701  0.7178  1.0542
 2449TIP3    H128838   6.055   3.493  14.039 -1.0279  1.3176  0.3678
 2449TIP3    H228839   5.962   3.430  13.937 -2.4239 -0.1261  2.5097
 2450TIP3   OH228840   2.319   3.009   0.378  0.7495 -0.1436 -0.0299
 2450TIP3    H128841   2.336   3.086   0.432 -1.7684 -0.8599  1.9232
 2450TIP3    H228842   2.380   2.943   0.410  0.3162 -0.0858  0.9399
 2451TIP3   OH228843   4.357   1.140   5.927 -0.0077  0.0566  0.0029
 2451TIP3    H128844   4.404   1.077   5.981  0.5852 -1.2700 -1.9963
 2451TIP3    H228845   4.397   1.224   5.948  1.8114 -0.7582 -0.0745
 2452TIP3   OH228846   6.512   3.184   5.524  0.3075  0.4212  0.4135
 2452TIP3    H128847   6.589   3.150   5.479  0.3854 -0.1565  0.9742
 2452TIP3    H228848   6.514   3.143   5.611 -1.1725 -0.3698  0.0941
 2453TIP3   OH228849   1.771   3.835   1.281 -0.2065 -0.1554 -0.1626
 2453TIP3    H128850   1.744   3.839   1.189  0.7947 -0.2543 -0.4708
 2453TIP3    H228851   1.711   3.893   1.327 -1.2838 -0.7883 -0.7396
 2454TIP3   OH228852   2.353   4.108  11.609 -0.1296 -0.0458  0.4019
 2454TIP3    H128853   2.403   4.052  11.669 -1.8488 -1.8342  0.2216
 2454TIP3    H228854   2.262   4.091  11.632 -0.7515  0.5726 -1.5511
 2455TIP3   OH228855   6.256   4.116  14.453 -0.1773  0.8551 -0.3348
 2455TIP3    H128856   6.332   4.155  14.410 -0.2843  2.0400  0.5414
 2455TIP3    H228857   6.289   4.086  14.538 -0.1815 -0.6396 -0.8496
 2456TIP3   OH228858   5.604   3.769   2.314  0.0006 -0.0742 -0.5646
 2456TIP3    H128859   5.564   3.843   2.361 -2.5734 -1.1324 -0.9735
 2456TIP3    H228860   5.613   3.800   2.224  3.3430  1.3538  0.1946
 2457TIP3   OH228861   5.734   2.963   6.050 -0.0834  0.2869  0.0132
 2457TIP3    H128862   5.685   2.976   6.131 -0.1506 -2.3918  0.4191
 2457TIP3    H228863   5.681   3.008   5.983 -0.1536  2.2894  1.3742
 2458TIP3   OH228864   0.787   5.034  12.960  0.2231 -0.0396  0.3793
 2458TIP3    H128865   0.841   5.089  12.903 -0.4964  0.3000  0.0156
 2458TIP3    H228866   0.736   4.980  12.900  0.4126 -0.6035  0.7245
 2459TIP3   OH228867   4.323   4.339   1.202  0.5359 -0.0388  0.5315
 2459TIP3    H128868   4.288   4.306   1.119 -0.0025  0.0823  0.7054
 2459TIP3    H228869   4.266   4.301   1.268  0.7250  0.1783  0.8178
 2460TIP3   OH228870   6.168   5.040  11.280 -0.6588 -0.9143  0.3468
 2460TIP3    H128871   6.225   5.116  11.292  2.3790 -3.0945  0.2832
 2460TIP3    H228872   6.131   5.051  11.193 -1.4455  1.2368  0.9289
 2461TIP3   OH228873   6.685   1.866  13.201  0.3460  0.3203  0.2944
 2461TIP3    H128874   6.737   1.910  13.269 -0.9088  1.7136  0.4072
 2461TIP3    H228875   6.600   1.851  13.243 -0.5274  1.4205 -1.0386
 2462TIP3   OH228876   0.275   6.164  11.725  0.2011 -0.4911 -0.1857
 2462TIP3    H128877   0.319   6.237  11.768 -0.7821  0.2113 -0.3541
 2462TIP3    H228878   0.286   6.181  11.632  1.7033 -1.6285 -0.2302
 2463TIP3   OH228879   0.831   0.822   4.217 -0.0193  0.0589 -0.6769
 2463TIP3    H128880   0.761   0.826   4.283 -0.6423  0.5613 -1.3663
 2463TIP3    H228881   0.849   0.914   4.195  1.0966 -0.0431 -0.2672
 2464TIP3   OH228882   1.322   1.205   3.742  0.1485  0.2050  0.2260
 2464TIP3    H128883   1.372   1.169   3.815  0.0881 -1.2689 -0.4392
 2464TIP3    H228884   1.230   1.193   3.766  0.1277 -0.6617 -0.2617
 2465TIP3   OH228885   1.516   1.701   3.763 -0.7173  0.5031  0.4101
 2465TIP3    H128886   1.468   1.619   3.781 -0.8677  0.4838 -0.0589
 2465TIP3    H228887   1.588   1.701   3.825 -2.4436  1.4806  2.4824
 2466TIP3   OH228888   0.485   5.125   2.252 -0.1830 -0.1504 -0.0391
 2466TIP3    H128889   0.497   5.052   2.192 -1.4547 -1.9818  1.8320
 2466TIP3    H228890   0.478   5.202   2.196  1.3466 -1.4188 -2.0554
 2467TIP3   OH228891   5.848   4.091   3.369 -0.0397 -0.0068 -0.1679
 2467TIP3    H128892   5.929   4.138   3.389 -0.4360  1.0327 -1.0089
 2467TIP3    H228893   5.860   4.005   3.410  0.0404  1.3275  2.7945
 2468TIP3   OH228894   2.040   2.183   5.810 -0.0342  0.4158  0.3662
 2468TIP3    H128895   1.977   2.119   5.843 -0.0988  0.7464  0.8820
 2468TIP3    H228896   2.094   2.206   5.885  0.5608  0.3119 -0.0200
 2469TIP3   OH228897   1.646   1.804   2.752 -0.1281  0.0988  0.6733
 2469TIP3    H128898   1.676   1.717   2.725 -1.4272 -0.6234  1.5110
 2469TIP3    H228899   1.606   1.840   2.673 -1.0380 -0.7158  0.7518
 2470TIP3   OH228900   2.729   4.065   4.679 -0.1585  0.2810 -0.1462
 2470TIP3    H128901   2.712   4.138   4.620 -0.7344 -0.5768 -1.0560
 2470TIP3    H228902   2.676   3.993   4.644  1.3580 -0.9323  0.0090
 2471TIP3   OH228903   4.811   3.873   6.002  0.1157 -0.1092 -0.2170
 2471TIP3    H128904   4.766   3.944   6.049 -1.2475 -0.7351 -0.5552
 2471TIP3    H228905   4.814   3.801   6.065  1.6710  0.2877  0.1925
 2472TIP3   OH228906   6.432   6.078  16.187 -0.1267  0.4456 -0.4693
 2472TIP3    H128907   6.509   6.086  16.131 -0.3457 -0.1533 -0.8570
 2472TIP3    H228908   6.363   6.046  16.129 -0.5786  0.6403 -0.0473
 2473TIP3   OH228909   0.981   0.006  16.010  0.0354 -1.1305  0.4818
 2473TIP3    H128910   0.970  -0.011  16.103 -1.0713  1.8671  0.9731
 2473TIP3    H228911   0.893   0.028  15.979  1.0024  1.9971 -0.3023
 2474TIP3   OH228912   6.355   0.741   4.847 -0.1365  0.2387  0.5307
 2474TIP3    H128913   6.276   0.791   4.870 -0.0105  0.9626 -0.5918
 2474TIP3    H228914   6.426   0.786   4.892 -0.2796 -0.0424  1.0363
 2475TIP3   OH228915   0.844   5.385   0.758 -0.0713  0.2336  0.4184
 2475TIP3    H128916   0.772   5.443   0.734  1.3814  1.7399 -0.3303
 2475TIP3    H228917   0.917   5.443   0.778  0.9930 -1.2819  1.0776
 2476TIP3   OH228918   1.919   2.176  16.255 -0.1691 -0.3061  0.2813
 2476TIP3    H128919   1.994   2.169  16.314  0.7386  0.2253 -0.7920
 2476TIP3    H228920   1.852   2.221  16.306  0.8444  0.7760  0.6814
 2477TIP3   OH228921   4.046   6.281  16.696  0.2180 -0.3580 -0.3933
 2477TIP3    H128922   4.038   6.375  16.684 -0.8525 -0.4263 -0.3171
 2477TIP3    H228923   3.966   6.245  16.656  0.1439 -1.1428  0.4399
 2478TIP3   OH228924   4.602   1.126   0.699 -0.3643  0.1317  0.4789
 2478TIP3    H128925   4.631   1.217   0.704 -1.2052  0.4614 -0.4561
 2478TIP3    H228926   4.508   1.132   0.684 -0.1861 -0.8647 -1.0968
 2479TIP3   OH228927   1.087   2.694  14.018 -0.1546 -0.4967  0.5373
 2479TIP3    H128928   1.141   2.627  13.977  0.1381  0.0296  0.0709
 2479TIP3    H228929   1.073   2.662  14.107  1.0078 -0.5848  0.6945
 2480TIP3   OH228930   3.540   5.704   5.536 -0.3325  0.0871 -0.6100
 2480TIP3    H128931   3.618   5.727   5.486  1.1334 -2.4206  0.4336
 2480TIP3    H228932   3.484   5.658   5.474  0.1544 -0.3429 -0.7356
 2481TIP3   OH228933   2.234   0.007   2.345 -0.0394  0.2082 -0.4808
 2481TIP3    H128934   2.293   0.082   2.334  0.3265 -0.3007 -2.2224
 2481TIP3    H228935   2.239  -0.014   2.438  1.7452  0.8395 -0.4020
 2482TIP3   OH228936   0.703   6.199   2.214 -0.4562  0.3687  0.6697
 2482TIP3    H128937   0.745   6.279   2.247 -0.5234  0.2166  1.1285
 2482TIP3    H228938   0.745   6.183   2.130  1.0831 -0.3171  1.5646
 2483TIP3   OH228939   0.625   1.375  16.176  0.5485  0.4586 -0.5699
 2483TIP3    H128940   0.648   1.467  16.182  0.8074  0.4028 -0.7147
 2483TIP3    H228941   0.591   1.365  16.087 -0.8299  0.7245 -0.0852
 2484TIP3   OH228942   0.488   0.442  16.811  0.3505 -0.1543 -0.1320
 2484TIP3    H128943   0.576   0.416  16.785  0.0713 -0.4276 -0.8045
 2484TIP3    H228944   0.434   0.365  16.792 -0.5536  1.0385 -2.5026
 2485TIP3   OH228945   3.432   3.023   5.914  0.0388 -0.0127  0.4128
 2485TIP3    H128946   3.348   2.981   5.932 -0.0501  0.2674  0.6531
 2485TIP3    H228947   3.424   3.055   5.824  0.4275 -1.2767 -0.0743
 2486TIP3   OH228948   2.784   4.581  15.797  0.0773  0.2642  0.1272
 2486TIP3    H128949   2.716   4.525  15.836  1.0755 -1.4251 -0.4970
 2486TIP3    H228950   2.756   4.670  15.818 -1.6609 -0.4464  0.9849
 2487TIP3   OH228951   4.930   0.629   4.763 -0.0680 -0.0516 -0.8404
 2487TIP3    H128952   4.951   0.544   4.725  2.1914  0.6350 -1.2425
 2487TIP3    H228953   5.003   0.685   4.738 -0.3371  1.3960  1.3968
 2488TIP3   OH228954   2.201   2.322   1.827 -0.0596  0.4172  0.2420
 2488TIP3    H128955   2.217   2.248   1.886 -1.4163  1.0894  1.4918
 2488TIP3    H228956   2.157   2.283   1.751  1.5586 -0.4317 -0.2984
 2489TIP3   OH228957   2.994   5.738   2.822 -0.0546 -0.1996 -0.3330
 2489TIP3    H128958   2.936   5.683   2.875 -1.7095  0.9224 -0.9469
 2489TIP3    H228959   3.055   5.777   2.885  0.4191 -1.8188  0.2479
 2490TIP3   OH228960   5.508   2.304  11.293  0.3381  0.0656 -0.0879
 2490TIP3    H128961   5.540   2.276  11.207 -0.3410 -0.3039 -0.2276
 2490TIP3    H228962   5.535   2.234  11.352 -0.6609 -0.5062 -0.2971
 2491TIP3   OH228963   1.015   1.054   6.012 -0.2436  0.2283  0.4812
 2491TIP3    H128964   1.023   0.984   6.076  0.2542 -1.1062 -0.9978
 2491TIP3    H228965   1.076   1.121   6.041 -0.9578  0.1951  2.0869
 2492TIP3   OH228966   6.016   0.077   0.415  0.1053  0.3667  0.1546
 2492TIP3    H128967   5.933   0.031   0.403 -0.5989  1.4120  0.8682
 2492TIP3    H228968   6.028   0.125   0.332  0.0478  0.1367  0.0126
 2493TIP3   OH228969   0.722   2.537  10.680  1.0670  0.4096  0.4333
 2493TIP3    H128970   0.807   2.550  10.638  1.4377  0.5615  1.2220
 2493TIP3    H228971   0.658   2.559  10.612  1.6539 -0.0612 -0.2705
 2494TIP3   OH228972   0.593   3.041   0.387  0.2064  0.6309  0.3581
 2494TIP3    H128973   0.582   3.080   0.301  1.4103  3.7984  1.5879
 2494TIP3    H228974   0.615   3.114   0.445  0.5914 -1.5792  3.1375
 2495TIP3   OH228975   5.136   0.476   3.182  0.0400 -0.0536 -0.2680
 2495TIP3    H128976   5.230   0.493   3.177  0.1104 -0.6265 -0.9597
 2495TIP3    H228977   5.098   0.560   3.209  0.6347  0.4989 -1.1015
 2496TIP3   OH228978   4.679   1.222  16.906  0.0271 -0.2183 -0.3129
 2496TIP3    H128979   4.681   1.179  16.820  1.3066 -0.4518 -0.1855
 2496TIP3    H228980   4.594   1.198  16.943  0.3571 -1.9610 -0.6154
 2497TIP3   OH228981   5.603   3.209   3.760 -0.4047  0.3876 -0.7911
 2497TIP3    H128982   5.593   3.197   3.855  1.5897  1.8886 -0.3644
 2497TIP3    H228983   5.651   3.131   3.731 -0.6329  0.1398 -0.5072
 2498TIP3   OH228984   4.847   5.018  15.322 -0.2309  0.8794 -0.0437
 2498TIP3    H128985   4.809   5.030  15.408 -0.8354  0.1584 -0.2088
 2498TIP3    H228986   4.773   5.005  15.263  0.2670 -1.3756 -0.2307
 2499TIP3   OH228987   1.720   2.896  11.350 -0.0741  0.2958 -0.2022
 2499TIP3    H128988   1.720   2.962  11.419  0.7250  0.2000 -0.1083
 2499TIP3    H228989   1.674   2.822  11.388 -0.7163  0.6925 -0.2040
 2500TIP3   OH228990   5.659   3.456   0.956 -0.4696 -0.0788 -0.3528
 2500TIP3    H128991   5.647   3.545   0.988  2.9928  0.3270  0.0672
 2500TIP3    H228992   5.627   3.400   1.026  0.9141  0.8444  1.0438
 2501TIP3   OH228993   3.289   6.045   3.175 -0.2433 -0.3500 -0.2402
 2501TIP3    H128994   3.335   6.019   3.255 -0.6656 -0.8254 -0.1515
 2501TIP3    H228995   3.359   6.070   3.115  0.1752 -1.6295 -0.3084
 2502TIP3   OH228996   2.271   3.758   2.542  0.0223  0.0835  0.2248
 2502TIP3    H128997   2.290   3.762   2.448 -1.5217 -1.3161 -0.1674
 2502TIP3    H228998   2.308   3.839   2.577  2.3102 -0.2632 -1.2764
 2503TIP3   OH228999   4.683   0.764   1.001  0.1093 -0.3283  0.2588
 2503TIP3    H129000   4.734   0.693   0.963 -0.8197 -0.0003 -1.6475
 2503TIP3    H229001   4.742   0.840   0.997 -0.0736 -0.2349 -0.7894
 2504TIP3   OH229002   0.257   1.352   2.250  0.2221  0.4628 -0.3430
 2504TIP3    H129003   0.257   1.443   2.222 -0.3613  0.4063 -0.5328
 2504TIP3    H229004   0.176   1.316   2.214 -0.4671  0.3419  1.3145
 2505TIP3   OH229005   5.169   4.283   3.529 -0.0523 -0.5908 -0.4329
 2505TIP3    H129006   5.096   4.272   3.468  0.5090 -0.1983 -1.1765
 2505TIP3    H229007   5.246   4.253   3.481  0.2682 -1.0820  0.3827
 2506TIP3   OH229008   0.388   4.730   1.052  0.0281  0.5679 -0.6512
 2506TIP3    H129009   0.406   4.718   0.959 -1.0135 -0.2449 -0.7508
 2506TIP3    H229010   0.294   4.717   1.061  0.1287  0.5579  0.5255
 2507TIP3   OH229011   6.274   2.878   4.704  0.2652 -0.0408  0.4441
 2507TIP3    H129012   6.292   2.972   4.699 -0.3926  0.1342  1.1157
 2507TIP3    H229013   6.349   2.841   4.751  0.8916  0.0328 -0.5004
 2508TIP3   OH229014   4.602   5.315  12.320 -0.1280 -0.6074  0.0688
 2508TIP3    H129015   4.619   5.252  12.249 -0.5027  0.5300 -1.0588
 2508TIP3    H229016   4.527   5.365  12.290  0.7279  0.9839  0.5235
 2509TIP3   OH229017   3.080   5.848   4.059  0.1587  0.6122  0.1379
 2509TIP3    H129018   3.065   5.759   4.091  1.0067 -0.2920 -1.8175
 2509TIP3    H229019   2.994   5.879   4.031  0.2676 -0.6668 -1.6949
 2510TIP3   OH229020   6.054   5.590  15.920 -0.0402 -0.5424 -0.0519
 2510TIP3    H129021   5.960   5.582  15.937  0.1492 -0.1807  1.2204
 2510TIP3    H229022   6.091   5.507  15.951  0.4705  0.6165  2.6320
 2511TIP3   OH229023   6.633   6.558  15.205 -0.2405  0.2837  0.3201
 2511TIP3    H129024   6.578   6.562  15.127  0.0549 -1.5558  0.0054
 2511TIP3    H229025   6.722   6.572  15.173 -0.3715  2.1058  0.6815
 2512TIP3   OH229026   5.718   5.604  15.412 -0.1347  0.2212  0.9905
 2512TIP3    H129027   5.793   5.642  15.457  0.1364  0.6538  0.1937
 2512TIP3    H229028   5.657   5.677  15.401 -0.6966 -0.1408  1.6828
 2513TIP3   OH229029   1.430   2.015   4.240  0.0046  0.2279 -0.1570
 2513TIP3    H129030   1.522   1.995   4.254 -0.1773 -0.3160  0.3308
 2513TIP3    H229031   1.388   1.992   4.324 -0.3006  2.1887  0.2407
 2514TIP3   OH229032   4.069   5.348   2.128  0.6108  0.0715 -0.1521
 2514TIP3    H129033   3.974   5.353   2.117  0.7519  2.4307 -0.4913
 2514TIP3    H229034   4.082   5.290   2.203 -1.0097 -1.8359 -1.2849
 2515TIP3   OH229035   5.797   6.504   1.401  0.1547 -0.4402  0.6642
 2515TIP3    H129036   5.820   6.589   1.363 -0.0160  0.3078  2.1699
 2515TIP3    H229037   5.722   6.474   1.349  0.1523  0.3730  0.1837
 2516TIP3   OH229038   2.725   6.043   2.062  0.1304  0.0756 -0.0878
 2516TIP3    H129039   2.806   6.090   2.084 -0.2833  0.2041  1.2120
 2516TIP3    H229040   2.737   5.955   2.097  0.2672 -0.3321 -1.1370
 2517TIP3   OH229041   5.550   5.722   1.126  0.2999  0.5197  0.8567
 2517TIP3    H129042   5.507   5.777   1.192  0.7209 -0.4222  1.9256
 2517TIP3    H229043   5.577   5.644   1.174  0.7736 -0.0966 -0.4033
 2518TIP3   OH229044   1.236   0.261   3.768  0.3380 -0.0396 -0.3991
 2518TIP3    H129045   1.248   0.222   3.682  4.7231  0.5518 -0.1603
 2518TIP3    H229046   1.276   0.347   3.761 -0.5213  0.5733  1.8468
 2519TIP3   OH229047   3.346   5.817   1.452 -0.1706  0.2882  0.4042
 2519TIP3    H129048   3.402   5.744   1.428  0.7835 -0.0514  3.3756
 2519TIP3    H229049   3.267   5.805   1.401  0.9834 -1.3686 -1.0479
 2520TIP3   OH229050   4.795   1.004   0.878 -0.6504 -0.6086 -0.3973
 2520TIP3    H129051   4.787   1.074   0.943 -0.1762 -0.2807 -0.6885
 2520TIP3    H229052   4.743   1.033   0.803 -0.6120 -0.6562 -0.4432
 2521TIP3   OH229053   3.191   1.817  15.528  0.0525  0.5927 -0.6139
 2521TIP3    H129054   3.105   1.838  15.563  0.3496  0.8303 -0.0288
 2521TIP3    H229055   3.173   1.753  15.458 -0.5054 -0.0800  0.1349
 2522TIP3   OH229056   4.873   4.751   3.786  0.6284 -0.4281 -0.6919
 2522TIP3    H129057   4.798   4.700   3.756  1.0411 -2.0628  0.9567
 2522TIP3    H229058   4.921   4.774   3.707 -1.2489  0.0755 -1.7085
 2523TIP3   OH229059   6.768   3.562   6.315 -0.0536 -0.1639  0.5982
 2523TIP3    H129060   6.835   3.628   6.333 -0.6533  0.3753  0.8631
 2523TIP3    H229061   6.809   3.503   6.252  0.8084 -0.0652  1.0672
 2524TIP3   OH229062   1.386   2.895   4.285  0.3528  0.3932 -0.1200
 2524TIP3    H129063   1.388   2.990   4.272  0.6072  0.2444 -1.1771
 2524TIP3    H229064   1.446   2.880   4.358  2.1529  0.7961 -1.4916
 2525TIP3   OH229065   0.842   4.410  11.634  0.5114 -0.1787  0.2622
 2525TIP3    H129066   0.801   4.328  11.608  0.3473 -0.3961  1.1934
 2525TIP3    H229067   0.788   4.443  11.705  1.4219 -0.0277  0.9050
 2526TIP3   OH229068   3.940   2.759   1.253 -0.0333  0.1890 -0.5966
 2526TIP3    H129069   3.996   2.791   1.324  1.1128  0.8195 -1.7526
 2526TIP3    H229070   3.925   2.836   1.198  0.4788 -0.6445 -1.9296
 2527TIP3   OH229071   2.297   0.526   3.129  0.3183 -0.1445 -0.1840
 2527TIP3    H129072   2.350   0.563   3.058  0.4015  0.7302  0.3276
 2527TIP3    H229073   2.211   0.511   3.090  0.4443  0.0750 -0.5469
 2528TIP3   OH229074   2.738   0.467  16.658  0.0248 -0.0627 -0.0913
 2528TIP3    H129075   2.793   0.542  16.636 -1.0214  1.0614  1.0276
 2528TIP3    H229076   2.661   0.477  16.602  1.2669 -2.0612 -2.2158
 2529TIP3   OH229077   1.932   5.415   3.630 -0.1523  0.5717 -0.0696
 2529TIP3    H129078   1.980   5.380   3.706 -1.4260  0.5065  0.7212
 2529TIP3    H229079   1.840   5.403   3.653 -0.5408 -0.3053 -2.0478
 2530TIP3   OH229080   6.626   3.367   0.374  0.0269  0.1906  0.5651
 2530TIP3    H129081   6.547   3.420   0.362  0.6826  0.7229 -1.5238
 2530TIP3    H229082   6.593   3.280   0.396 -1.1380  0.4085 -0.2864
 2531TIP3   OH229083   0.281   3.016   5.570 -0.0983 -0.6881 -0.2129
 2531TIP3    H129084   0.218   2.945   5.584 -2.3290  1.3706  0.4806
 2531TIP3    H229085   0.354   2.974   5.525 -3.1986 -2.5869 -3.7009
 2532TIP3   OH229086   0.079   1.284   1.043 -0.7247 -0.5716 -0.1588
 2532TIP3    H129087   0.033   1.348   1.097 -2.1947 -0.1441 -1.8726
 2532TIP3    H229088   0.146   1.247   1.100 -0.8237  1.4481  1.2784
 2533TIP3   OH229089   4.126   3.627   3.939 -0.0046  0.1810  0.1195
 2533TIP3    H129090   4.213   3.606   3.974  0.9241  0.0220 -2.1858
 2533TIP3    H229091   4.077   3.660   4.014  1.4011 -1.6505  1.8903
 2534TIP3   OH229092   3.099   1.771   4.240 -0.3533 -0.0192  0.3424
 2534TIP3    H129093   3.164   1.814   4.296  0.9061  0.2161 -1.2614
 2534TIP3    H229094   3.046   1.720   4.301  1.8841 -0.9297  1.6174
 2535TIP3   OH229095   4.180   2.120   4.274 -0.4795 -0.4270  0.6424
 2535TIP3    H129096   4.196   2.135   4.181 -1.0065  0.2287  0.6541
 2535TIP3    H229097   4.267   2.112   4.312 -0.2708 -1.6313 -0.0520
 2536TIP3   OH229098   6.518   0.806   0.499  0.6334 -0.1978 -0.1465
 2536TIP3    H129099   6.476   0.805   0.413  0.3670 -1.0944 -0.0135
 2536TIP3    H229100   6.601   0.850   0.485  0.9714 -1.1156 -1.0536
 2537TIP3   OH229101   4.351   1.384   5.224 -0.0772  0.5560  0.4983
 2537TIP3    H129102   4.378   1.293   5.235  0.3014  0.3910 -1.6741
 2537TIP3    H229103   4.264   1.388   5.264 -0.1552 -0.7948  0.4880
 2538TIP3   OH229104   3.149   0.561   1.347  0.5584  0.4501 -0.1098
 2538TIP3    H129105   3.209   0.634   1.362  1.3197 -0.2294  0.1915
 2538TIP3    H229106   3.201   0.497   1.298 -0.2303  0.2941 -0.7363
 2539TIP3   OH229107   3.980   0.107   0.673 -0.1563  0.6238 -0.2259
 2539TIP3    H129108   3.955   0.056   0.750  2.5226  1.4921  1.2893
 2539TIP3    H229109   3.979   0.197   0.703  0.1390  1.0321 -1.4267
 2540TIP3   OH229110   2.900   3.509   2.778 -0.2284 -0.1001 -0.1064
 2540TIP3    H129111   2.983   3.521   2.732  0.1743 -0.2968  0.5548
 2540TIP3    H229112   2.846   3.582   2.750  0.4724  0.5029  0.1007
 2541TIP3   OH229113   6.140   3.334   4.841  0.2116 -0.5402 -0.6747
 2541TIP3    H129114   6.199   3.348   4.915  0.8792  0.0398 -1.3303
 2541TIP3    H229115   6.066   3.392   4.858  0.2278 -0.6216 -0.3168
 2542TIP3   OH229116   2.001   0.396  13.955  0.2210 -0.2948  0.2754
 2542TIP3    H129117   1.944   0.357  14.022 -0.2909 -0.5663 -0.3125
 2542TIP3    H229118   1.984   0.344  13.876 -0.8715  1.4586 -0.6768
 2543TIP3   OH229119   3.369   5.772   0.065 -0.2131  0.8233 -1.0882
 2543TIP3    H129120   3.333   5.762   0.153  1.0324  1.4483 -0.4885
 2543TIP3    H229121   3.450   5.821   0.078  0.9761 -0.7247 -2.3456
 2544TIP3   OH229122   5.538   5.795   3.068 -0.1703 -0.1119 -0.9923
 2544TIP3    H129123   5.465   5.843   3.105  0.9806  0.3053  0.8072
 2544TIP3    H229124   5.569   5.739   3.140  1.0276 -0.5482 -1.8321
 2545TIP3   OH229125   1.355   0.901  16.119  0.1011 -0.0837  0.2211
 2545TIP3    H129126   1.340   0.956  16.042  3.5404 -0.7527 -1.0396
 2545TIP3    H229127   1.369   0.964  16.190  0.7176  0.6189 -0.5097
 2546TIP3   OH229128   1.793   2.736  13.706  0.0592 -0.0842 -0.6254
 2546TIP3    H129129   1.825   2.726  13.795 -0.5429 -0.4135 -0.4448
 2546TIP3    H229130   1.739   2.658  13.691 -1.2831  0.8494 -0.6582
 2547TIP3   OH229131   0.480   4.934   2.032 -0.1265 -0.0527  0.4562
 2547TIP3    H129132   0.470   4.922   1.938 -0.5962  1.4235  0.3049
 2547TIP3    H229133   0.569   4.903   2.051  0.9466  2.0701 -0.9066
 2548TIP3   OH229134   2.371   6.024   0.581 -0.3439  0.3528  0.3741
 2548TIP3    H129135   2.339   6.110   0.610 -1.9324 -0.1164  0.0959
 2548TIP3    H229136   2.367   6.029   0.485 -0.6868 -0.1215  0.3627
 2549TIP3   OH229137   2.737   2.327   1.418 -0.0731 -0.4609  0.4554
 2549TIP3    H129138   2.828   2.326   1.388 -0.5463 -0.8364 -1.0300
 2549TIP3    H229139   2.702   2.410   1.387 -0.4216 -0.6067  0.4572
 2550TIP3   OH229140   1.162   2.096   0.310 -0.2757  0.2074 -0.3532
 2550TIP3    H129141   1.194   2.079   0.398  0.5800  1.2056 -0.4636
 2550TIP3    H229142   1.086   2.153   0.321 -1.0516 -0.8454 -0.1856
 2551TIP3   OH229143   0.466   6.776   4.058  0.2352  0.2401 -0.0709
 2551TIP3    H129144   0.527   6.832   4.106  0.1419 -0.6076  1.0590
 2551TIP3    H229145   0.433   6.714   4.124 -3.6705  2.1622 -0.0852
 2552TIP3   OH229146   3.022   1.763   2.436 -0.3167 -0.5791  0.4349
 2552TIP3    H129147   2.998   1.672   2.450 -2.5335 -0.2479 -0.9194
 2552TIP3    H229148   3.054   1.766   2.345 -0.9528  0.1079  0.2255
 2553TIP3   OH229149   3.048   1.336  16.302  0.5739  0.3982 -0.0513
 2553TIP3    H129150   2.965   1.345  16.349  0.2089  1.0734 -0.8069
 2553TIP3    H229151   3.115   1.347  16.369  0.0720  2.0512  0.2059
 2554TIP3   OH229152   2.411   0.285   0.480 -0.2746 -0.7183  0.4530
 2554TIP3    H129153   2.411   0.214   0.544 -0.7198 -0.6830  0.4918
 2554TIP3    H229154   2.356   0.253   0.409 -0.0116 -0.6425  0.2140
 2555TIP3   OH229155   1.304   5.986  16.216  0.1474  0.7905  0.5368
 2555TIP3    H129156   1.365   5.969  16.144 -0.9791  0.6324 -0.3956
 2555TIP3    H229157   1.254   5.905  16.226  0.0859  0.9130  1.2911
 2556TIP3   OH229158   5.551   5.391   6.092 -0.1459  0.5933 -0.3104
 2556TIP3    H129159   5.466   5.435   6.093 -0.1679  0.6320 -1.8273
 2556TIP3    H229160   5.606   5.443   6.151 -1.1130  0.6984  0.5031
 2557TIP3   OH229161   3.249   0.991  12.052  0.3736 -0.5701  0.0604
 2557TIP3    H129162   3.287   1.053  11.990 -0.2267 -1.8171 -1.6030
 2557TIP3    H229163   3.268   1.028  12.138 -0.6536  2.3366 -0.8846
 2558TIP3   OH229164   2.664   5.216   2.483 -0.3400  0.1981  0.5762
 2558TIP3    H129165   2.725   5.288   2.499  0.9378 -0.2894 -1.9389
 2558TIP3    H229166   2.691   5.147   2.543  0.4227  0.6643  0.7690
 2559TIP3   OH229167   1.588   4.594   0.929  0.1680 -0.7535  0.4605
 2559TIP3    H129168   1.510   4.540   0.938 -0.2109 -0.5451 -1.4081
 2559TIP3    H229169   1.581   4.632   0.841  1.5330  0.5800  0.9158
 2560TIP3   OH229170   6.104   5.394   1.964 -0.1463  0.3015  0.6657
 2560TIP3    H129171   6.074   5.376   2.053 -0.0023  0.2761  0.7107
 2560TIP3    H229172   6.095   5.489   1.954 -0.0018  0.3276  0.7694
 2561TIP3   OH229173   5.829   0.110   0.752  0.0976 -0.0207 -0.1330
 2561TIP3    H129174   5.759   0.067   0.802  0.9658 -0.8577  0.3843
 2561TIP3    H229175   5.790   0.192   0.722 -1.1211 -0.4962  0.1123
 2562TIP3   OH229176   4.148   5.940   1.403 -0.2019  0.3456 -0.1230
 2562TIP3    H129177   4.095   6.014   1.373 -1.6945 -0.6129  0.0816
 2562TIP3    H229178   4.101   5.907   1.480  1.3686  0.2275  0.7963
 2563TIP3   OH229179   0.868   2.370  15.078  0.3552 -0.1029  0.1820
 2563TIP3    H129180   0.779   2.405  15.089 -0.7085 -2.8715  0.9781
 2563TIP3    H229181   0.924   2.430  15.127 -0.6662  3.1846 -2.5049
 2564TIP3   OH229182   5.321   2.534  12.154  0.4656 -0.4099 -0.5244
 2564TIP3    H129183   5.256   2.495  12.096  0.8659 -1.7564 -0.1082
 2564TIP3    H229184   5.386   2.464  12.167  0.9837  0.2610  0.5963
 2565TIP3   OH229185   4.364   0.249   2.891 -0.2489 -0.2000 -0.2245
 2565TIP3    H129186   4.344   0.328   2.842 -1.6038 -0.6411 -0.3825
 2565TIP3    H229187   4.446   0.270   2.937 -0.0442  0.9103 -1.0840
 2566TIP3   OH229188   4.526   1.143  17.119 -0.7541  0.0149  0.6543
 2566TIP3    H129189   4.584   1.216  17.142 -0.7837  0.4685 -0.7039
 2566TIP3    H229190   4.504   1.103  17.204  0.3096  0.7751  1.3045
 2567TIP3   OH229191   5.522   0.357   3.452  0.0217  0.2073  0.7815
 2567TIP3    H129192   5.556   0.422   3.513 -0.8473  1.1334  0.2798
 2567TIP3    H229193   5.432   0.341   3.482 -0.9663  1.8548 -1.1907
 2568TIP3   OH229194   2.242   2.948  11.679  0.1443 -0.2042 -0.0968
 2568TIP3    H129195   2.164   2.896  11.698  1.4401 -2.5074 -0.9508
 2568TIP3    H229196   2.243   2.956  11.583  1.4617 -1.0407 -0.1720
 2569TIP3   OH229197   3.425   0.419   3.500  0.1349  0.1460 -0.1882
 2569TIP3    H129198   3.511   0.437   3.537 -0.0296  0.7843 -0.1167
 2569TIP3    H229199   3.373   0.496   3.520 -0.8818 -0.8371  1.0265
 2570TIP3   OH229200   1.248   2.800  10.683  0.2909  0.0141 -0.1827
 2570TIP3    H129201   1.247   2.745  10.604 -1.8487 -0.2706 -0.0033
 2570TIP3    H229202   1.223   2.887  10.652  0.2131  0.0799  0.0641
 2571TIP3   OH229203   3.678   6.658  14.912  0.0275  0.6080 -0.0672
 2571TIP3    H129204   3.711   6.579  14.954  1.3635  0.4998 -1.2962
 2571TIP3    H229205   3.717   6.657  14.824 -1.3231  1.7314 -0.6961
 2572TIP3   OH229206   5.992   4.685  13.903  0.0252 -0.4944  0.3157
 2572TIP3    H129207   5.937   4.680  13.824  0.1450 -1.0874  0.2664
 2572TIP3    H229208   5.942   4.741  13.963 -0.1414 -0.1663 -0.1205
 2573TIP3   OH229209   2.097   4.155   2.592  0.4930 -0.0530  0.3761
 2573TIP3    H129210   2.104   4.249   2.610 -0.2902  0.1853 -0.5286
 2573TIP3    H229211   2.116   4.113   2.676  1.3724  0.8948  0.6664
 2574TIP3   OH229212   1.745   2.991  17.237 -0.1236 -0.1497  0.3406
 2574TIP3    H129213   1.797   3.068  17.258 -1.2416  0.8139 -0.4133
 2574TIP3    H229214   1.785   2.955  17.158 -0.8957  0.8715 -0.5241
 2575TIP3   OH229215   6.193   3.896   3.906  0.4638  0.0971  0.2291
 2575TIP3    H129216   6.153   3.869   3.989 -0.1506  2.0534  0.5898
 2575TIP3    H229217   6.288   3.888   3.922  0.3136 -1.7104  0.3455
 2576TIP3   OH229218   0.707   6.027  16.538 -0.6068 -0.1769  0.1104
 2576TIP3    H129219   0.647   6.015  16.612 -0.1546  3.1674  1.1054
 2576TIP3    H229220   0.711   6.122  16.526  1.7879 -0.5235 -2.1965
 2577TIP3   OH229221   6.220   3.334  14.743 -0.4282  0.0526  0.2191
 2577TIP3    H129222   6.129   3.319  14.718 -0.9394  1.6880  1.1175
 2577TIP3    H229223   6.220   3.416  14.790  1.5957  0.3033 -0.1565
 2578TIP3   OH229224   1.297   6.079  13.872  0.0002  0.1094  0.2275
 2578TIP3    H129225   1.369   6.140  13.861  1.5013 -1.5969  0.2774
 2578TIP3    H229226   1.243   6.091  13.794  0.9700  0.6217 -0.3780
 2579TIP3   OH229227   3.647   5.636  16.212 -0.8230 -0.0559 -0.4563
 2579TIP3    H129228   3.563   5.671  16.182 -1.9782  0.5454  3.2674
 2579TIP3    H229229   3.710   5.706  16.196 -1.7721  0.9650  0.2766
 2580TIP3   OH229230   3.566   5.862   6.289  0.2294  0.0621 -0.2444
 2580TIP3    H129231   3.644   5.807   6.277 -0.3246 -0.7613 -0.0840
 2580TIP3    H229232   3.589   5.920   6.362  0.9986  0.3772 -0.7292
 2581TIP3   OH229233   2.917   6.294   4.058  0.4256  0.0838 -0.8141
 2581TIP3    H129234   2.929   6.282   3.963 -0.6681 -3.7013 -0.5699
 2581TIP3    H229235   3.003   6.275   4.095  0.0759 -1.8061 -0.8782
 2582TIP3   OH229236   4.690   6.156  12.872  0.5673 -0.0603  0.2190
 2582TIP3    H129237   4.741   6.080  12.901  0.0853  0.1889  1.7361
 2582TIP3    H229238   4.681   6.210  12.950 -0.1944  0.9379 -0.5553
 2583TIP3   OH229239   4.058   3.676   0.467 -0.3792  0.2305 -0.3344
 2583TIP3    H129240   4.024   3.623   0.539 -0.6423  0.0985 -0.5521
 2583TIP3    H229241   4.082   3.611   0.400  1.4438  0.2409  0.2960
 2584TIP3   OH229242   1.819   0.079   3.171 -0.4900 -0.2224  0.1662
 2584TIP3    H129243   1.741   0.092   3.116 -0.4400 -0.6257 -0.0012
 2584TIP3    H229244   1.847  -0.010   3.152 -0.1448 -0.1717  0.4336
 2585TIP3   OH229245   0.638   0.742   3.465  0.2856  0.1251  0.4777
 2585TIP3    H129246   0.654   0.668   3.406 -1.6358  0.9954 -1.2243
 2585TIP3    H229247   0.583   0.705   3.534  1.2057 -0.5477  0.8502
 2586TIP3   OH229248   4.963   4.305   0.146  0.0893 -0.2471 -0.9426
 2586TIP3    H129249   5.035   4.358   0.112  0.1896 -1.4274 -2.6592
 2586TIP3    H229250   4.990   4.280   0.234  0.4908  1.6646 -0.4989
 2587TIP3   OH229251   5.444   5.982  10.696 -0.1728 -0.0224  0.6729
 2587TIP3    H129252   5.501   6.023  10.761 -0.3016  0.9189  0.2016
 2587TIP3    H229253   5.412   5.903  10.739  1.2639 -0.4156  1.0443
 2588TIP3   OH229254   3.217   1.383  11.697  0.2820 -0.3706  0.7993
 2588TIP3    H129255   3.168   1.437  11.758 -0.7688 -0.2192 -0.1574
 2588TIP3    H229256   3.228   1.438  11.620  0.6174 -0.9448  0.4366
 2589TIP3   OH229257   1.082   3.704  12.756  0.1427  0.6096 -0.6830
 2589TIP3    H129258   1.015   3.657  12.705  0.3569  1.0391 -1.3614
 2589TIP3    H229259   1.035   3.739  12.831  0.1380 -1.4479  0.3118
 2590TIP3   OH229260   4.495   6.245   6.639  0.0752  0.0767 -0.2526
 2590TIP3    H129261   4.430   6.196   6.587 -0.1898 -0.4680  0.5849
 2590TIP3    H229262   4.457   6.332   6.649 -0.4826 -0.2069  0.1361
 2591TIP3   OH229263   2.148   4.593   2.902 -0.3982  0.0532 -0.2278
 2591TIP3    H129264   2.060   4.567   2.929  0.0236  0.2755  1.4505
 2591TIP3    H229265   2.135   4.659   2.835 -1.5055 -0.7359 -0.7965
 2592TIP3   OH229266   0.134   6.224   3.910 -0.5727 -0.5228  0.2498
 2592TIP3    H129267   0.143   6.158   3.841  1.2508 -1.3169  1.1925
 2592TIP3    H229268   0.110   6.173   3.988 -1.9558  0.2839  0.3677
 2593TIP3   OH229269   2.373   2.696  13.752 -0.1819 -0.2320  0.2954
 2593TIP3    H129270   2.447   2.691  13.813 -0.3164  0.9531  0.5718
 2593TIP3    H229271   2.335   2.783  13.768 -1.2491 -0.5851 -0.2900
 2594TIP3   OH229272   0.958   4.474  14.274 -0.6797  0.0249 -0.6278
 2594TIP3    H129273   1.052   4.490  14.265 -0.3465 -0.9254  0.9029
 2594TIP3    H229274   0.928   4.545  14.330 -0.9903  0.6531 -1.5836
 2595TIP3   OH229275   3.111   0.758  12.158 -0.1851 -0.4277 -0.0503
 2595TIP3    H129276   3.144   0.845  12.137  2.6471 -1.4893 -0.2578
 2595TIP3    H229277   3.022   0.758  12.124  0.2121  1.9450 -1.2495
 2596TIP3   OH229278   1.521   3.396  14.973 -0.1826  0.4316  0.0221
 2596TIP3    H129279   1.596   3.345  14.942  0.6916  0.6959  1.6495
 2596TIP3    H229280   1.445   3.343  14.951  0.5229 -0.1667 -1.0144
 2597TIP3   OH229281   1.562   6.780   3.088 -0.2527 -0.1616  0.6438
 2597TIP3    H129282   1.606   6.721   3.026  0.8078  0.8225  0.4604
 2597TIP3    H229283   1.468   6.763   3.074  0.0136 -0.8852 -0.3088
 2598TIP3   OH229284   4.610   6.116  13.563  0.3695  0.0374 -0.6427
 2598TIP3    H129285   4.637   6.204  13.589 -0.2873 -0.3208  1.3634
 2598TIP3    H229286   4.596   6.122  13.469 -1.0166  2.4388 -0.3265
 2599TIP3   OH229287   4.380   1.743   1.978 -0.4365 -0.1907  0.2011
 2599TIP3    H129288   4.329   1.823   1.965  1.6463  1.7044  3.2925
 2599TIP3    H229289   4.316   1.679   2.010 -1.6162  1.0092  0.2616
 2600TIP3   OH229290   4.816   5.714  16.816 -0.0044  0.2656  0.2274
 2600TIP3    H129291   4.862   5.715  16.900 -0.9238 -2.5260  0.8428
 2600TIP3    H229292   4.826   5.624  16.785 -3.5093  0.0406 -0.4711
 2601TIP3   OH229293   6.358   2.262  11.832  0.0022  0.1726  0.0151
 2601TIP3    H129294   6.374   2.300  11.918 -0.7763 -0.5386  0.4789
 2601TIP3    H229295   6.393   2.173  11.839 -1.9195 -0.5752  0.2542
 2602TIP3   OH229296   3.696   3.948   2.391 -0.4808 -0.0568  0.0003
 2602TIP3    H129297   3.675   4.011   2.461  1.4203  1.8895 -1.1229
 2602TIP3    H229298   3.792   3.947   2.388 -0.5381 -0.5382 -2.2183
 2603TIP3   OH229299   5.700   6.070  11.592  0.3829  0.1383  0.1215
 2603TIP3    H129300   5.652   6.074  11.509 -0.0691 -1.8789  0.2601
 2603TIP3    H229301   5.634   6.088  11.659 -0.2817 -2.7805  0.3228
 2604TIP3   OH229302   4.369   3.323   3.023  0.5886  0.5968  0.1615
 2604TIP3    H129303   4.328   3.259   3.082  0.3556 -0.6985 -1.3677
 2604TIP3    H229304   4.455   3.340   3.062  0.7115 -0.7492  0.5050
 2605TIP3   OH229305   2.975   4.852   2.342  0.0634  0.6971 -0.1953
 2605TIP3    H129306   2.945   4.797   2.270 -0.2990 -0.5494  0.8969
 2605TIP3    H229307   2.937   4.938   2.323 -0.0683  0.3769 -1.4589
 2606TIP3   OH229308   3.961   0.447   3.256  0.2986  0.5001  0.1166
 2606TIP3    H129309   3.922   0.400   3.330  2.4335  0.2547  1.1219
 2606TIP3    H229310   3.887   0.488   3.212 -1.1885 -0.6885  1.4427
 2607TIP3   OH229311   3.182   2.684   1.746 -0.1652  0.1221 -0.3919
 2607TIP3    H129312   3.148   2.749   1.685  3.0030  1.7378 -0.5278
 2607TIP3    H229313   3.198   2.607   1.692  0.4789  0.7836 -1.1392
 2608TIP3   OH229314   5.583   2.548   1.037  0.0911 -0.7302 -0.2654
 2608TIP3    H129315   5.493   2.523   1.019  0.4237 -1.8527 -0.4043
 2608TIP3    H229316   5.599   2.521   1.128  0.1903 -0.2530 -0.1377
 2609TIP3   OH229317   5.252   2.822   1.506 -0.2703  0.5602 -0.1220
 2609TIP3    H129318   5.324   2.774   1.465 -0.6498 -0.5929  0.5388
 2609TIP3    H229319   5.181   2.758   1.514 -0.3239  0.8454  2.0144
 2610TIP3   OH229320   3.008   4.419  14.971 -0.3334  0.1257 -0.2156
 2610TIP3    H129321   2.995   4.331  15.004 -3.0831  0.4100 -0.3837
 2610TIP3    H229322   3.039   4.469  15.046 -1.2240 -0.4489  0.5491
 2611TIP3   OH229323   6.322   0.686   4.587 -0.3708  0.1133 -0.1770
 2611TIP3    H129324   6.314   0.775   4.550 -0.1891  0.4305  0.5450
 2611TIP3    H229325   6.330   0.700   4.681 -2.3348 -0.7796  0.1335
 2612TIP3   OH229326   4.195   2.792  16.475  0.3891  0.2377 -0.0054
 2612TIP3    H129327   4.107   2.755  16.486  0.3263 -0.2126 -1.8186
 2612TIP3    H229328   4.187   2.850  16.400  1.6024  0.3381 -0.0623
 2613TIP3   OH229329   4.997   3.283   2.322 -0.2181 -0.0089 -0.0227
 2613TIP3    H129330   5.004   3.251   2.412  0.2165 -1.3979 -0.5242
 2613TIP3    H229331   4.998   3.378   2.330 -1.0827 -0.1134  1.5028
 2614TIP3   OH229332   6.664   3.030   4.904  0.1499  0.0090 -0.5263
 2614TIP3    H129333   6.610   2.959   4.868  0.0570  0.2928 -0.9527
 2614TIP3    H229334   6.618   3.057   4.983  1.4069 -1.9697  0.9236
 2615TIP3   OH229335   5.449   3.327   1.479  0.3677 -0.3039  0.6477
 2615TIP3    H129336   5.448   3.365   1.567 -1.0679  1.1122  0.0529
 2615TIP3    H229337   5.359   3.338   1.447  0.8493 -0.8892 -0.9568
 2616TIP3   OH229338   2.972   1.627   5.942  0.1241  0.0606  0.4235
 2616TIP3    H129339   2.881   1.607   5.960  0.1004  0.2573  0.5266
 2616TIP3    H229340   3.021   1.582   6.012  0.0257  0.9073  1.0399
 2617TIP3   OH229341   0.611   4.246   1.014  0.4297  0.0108  0.0385
 2617TIP3    H129342   0.632   4.292   1.095  1.5904 -0.7488  0.1781
 2617TIP3    H229343   0.639   4.156   1.029 -1.2144 -0.6001 -0.4847
 2618TIP3   OH229344   3.473   4.125  13.293  0.2383 -0.4081 -0.2542
 2618TIP3    H129345   3.490   4.140  13.200  1.4555  0.6873  0.1231
 2618TIP3    H229346   3.530   4.187  13.338 -0.8291 -0.4699  1.2171
 2619TIP3   OH229347   3.750   3.964  15.154 -0.3198 -0.0951  0.2547
 2619TIP3    H129348   3.777   3.914  15.231 -0.7079 -1.7393 -0.6654
 2619TIP3    H229349   3.674   4.015  15.184 -2.0222 -2.5925  0.3351
 2620TIP3   OH229350   3.954   0.868  13.125 -0.5550  0.0228  0.0748
 2620TIP3    H129351   3.919   0.847  13.038  0.6582 -1.4195 -0.0927
 2620TIP3    H229352   3.940   0.962  13.134  0.3420  0.4218 -2.1719
 2621TIP3   OH229353   4.672   5.452  15.777  0.5141  0.1196 -0.1220
 2621TIP3    H129354   4.649   5.421  15.690  1.3385  0.7213 -0.5620
 2621TIP3    H229355   4.695   5.373  15.826  0.0614 -0.2145 -0.4506
 2622TIP3   OH229356   4.485   4.955  14.766  0.3544  0.0344  0.2679
 2622TIP3    H129357   4.460   5.041  14.735 -0.6146  0.7543  2.8933
 2622TIP3    H229358   4.414   4.897  14.738 -0.2540  0.5777  0.6705
 2623TIP3   OH229359   3.900   1.534  14.271  0.1621  0.3247 -0.3615
 2623TIP3    H129360   3.959   1.610  14.271  1.5111 -0.6872  0.5802
 2623TIP3    H229361   3.956   1.462  14.242 -0.6617 -0.6309  0.4313
 2624TIP3   OH229362   1.147   4.502   5.336 -0.1137  0.0306 -0.0920
 2624TIP3    H129363   1.233   4.536   5.364 -0.1715 -1.0535  1.4478
 2624TIP3    H229364   1.089   4.520   5.410 -0.8962 -0.5002 -0.5709
 2625TIP3   OH229365   0.880   1.770   2.197  0.0268  0.5423  0.2002
 2625TIP3    H129366   0.946   1.817   2.248  0.9717  0.8167 -1.2637
 2625TIP3    H229367   0.890   1.678   2.223  2.9455  0.1463 -2.0899
 2626TIP3   OH229368   0.590   2.802  16.739 -0.5070  0.0002 -0.5828
 2626TIP3    H129369   0.502   2.766  16.741 -0.7000  0.0886 -4.7161
 2626TIP3    H229370   0.579   2.895  16.758 -1.2161 -0.0945 -0.5401
 2627TIP3   OH229371   4.901   5.587   5.440 -0.0860  0.1177  0.2841
 2627TIP3    H129372   4.947   5.614   5.360  0.5476 -1.3942  0.1258
 2627TIP3    H229373   4.950   5.630   5.510 -1.4002  2.4751 -0.1927
 2628TIP3   OH229374   6.435   3.265   3.813 -0.1188 -0.0841 -0.6154
 2628TIP3    H129375   6.457   3.174   3.829  0.1270 -0.0963 -1.0054
 2628TIP3    H229376   6.389   3.264   3.729  1.0356  0.3096 -1.2582
 2629TIP3   OH229377   5.331   5.254  11.424 -0.0988  0.4030  0.0866
 2629TIP3    H129378   5.345   5.261  11.519 -2.7845 -0.2649  0.5762
 2629TIP3    H229379   5.320   5.161  11.408 -4.8741  0.8102  0.0412
 2630TIP3   OH229380   6.649   0.881   2.524  0.0578  0.3972  0.1639
 2630TIP3    H129381   6.741   0.909   2.530  0.0478  0.0226  2.2469
 2630TIP3    H229382   6.599   0.963   2.526  0.3095  0.5656 -0.3421
 2631TIP3   OH229383   3.818   4.367  16.078 -1.0289  0.3669  0.0676
 2631TIP3    H129384   3.880   4.420  16.129 -1.6653  0.7644  0.4293
 2631TIP3    H229385   3.812   4.285  16.127  0.1828 -0.1673 -0.6485
 2632TIP3   OH229386   4.358   3.604   2.795 -0.4003 -0.0970  0.5098
 2632TIP3    H129387   4.333   3.605   2.887 -0.3234 -2.3583  0.5876
 2632TIP3    H229388   4.277   3.625   2.748 -0.4714  0.9312  1.0754
 2633TIP3   OH229389   0.989   6.287  14.783  0.2393  0.3315 -0.0706
 2633TIP3    H129390   1.029   6.370  14.808  1.7416 -0.7799  1.3292
 2633TIP3    H229391   1.060   6.239  14.739  0.6777 -1.8589  2.8830
 2634TIP3   OH229392   1.378   3.382  15.530  0.1135  0.0137  0.4147
 2634TIP3    H129393   1.439   3.316  15.562 -0.2271 -0.1819  0.6693
 2634TIP3    H229394   1.432   3.458  15.510  0.4657 -0.2358  0.4242
 2635TIP3   OH229395   3.839   5.624  14.344  0.1382 -0.0508  0.0546
 2635TIP3    H129396   3.931   5.607  14.322  0.3026 -0.8544  1.3157
 2635TIP3    H229397   3.840   5.708  14.389  0.2073  0.1015 -0.2299
 2636TIP3   OH229398   2.949   0.429   3.860  0.1085 -0.0779  0.1896
 2636TIP3    H129399   2.877   0.475   3.902  0.7129  1.3548 -0.3426
 2636TIP3    H229400   2.956   0.468   3.773 -0.0916 -1.9224 -0.6981
 2637TIP3   OH229401   5.446   0.091  13.316 -0.4365 -0.5962 -0.4759
 2637TIP3    H129402   5.406   0.074  13.231 -0.9352 -1.9267 -0.0008
 2637TIP3    H229403   5.373   0.086  13.378  0.0737 -0.6001  0.1363
 2638TIP3   OH229404   4.928   1.382   3.531 -0.2409  0.4842  0.0271
 2638TIP3    H129405   4.859   1.339   3.481  0.4277 -1.7359  0.9108
 2638TIP3    H229406   4.902   1.371   3.622  1.4466 -0.7844  0.3950
 2639TIP3   OH229407   2.700   1.630   2.121  0.1621 -0.1069  0.3286
 2639TIP3    H129408   2.784   1.585   2.120  0.5922  0.7167 -1.6947
 2639TIP3    H229409   2.696   1.676   2.038 -1.5576  1.2429  1.1276
 2640TIP3   OH229410   0.177   5.834  15.508  0.0187  0.4770  0.8078
 2640TIP3    H129411   0.267   5.863  15.520  0.3976 -0.8141  1.1567
 2640TIP3    H229412   0.137   5.902  15.455  1.0690  1.2987  1.0494
 2641TIP3   OH229413   3.333   2.853  10.601  0.1174 -0.4136 -0.5180
 2641TIP3    H129414   3.412   2.905  10.586  0.1031  0.3432  1.8376
 2641TIP3    H229415   3.362   2.762  10.594  0.5688 -0.1421 -2.5611
 2642TIP3   OH229416   6.110   0.762   5.325  0.2701  0.0827  0.4770
 2642TIP3    H129417   6.080   0.672   5.337 -0.8562  0.1681 -1.4921
 2642TIP3    H229418   6.203   0.760   5.349  0.1061 -1.4585  1.0120
 2643TIP3   OH229419   0.997   5.075  10.497 -0.5088  0.6542 -0.0551
 2643TIP3    H129420   1.028   4.985  10.497  0.1218  0.8688 -0.6274
 2643TIP3    H229421   0.920   5.075  10.440 -0.4679  0.4921 -0.1083
 2644TIP3   OH229422   3.788   5.573  11.874  0.4633  0.5273  0.1578
 2644TIP3    H129423   3.844   5.498  11.890 -0.3934 -0.1306  0.1041
 2644TIP3    H229424   3.777   5.575  11.779 -0.5765 -0.0601  0.2638
 2645TIP3   OH229425   0.162   2.029  11.726  0.1004 -0.8527 -0.3354
 2645TIP3    H129426   0.176   2.006  11.634  2.1281  0.3103 -0.3611
 2645TIP3    H229427   0.144   2.123  11.724  0.2215 -0.8120  0.4541
 2646TIP3   OH229428   3.356   5.701  14.711  0.3967  0.0590  0.3520
 2646TIP3    H129429   3.373   5.617  14.670 -0.4728  0.2565 -0.4239
 2646TIP3    H229430   3.377   5.766  14.644 -0.3422  0.4096  0.4568
 2647TIP3   OH229431   6.142   5.596  13.283  0.2826 -0.4483 -0.1876
 2647TIP3    H129432   6.061   5.548  13.270 -0.5513  1.1349 -0.9538
 2647TIP3    H229433   6.125   5.683  13.247  2.1633  0.0488  0.0584
 2648TIP3   OH229434   3.800   3.679   0.698 -0.1485  0.2145  0.5129
 2648TIP3    H129435   3.737   3.607   0.699 -0.8406  0.7920 -0.8552
 2648TIP3    H229436   3.755   3.751   0.655  1.1449  0.9250  0.2953
 2649TIP3   OH229437   1.588   2.752   4.112  0.1165  0.5061  0.0096
 2649TIP3    H129438   1.585   2.833   4.063 -0.1766  0.1641 -0.5394
 2649TIP3    H229439   1.527   2.766   4.185 -1.1492  0.1962 -0.9813
 2650TIP3   OH229440   2.344   1.295   4.686  0.2464  0.1295 -0.5366
 2650TIP3    H129441   2.272   1.235   4.704  0.1482  0.5296  0.4441
 2650TIP3    H229442   2.320   1.337   4.603 -0.1807 -0.4331 -0.6988
 2651TIP3   OH229443   1.304   6.635   2.178 -0.5203 -0.4123 -0.1353
 2651TIP3    H129444   1.287   6.729   2.183 -0.5134 -0.2926 -1.9091
 2651TIP3    H229445   1.267   6.609   2.093 -1.2533 -2.1655  0.6948
 2652TIP3   OH229446   5.714   0.695  14.387  0.0258  0.6687  0.5262
 2652TIP3    H129447   5.681   0.611  14.417  1.6205 -0.4162 -0.6876
 2652TIP3    H229448   5.682   0.703  14.297  0.0372  1.2831  0.5722
 2653TIP3   OH229449   3.725   6.111  16.921  0.1849  0.2221 -0.1122
 2653TIP3    H129450   3.788   6.134  16.989 -0.4275  1.4718  0.0502
 2653TIP3    H229451   3.774   6.054  16.861  1.4534  1.1376  0.0354
 2654TIP3   OH229452   5.534   3.502  14.162  0.1781 -0.3019  0.2850
 2654TIP3    H129453   5.540   3.409  14.143 -0.2351 -0.0706 -1.0253
 2654TIP3    H229454   5.514   3.543  14.078  0.5148  0.9869  0.8112
 2655TIP3   OH229455   1.315   1.889  12.845  0.2902  0.0106 -0.1491
 2655TIP3    H129456   1.313   1.978  12.880 -0.4401  0.8418 -2.2601
 2655TIP3    H229457   1.279   1.897  12.757  1.9280 -2.0685 -1.0443
 2656TIP3   OH229458   1.927   3.711   5.175  0.2774  0.1883  0.0883
 2656TIP3    H129459   1.911   3.617   5.170 -2.2762  0.6056 -0.5299
 2656TIP3    H229460   1.956   3.726   5.265 -1.9588 -0.8637  1.0303
 2657TIP3   OH229461   0.654   5.163   5.848  0.3920 -0.4600 -0.2093
 2657TIP3    H129462   0.603   5.136   5.772  1.5064  0.0215 -1.1416
 2657TIP3    H229463   0.735   5.114   5.841  1.2325  0.9116 -0.3101
 2658TIP3   OH229464   3.086   0.887  14.088 -0.4148 -0.2752 -0.2177
 2658TIP3    H129465   3.179   0.865  14.093 -0.1566  1.0578  1.3109
 2658TIP3    H229466   3.043   0.820  14.140 -0.2061 -0.3430 -0.1328
 2659TIP3   OH229467   4.602   2.580  12.930  0.6785 -0.1687 -0.1967
 2659TIP3    H129468   4.673   2.535  12.886 -0.9919 -1.6046 -1.5175
 2659TIP3    H229469   4.543   2.607  12.860 -0.0904  0.9938  0.8597
 2660TIP3   OH229470   4.347   2.361  12.899 -0.3844  0.5689  0.3062
 2660TIP3    H129471   4.357   2.265  12.902  0.1778  0.6714  2.2855
 2660TIP3    H229472   4.252   2.374  12.900 -0.4624  0.0517  2.2410
 2661TIP3   OH229473   1.610   3.403   0.580  0.0560  0.0616  0.6144
 2661TIP3    H129474   1.618   3.377   0.489 -1.1483 -0.0051  0.5319
 2661TIP3    H229475   1.689   3.456   0.596 -0.3919  1.1877 -0.8321
 2662TIP3   OH229476   4.650   4.706  13.735 -0.1294  0.1998  0.0496
 2662TIP3    H129477   4.589   4.632  13.740 -0.6312  0.6117  0.0172
 2662TIP3    H229478   4.605   4.777  13.779  0.4186  0.4488  0.2098
 2663TIP3   OH229479   4.628   6.382  14.193  0.0977  0.2434 -0.4529
 2663TIP3    H129480   4.722   6.381  14.175  0.3016 -0.8831  0.6066
 2663TIP3    H229481   4.605   6.475  14.197  1.7411  0.5937  2.0477
 2664TIP3   OH229482   5.357   0.409  16.913 -0.0634  0.9336 -0.1877
 2664TIP3    H129483   5.295   0.360  16.966  1.3056  0.4014  0.9608
 2664TIP3    H229484   5.342   0.501  16.936  0.5086  0.7070  1.1248
 2665TIP3   OH229485   6.314   0.007   1.404  0.1195 -0.0089  0.1224
 2665TIP3    H129486   6.274  -0.002   1.317 -2.2301 -2.9886  1.4088
 2665TIP3    H229487   6.378  -0.064   1.408  1.8187  1.4853  0.0611
 2666TIP3   OH229488   6.679   0.172  13.522 -0.0688  0.2497 -0.5281
 2666TIP3    H129489   6.676   0.232  13.596 -0.0425  1.1034 -1.2220
 2666TIP3    H229490   6.588   0.149  13.505  0.1636 -4.3559  3.3250
 2667TIP3   OH229491   4.151   4.704  13.528  0.1619  0.1803  0.8419
 2667TIP3    H129492   4.083   4.751  13.479  0.5011 -1.1505 -0.9652
 2667TIP3    H229493   4.231   4.755  13.510  0.3341 -0.4509 -0.2389
 2668TIP3   OH229494   2.169   5.448   6.445 -0.0500  0.1791 -0.0475
 2668TIP3    H129495   2.264   5.442   6.455 -0.3481 -0.9460  2.5011
 2668TIP3    H229496   2.147   5.377   6.385  0.4210 -1.4008  1.6224
 2669TIP3   OH229497   0.201   0.666   4.524 -0.0736  0.4221 -0.6834
 2669TIP3    H129498   0.239   0.594   4.474  0.4202 -0.6631  1.1721
 2669TIP3    H229499   0.107   0.648   4.523 -0.0656  0.4152 -1.2411
 2670TIP3   OH229500   0.616   2.687   4.700  0.2127  0.2509  0.0703
 2670TIP3    H129501   0.529   2.648   4.714  0.0030 -0.0278 -1.8657
 2670TIP3    H229502   0.616   2.764   4.756 -0.9680 -0.2213  0.7526
 2671TIP3   OH229503   2.093   1.909  15.698  0.0792 -0.2618 -0.4972
 2671TIP3    H129504   2.064   1.970  15.766  2.0285 -0.2590  0.3591
 2671TIP3    H229505   2.026   1.916  15.630 -0.9191  1.1319  0.5930
 2672TIP3   OH229506   0.955   6.047  16.679  0.5302  0.0555  0.0140
 2672TIP3    H129507   0.926   6.003  16.598 -3.3296  0.0722  1.2862
 2672TIP3    H229508   0.964   6.139  16.654 -3.6762  0.6123  0.2106
 2673TIP3   OH229509   4.050   2.382  11.080 -0.1238  0.1180  0.6051
 2673TIP3    H129510   3.972   2.401  11.131  0.2482 -0.0465  1.2329
 2673TIP3    H229511   4.025   2.403  10.990 -0.8627  0.1439  0.8132
 2674TIP3   OH229512   1.000   1.987   5.557 -0.6213 -0.0893 -0.1788
 2674TIP3    H129513   1.042   1.904   5.581 -1.4750 -0.5664 -0.2990
 2674TIP3    H229514   1.046   2.015   5.477  0.9676  0.5532  0.9473
 2675TIP3   OH229515   6.689   0.929  17.186 -0.1785 -0.3085  0.0286
 2675TIP3    H129516   6.640   1.009  17.202  1.0220  0.1749  1.3570
 2675TIP3    H229517   6.645   0.863  17.239 -1.1631 -0.5580 -1.0631
 2676TIP3   OH229518   3.643   4.118  13.623  0.0514  0.4909  0.0247
 2676TIP3    H129519   3.662   4.168  13.702 -2.2056  0.6339  0.5022
 2676TIP3    H229520   3.625   4.030  13.655  1.9873 -0.1796 -0.6307
 2677TIP3   OH229521   3.557   2.173   2.664 -0.1991 -0.5729 -0.3176
 2677TIP3    H129522   3.625   2.105   2.670 -1.5051 -1.7909  1.0477
 2677TIP3    H229523   3.524   2.182   2.753  0.9076  2.9184 -0.1887
 2678TIP3   OH229524   3.817   5.202   1.038 -0.3730  0.2256  0.2368
 2678TIP3    H129525   3.732   5.173   1.070  0.3621 -1.7315  0.4711
 2678TIP3    H229526   3.877   5.184   1.110  0.3574  0.9424 -0.1903
 2679TIP3   OH229527   4.174   5.140   5.796 -0.6042  0.4091 -0.3597
 2679TIP3    H129528   4.233   5.191   5.851 -1.0782  0.4538  0.1063
 2679TIP3    H229529   4.217   5.055   5.787 -1.0929 -0.0055  1.0669
 2680TIP3   OH229530   5.217   3.460   4.634  0.3143  0.1163  0.2355
 2680TIP3    H129531   5.208   3.542   4.586 -1.4041  0.6668  1.4648
 2680TIP3    H229532   5.201   3.392   4.569 -2.7985  0.8724  0.1314
 2681TIP3   OH229533   6.363   3.315   1.050  0.0657  0.4823  0.4003
 2681TIP3    H129534   6.392   3.402   1.022  2.1816 -0.3031  0.0519
 2681TIP3    H229535   6.282   3.299   1.001  0.3867  1.6920 -0.5303
 2682TIP3   OH229536   1.436   1.069  14.273  0.2480  0.0469 -0.8124
 2682TIP3    H129537   1.506   1.097  14.332 -0.7609 -0.2108  0.5157
 2682TIP3    H229538   1.473   1.080  14.185  1.7172  0.5382 -0.1431
 2683TIP3   OH229539   5.460   0.622   2.518 -0.1533 -0.0933  0.0788
 2683TIP3    H129540   5.511   0.618   2.598 -1.0169 -2.3926  0.5472
 2683TIP3    H229541   5.480   0.540   2.472 -0.0452  0.9693 -1.8232
 2684TIP3   OH229542   6.145   2.891  12.902  0.1299 -0.1211  0.0101
 2684TIP3    H129543   6.084   2.937  12.959  0.6304  2.1856 -1.2514
 2684TIP3    H229544   6.100   2.884  12.818 -0.0001 -2.1076  0.2276
 2685TIP3   OH229545   4.847   1.092  13.427  0.5029 -0.0357 -0.2465
 2685TIP3    H129546   4.920   1.154  13.429  0.7855 -0.3711 -0.1297
 2685TIP3    H229547   4.880   1.014  13.472  0.1265 -0.2469 -0.3319
 2686TIP3   OH229548   0.354   3.592   2.723  0.1493  0.1423 -0.5768
 2686TIP3    H129549   0.382   3.512   2.678 -0.3140  0.4930 -1.5079
 2686TIP3    H229550   0.258   3.590   2.719  0.1208  0.4849 -0.1384
 2687TIP3   OH229551   1.190   6.588   3.559 -0.1249  0.0277  0.0762
 2687TIP3    H129552   1.265   6.626   3.513 -0.1766 -0.3502 -0.3185
 2687TIP3    H229553   1.219   6.500   3.583 -0.2314  0.0905  0.4398
 2688TIP3   OH229554   1.583   3.382   5.926 -0.2834  0.7720 -0.2762
 2688TIP3    H129555   1.628   3.431   5.856 -1.9013 -0.2416 -2.0757
 2688TIP3    H229556   1.629   3.408   6.006  1.7244  1.8539 -1.7153
 2689TIP3   OH229557   4.856   1.112  16.102 -0.6155  0.2689  0.1853
 2689TIP3    H129558   4.871   1.166  16.025  0.2639  0.6885  0.6359
 2689TIP3    H229559   4.841   1.174  16.173  0.5688 -0.0590  0.7387
 2690TIP3   OH229560   4.274   6.502  14.078  0.2635 -0.3340 -0.4827
 2690TIP3    H129561   4.234   6.548  14.005 -0.5865 -0.7483 -0.2768
 2690TIP3    H229562   4.366   6.530  14.076  0.4903 -1.1058 -2.3188
 2691TIP3   OH229563   1.573   4.576   4.088  0.7184 -0.3417 -0.2285
 2691TIP3    H129564   1.524   4.655   4.066  1.6989  0.7490  1.3780
 2691TIP3    H229565   1.507   4.514   4.118 -0.0912 -0.2499 -1.7641
 2692TIP3   OH229566   0.112   0.740   2.988  0.1216 -0.6673  0.3723
 2692TIP3    H129567   0.085   0.659   2.944 -0.0849 -0.3828 -0.0282
 2692TIP3    H229568   0.035   0.767   3.038  0.6274 -1.4447  1.5940
 2693TIP3   OH229569   2.416   5.061  12.811  0.8580 -0.1391  0.2930
 2693TIP3    H129570   2.464   5.055  12.894  0.1159  0.2810  0.7522
 2693TIP3    H229571   2.399   5.154  12.799 -0.1223 -0.3143  0.2931
 2694TIP3   OH229572   5.301   2.040   0.939 -0.3150 -0.3729  0.0576
 2694TIP3    H129573   5.370   1.976   0.920  0.9169  0.7486  0.6646
 2694TIP3    H229574   5.332   2.121   0.899 -1.7442 -0.0822 -0.4827
 2695TIP3   OH229575   5.731   3.699  14.781  0.0711  0.2165 -0.2644
 2695TIP3    H129576   5.732   3.621  14.725  0.0047 -0.3730  0.5429
 2695TIP3    H229577   5.644   3.737  14.767  1.0879  1.7129 -2.7691
 2696TIP3   OH229578   0.014   4.209   4.239 -0.0825  0.2614  0.0431
 2696TIP3    H129579   0.074   4.210   4.164 -0.4326 -1.3424 -0.2788
 2696TIP3    H229580  -0.047   4.280   4.221  0.5737  0.6733 -0.5891
 2697TIP3   OH229581   5.291   2.903   3.308 -0.3344  0.1264 -1.0712
 2697TIP3    H129582   5.235   2.831   3.280 -0.2772 -0.5820  0.5709
 2697TIP3    H229583   5.365   2.860   3.352 -1.0328  1.2172  1.2366
 2698TIP3   OH229584   3.464   3.184  17.196  0.0673  0.3087  0.2122
 2698TIP3    H129585   3.466   3.140  17.281  1.4140 -2.9461 -1.4005
 2698TIP3    H229586   3.398   3.137  17.146  1.2762  0.3461 -1.4637
 2699TIP3   OH229587   1.246   5.987   4.444 -0.0842  0.2893 -0.2066
 2699TIP3    H129588   1.330   6.004   4.403 -0.3297 -0.0815 -0.8743
 2699TIP3    H229589   1.260   5.909   4.498  1.1065  2.6641  3.0482
 2700TIP3   OH229590   4.782   5.756   4.579  0.1643  0.1743 -0.4263
 2700TIP3    H129591   4.772   5.661   4.581 -2.9932  0.4572 -0.0772
 2700TIP3    H229592   4.787   5.778   4.486  0.5145 -0.2933 -0.5188
 2701TIP3   OH229593   5.759   1.106   3.935 -0.2965 -0.0413 -0.0817
 2701TIP3    H129594   5.765   1.020   3.976 -0.8417  0.2418  0.6080
 2701TIP3    H229595   5.820   1.161   3.983 -0.3032  0.0771 -0.2057
 2702TIP3   OH229596   3.776   0.390  11.577 -0.2658 -0.6895 -0.0513
 2702TIP3    H129597   3.858   0.428  11.547 -0.4550  0.9654  1.4321
 2702TIP3    H229598   3.762   0.314  11.520  0.6908  0.8203 -2.3502
 2703TIP3   OH229599   4.826   1.473   1.621  0.3556 -0.6028  0.5419
 2703TIP3    H129600   4.823   1.503   1.530  1.6766 -0.0583  0.6722
 2703TIP3    H229601   4.739   1.437   1.637  0.1130 -0.7152 -0.9465
 2704TIP3   OH229602   6.451   6.447  17.027  0.2840 -0.1326 -0.8975
 2704TIP3    H129603   6.431   6.519  17.087  0.0900  0.5431 -1.7682
 2704TIP3    H229604   6.544   6.427  17.043  0.1406 -0.1995 -0.1253
 2705TIP3   OH229605   6.342   2.406  16.454 -0.2336  0.3968 -0.1370
 2705TIP3    H129606   6.248   2.403  16.474 -0.1215 -2.0104  0.1193
 2705TIP3    H229607   6.354   2.491  16.411 -2.7669  0.2220 -1.3089
 2706TIP3   OH229608   3.260   4.407  16.284 -0.3404 -0.1590  0.3562
 2706TIP3    H129609   3.265   4.398  16.379 -1.3992  0.6437  0.4943
 2706TIP3    H229610   3.337   4.360  16.251  0.7111  0.6198  1.6740
 2707TIP3   OH229611   5.543   4.430   0.967  0.1474 -0.0580 -0.7858
 2707TIP3    H129612   5.547   4.512   0.918  1.6297 -0.0623 -0.6791
 2707TIP3    H229613   5.515   4.365   0.902  1.2806  0.0902 -1.4366
 2708TIP3   OH229614   3.863   2.061   1.064  0.4250 -0.6872  0.1631
 2708TIP3    H129615   3.837   1.974   1.033 -1.5444  0.4384 -1.5012
 2708TIP3    H229616   3.942   2.082   1.014  0.7252 -1.4047  0.3419
 2709TIP3   OH229617   5.747   2.733   5.135  0.0115 -0.2270 -0.5511
 2709TIP3    H129618   5.761   2.650   5.090 -0.1186 -0.5298 -0.0350
 2709TIP3    H229619   5.830   2.779   5.125  0.6566 -1.1148  0.6117
 2710TIP3   OH229620   6.805   3.073  16.560 -0.2910  0.1337 -0.1248
 2710TIP3    H129621   6.746   3.000  16.580  1.4327 -1.6841 -1.4697
 2710TIP3    H229622   6.752   3.135  16.512 -1.8984 -0.0267  1.3956
 2711TIP3   OH229623   5.349   6.107   2.151 -0.0218  0.5210  0.0059
 2711TIP3    H129624   5.386   6.156   2.077 -0.0591 -0.2491 -0.5319
 2711TIP3    H229625   5.390   6.146   2.228 -0.2125  1.5407 -0.3983
 2712TIP3   OH229626   1.081   2.070   5.316  0.3789 -0.1188 -0.7464
 2712TIP3    H129627   1.056   2.159   5.294  1.2600 -0.0114 -1.3535
 2712TIP3    H229628   1.039   2.016   5.249 -0.3522 -0.1920 -0.2380
 2713TIP3   OH229629   0.584   5.064   3.547 -0.3380  0.2083 -0.1289
 2713TIP3    H129630   0.639   5.078   3.469 -0.9124 -2.8975 -1.1280
 2713TIP3    H229631   0.588   4.970   3.563 -4.0133  0.1455  0.7943
 2714TIP3   OH229632   2.026   0.559  15.753  0.2061  0.2765 -0.1079
 2714TIP3    H129633   2.039   0.647  15.716 -0.2424 -0.0564 -1.0719
 2714TIP3    H229634   2.014   0.503  15.677 -0.7752 -0.4183  0.5437
 2715TIP3   OH229635   4.809   6.199   4.722 -0.4609 -0.4411  0.0861
 2715TIP3    H129636   4.827   6.292   4.734  0.5150 -0.4837 -0.9810
 2715TIP3    H229637   4.888   6.164   4.681 -0.5249 -1.8868  1.1244
 2716TIP3   OH229638   4.080   4.760  16.845 -0.4782 -0.3537 -0.3807
 2716TIP3    H129639   4.024   4.767  16.922  0.7181  0.5548  0.4246
 2716TIP3    H229640   4.070   4.844  16.800 -1.6037 -1.0843 -1.5463
 2717TIP3   OH229641   0.264   6.207   0.521  0.4023  0.1501 -0.4714
 2717TIP3    H129642   0.224   6.237   0.602 -0.3143 -0.6448 -0.5240
 2717TIP3    H229643   0.234   6.270   0.455  1.2324  0.9726 -0.0755
 2718TIP3   OH229644   4.939   1.838  10.874 -0.0279 -0.0784  0.4240
 2718TIP3    H129645   4.884   1.908  10.910  1.2975  1.5215 -0.5890
 2718TIP3    H229646   4.884   1.795  10.809 -0.5625  0.6236  0.4008
 2719TIP3   OH229647   3.161   6.199   4.160  0.3524 -0.0156 -0.0714
 2719TIP3    H129648   3.142   6.112   4.196 -2.2597  1.2388  1.7593
 2719TIP3    H229649   3.236   6.229   4.211 -0.0354 -0.3796  0.7348
 2720TIP3   OH229650   5.704   6.389  12.181 -0.1908  0.2418  0.0505
 2720TIP3    H129651   5.722   6.338  12.102 -2.0046 -0.0580 -0.1751
 2720TIP3    H229652   5.658   6.467  12.150  0.1948  0.7307  0.6828
 2721TIP3   OH229653   1.986   5.992   2.688 -0.0507  0.1217  0.1727
 2721TIP3    H129654   1.961   6.049   2.760  0.3998  1.5133 -0.7703
 2721TIP3    H229655   1.991   5.905   2.728 -1.7483  0.5522  1.3962
 2722TIP3   OH229656   0.760   3.425   6.215 -0.2698 -0.1744  0.7404
 2722TIP3    H129657   0.711   3.481   6.275  0.8831  0.1587  1.3773
 2722TIP3    H229658   0.827   3.384   6.269  1.2501  0.6768 -0.4510
 2723TIP3   OH229659   1.807   1.447   0.199  0.1472 -0.0774  0.2757
 2723TIP3    H129660   1.799   1.424   0.106 -4.0494  0.6614  0.3873
 2723TIP3    H229661   1.800   1.543   0.200  2.9694  0.1659  1.1623
 2724TIP3   OH229662   3.197   0.112  13.617  0.2167 -0.1161  0.5753
 2724TIP3    H129663   3.181   0.101  13.524  4.2536  0.9339 -0.3340
 2724TIP3    H229664   3.130   0.057  13.660 -0.3076 -2.3549 -2.9359
 2725TIP3   OH229665   5.723   4.542   1.583  0.0702 -0.3155 -0.2933
 2725TIP3    H129666   5.781   4.612   1.613 -2.5353  1.4624  0.7180
 2725TIP3    H229667   5.765   4.462   1.613  0.3601  1.1029  3.2941
 2726TIP3   OH229668   4.857   4.372   0.807 -0.2141  0.4093  0.1420
 2726TIP3    H129669   4.822   4.286   0.826 -0.7687  0.3420 -1.1238
 2726TIP3    H229670   4.781   4.426   0.787  0.0482  1.4673  1.9355
 2727TIP3   OH229671   0.969   1.250  13.837 -0.8603  0.8218  0.5294
 2727TIP3    H129672   0.879   1.217  13.835 -0.8581  0.8347 -0.0231
 2727TIP3    H229673   1.016   1.193  13.776 -0.5039  0.8431  0.7846
 2728TIP3   OH229674   5.579   5.308  12.211 -0.0236  0.0015  0.2445
 2728TIP3    H129675   5.669   5.291  12.241 -0.1090  0.1714  0.5994
 2728TIP3    H229676   5.524   5.282  12.285 -0.4206 -2.3509 -0.8278
 2729TIP3   OH229677   4.852   5.780   1.065  0.4936  0.0951  0.0966
 2729TIP3    H129678   4.824   5.741   1.147  1.3104 -1.1161 -0.1902
 2729TIP3    H229679   4.896   5.709   1.018  2.8941  1.5973 -0.0088
 2730TIP3   OH229680   4.221   0.389  14.823 -0.5502 -0.1472  0.0494
 2730TIP3    H129681   4.281   0.398  14.897  0.0438 -0.3906 -0.3980
 2730TIP3    H229682   4.209   0.294  14.814 -0.3364 -0.1331 -0.3916
 2731TIP3   OH229683   3.564   5.070   1.891 -0.4868  0.2924  0.2537
 2731TIP3    H129684   3.516   5.116   1.960  0.5642  1.2263  0.3860
 2731TIP3    H229685   3.657   5.079   1.916 -0.1622 -0.2840 -0.7153
 2732TIP3   OH229686   4.758   1.589  12.205 -0.1794  0.2654  0.0950
 2732TIP3    H129687   4.828   1.531  12.236 -0.8342  0.1925  1.4514
 2732TIP3    H229688   4.792   1.678  12.222 -0.1887  0.2441  0.2189
 2733TIP3   OH229689   4.093   2.018   1.538 -0.4846 -0.5537 -0.4826
 2733TIP3    H129690   4.039   2.043   1.463 -0.0081  0.1293 -0.6033
 2733TIP3    H229691   4.162   2.085   1.541  0.2664 -1.3326 -0.2400
 2734TIP3   OH229692   5.168   3.110   3.536  0.3048  0.1416  0.1270
 2734TIP3    H129693   5.102   3.062   3.586 -1.3854 -2.5365 -4.4528
 2734TIP3    H229694   5.248   3.060   3.547 -0.2580 -0.9036 -0.4909
 2735TIP3   OH229695   2.876   5.414   2.207  0.2632  0.7056  0.2208
 2735TIP3    H129696   2.793   5.461   2.214 -0.9485 -1.4350  0.6807
 2735TIP3    H229697   2.934   5.460   2.267 -1.1855  1.0075  1.4315
 2736TIP3   OH229698   2.929   2.229   1.155  0.4557  1.1013  0.6179
 2736TIP3    H129699   2.989   2.299   1.131  2.0380 -0.7898 -1.1585
 2736TIP3    H229700   2.967   2.151   1.115 -1.5309 -0.6827  2.1180
 2737TIP3   OH229701   0.886   1.362   2.552 -0.0436  0.2304 -0.3765
 2737TIP3    H129702   0.906   1.437   2.609 -1.2839  0.2049  0.1163
 2737TIP3    H229703   0.791   1.361   2.548 -0.0540 -1.6659  0.0631
 2738TIP3   OH229704   6.260   3.239  13.247 -0.5659 -0.0818  0.5370
 2738TIP3    H129705   6.202   3.186  13.302  1.7067 -0.6467  2.4780
 2738TIP3    H229706   6.220   3.326  13.246 -1.5547 -0.5081  1.6664
 2739TIP3   OH229707   6.419   0.725  12.770  0.0534  0.1040  0.3147
 2739TIP3    H129708   6.379   0.670  12.703 -1.0344  0.4849  0.6445
 2739TIP3    H229709   6.388   0.690  12.853  1.1128 -0.1454  0.6238
 2740TIP3   OH229710   1.651   2.055  16.812 -0.3665 -0.0766 -0.4163
 2740TIP3    H129711   1.703   2.068  16.733 -0.0342  0.3095 -0.1414
 2740TIP3    H229712   1.630   1.962  16.813  0.0985 -0.1834 -0.6665
 2741TIP3   OH229713   1.078   0.864   1.441  0.3837 -0.4483  0.2468
 2741TIP3    H129714   1.099   0.944   1.488 -0.5168  0.5469 -0.9982
 2741TIP3    H229715   0.985   0.850   1.458  1.0487 -2.5182  2.3411
 2742TIP3   OH229716   0.908   3.541   3.539 -0.1407 -0.3080 -0.5888
 2742TIP3    H129717   0.814   3.531   3.526 -0.2391 -1.0844  0.5833
 2742TIP3    H229718   0.934   3.463   3.590  0.8822  0.5712  0.2724
 2743TIP3   OH229719   5.690   4.188   5.330 -0.7200 -0.7168 -0.4081
 2743TIP3    H129720   5.773   4.183   5.282 -0.6900  0.9464 -0.5531
 2743TIP3    H229721   5.624   4.206   5.263 -1.4945 -3.8277 -0.5461
 2744TIP3   OH229722   1.790   4.728   3.554 -0.2609  0.5167 -0.0027
 2744TIP3    H129723   1.880   4.698   3.568 -0.6255 -1.3708 -1.4606
 2744TIP3    H229724   1.741   4.692   3.628 -0.0831  0.2415 -0.0166
 2745TIP3   OH229725   3.104   3.613   5.361  0.0328 -0.3240  0.0634
 2745TIP3    H129726   3.162   3.561   5.417  0.8378 -0.2230 -0.6595
 2745TIP3    H229727   3.163   3.659   5.302 -0.7154  0.8595  0.2163
 2746TIP3   OH229728   0.170   2.854  17.119  0.0067 -0.0442 -0.6543
 2746TIP3    H129729   0.110   2.787  17.088 -1.1116  1.1287 -1.0463
 2746TIP3    H229730   0.205   2.818  17.201 -1.4799 -0.5837 -0.2360
 2747TIP3   OH229731   6.160   4.312   2.195  0.2855  0.2419  0.6194
 2747TIP3    H129732   6.217   4.307   2.272 -1.4228 -1.4271  1.8318
 2747TIP3    H229733   6.122   4.224   2.188  0.1068  0.4787 -1.9117
 2748TIP3   OH229734   5.230   1.777   0.413  0.3451  0.1965  0.2124
 2748TIP3    H129735   5.266   1.800   0.499  0.2241  0.0188  0.3095
 2748TIP3    H229736   5.295   1.718   0.375  0.4708  0.3932  0.1193
 2749TIP3   OH229737   2.014   5.253  16.745 -0.0491 -0.3504 -0.1070
 2749TIP3    H129738   1.958   5.322  16.711 -0.6996 -2.0015 -2.5515
 2749TIP3    H229739   1.953   5.185  16.774  0.6036 -0.8532  0.1060
 2750TIP3   OH229740   5.786   4.139   3.059 -0.3795 -0.6176 -0.0419
 2750TIP3    H129741   5.857   4.116   3.119  1.2039 -0.8086 -1.9029
 2750TIP3    H229742   5.806   4.228   3.032 -2.3299  0.2881  1.4044
 2751TIP3   OH229743   1.833   4.829   4.314 -0.0030  0.2359 -0.5477
 2751TIP3    H129744   1.764   4.774   4.351  0.7144 -1.6968 -2.0003
 2751TIP3    H229745   1.799   4.855   4.229 -0.4512  2.3384  0.2345
 2752TIP3   OH229746   4.521   2.228   5.030 -0.8118  0.7873  0.1822
 2752TIP3    H129747   4.449   2.167   5.046 -0.3474  0.2306  0.1622
 2752TIP3    H229748   4.491   2.310   5.070 -1.2321  0.4187  0.6439
 2753TIP3   OH229749   5.156   1.229  14.067  0.3348  0.0524  0.5291
 2753TIP3    H129750   5.063   1.220  14.084  0.4537  0.3519  1.3514
 2753TIP3    H229751   5.198   1.201  14.148  0.9978 -1.1447 -0.2113
 2754TIP3   OH229752   4.209   3.210  12.584 -0.0533  0.0303 -0.3163
 2754TIP3    H129753   4.162   3.164  12.514  0.2468  0.3807 -0.7521
 2754TIP3    H229754   4.219   3.145  12.653  1.5892 -1.0013 -1.4740
 2755TIP3   OH229755   5.867   3.876   2.954  0.1823  0.0733 -0.0925
 2755TIP3    H129756   5.953   3.848   2.922  0.8793 -0.1428  1.9144
 2755TIP3    H229757   5.876   3.970   2.966 -0.2433  0.2350 -0.9976
 2756TIP3   OH229758   1.276   5.060  13.652 -0.1853  0.3838  0.2891
 2756TIP3    H129759   1.257   5.132  13.713 -0.5048  0.3927  0.1780
 2756TIP3    H229760   1.321   5.103  13.578 -0.2808  0.4517  0.2709
 2757TIP3   OH229761   1.907   1.199   5.417  0.0310 -0.5668 -0.6680
 2757TIP3    H129762   1.971   1.269   5.426 -0.6031 -0.0270 -0.3149
 2757TIP3    H229763   1.829   1.241   5.380 -0.8243 -0.7977  0.8214
 2758TIP3   OH229764   3.121   0.154   6.569  0.1785 -0.3557 -0.2409
 2758TIP3    H129765   3.074   0.159   6.653  0.8901  1.2809  0.0986
 2758TIP3    H229766   3.082   0.224   6.516  1.0667 -0.0923 -0.5556
 2759TIP3   OH229767   4.987   1.612   5.348 -0.1474  0.2550 -0.3055
 2759TIP3    H129768   5.051   1.676   5.381  0.4385  0.2829 -1.4900
 2759TIP3    H229769   5.022   1.527   5.377 -0.4608  0.3907  0.4943
 2760TIP3   OH229770   2.910   2.688  11.234  0.2591  0.1734 -0.4260
 2760TIP3    H129771   2.863   2.743  11.172 -0.5644  0.3169  0.3272
 2760TIP3    H229772   2.906   2.600  11.196 -1.1184  0.0784 -0.0900
 2761TIP3   OH229773   5.388   4.934  12.479  0.3571 -0.1278  0.0402
 2761TIP3    H129774   5.412   4.905  12.568  0.6462 -0.6027 -0.1892
 2761TIP3    H229775   5.294   4.952  12.484  0.3671 -0.1765  0.4361
 2762TIP3   OH229776   3.215   4.631  16.504  0.3100 -0.4504 -0.1688
 2762TIP3    H129777   3.210   4.667  16.415 -0.7840 -1.6790 -0.6397
 2762TIP3    H229778   3.157   4.687  16.556  3.3552  2.1925  0.5076
 2763TIP3   OH229779   3.091   4.132   5.901 -0.2677  0.3268  0.0359
 2763TIP3    H129780   3.023   4.187   5.863 -0.5589 -0.5733 -0.7708
 2763TIP3    H229781   3.056   4.106   5.986 -1.2966 -0.7674 -0.6959
 2764TIP3   OH229782   5.431   0.096   5.873  0.1264 -0.2270  0.3482
 2764TIP3    H129783   5.349   0.119   5.829  1.8439  1.9223 -1.8528
 2764TIP3    H229784   5.422   0.131   5.962 -1.7865 -1.0629  0.5004
 2765TIP3   OH229785   5.277   0.830  14.667 -0.1534  0.0640  0.2462
 2765TIP3    H129786   5.275   0.804  14.575 -0.8012  2.3039 -0.3854
 2765TIP3    H229787   5.355   0.885  14.675  0.7195 -1.2787  1.3890
 2766TIP3   OH229788   0.209   4.156  13.273 -0.1124 -0.0749 -0.4198
 2766TIP3    H129789   0.163   4.129  13.194  1.9774 -0.8087 -1.4234
 2766TIP3    H229790   0.233   4.247  13.258 -2.6012  0.8206  0.7850
 2767TIP3   OH229791   6.538   2.468   2.188  0.0591 -0.3967 -0.2069
 2767TIP3    H129792   6.626   2.450   2.157 -0.7056 -2.0803 -1.4691
 2767TIP3    H229793   6.504   2.533   2.126  0.1343 -0.3135 -0.1616
 2768TIP3   OH229794   2.468   5.717   4.333 -0.0695 -0.0296 -0.1317
 2768TIP3    H129795   2.550   5.668   4.337 -0.3311 -0.4678 -0.0785
 2768TIP3    H229796   2.405   5.655   4.296 -0.6033 -0.0139  0.7366
 2769TIP3   OH229797   1.504   1.484   4.415  0.0747 -0.5242  0.1731
 2769TIP3    H129798   1.458   1.444   4.342 -0.0184 -1.4259  0.7126
 2769TIP3    H229799   1.479   1.431   4.491  0.3257  0.2760  0.8208
 2770TIP3   OH229800   2.509   0.359   4.667 -0.3366  0.6769 -0.3181
 2770TIP3    H129801   2.597   0.375   4.634  0.1906  0.8257  1.1188
 2770TIP3    H229802   2.506   0.264   4.683 -0.7063  0.5528 -1.1241
 2771TIP3   OH229803   3.490   1.653   3.661  0.0351  0.1658 -0.2887
 2771TIP3    H129804   3.400   1.668   3.691 -0.0430  1.1905 -1.0152
 2771TIP3    H229805   3.524   1.740   3.642  0.3632 -0.3795 -2.3896
 2772TIP3   OH229806   4.145   3.709  10.932 -0.7094  0.1676  0.1353
 2772TIP3    H129807   4.231   3.751  10.925 -0.1603 -1.0850 -0.8486
 2772TIP3    H229808   4.156   3.640  10.997 -0.8412 -0.2818 -0.3092
 2773TIP3   OH229809   4.219   3.017  12.772  0.5622  0.1849 -0.1783
 2773TIP3    H129810   4.179   3.059  12.849  0.9093 -1.8088  1.1160
 2773TIP3    H229811   4.211   2.923  12.789 -1.2110 -0.3359 -3.5583
 2774TIP3   OH229812   5.440   1.054  14.888 -0.4336  0.4635 -0.2443
 2774TIP3    H129813   5.494   1.132  14.874  0.3537  0.1587  0.9688
 2774TIP3    H229814   5.362   1.068  14.834  0.7238  1.0512 -1.8066
 2775TIP3   OH229815   2.810   2.585   0.466  0.0876  0.0841 -0.4258
 2775TIP3    H129816   2.771   2.659   0.512  2.2458  1.7113 -1.1400
 2775TIP3    H229817   2.798   2.606   0.373  1.8631  0.1817 -0.6414
 2776TIP3   OH229818   6.321   1.111  11.702 -0.2032 -0.0172 -0.5253
 2776TIP3    H129819   6.267   1.173  11.654  1.1591  0.8650 -0.9612
 2776TIP3    H229820   6.398   1.098  11.647 -0.2486 -1.7496 -0.2214
 2777TIP3   OH229821   1.234   4.482  15.500  0.4979 -0.1881 -0.0452
 2777TIP3    H129822   1.200   4.570  15.513  0.6537  0.3795 -3.2043
 2777TIP3    H229823   1.172   4.426  15.548 -1.2797  1.3711 -0.4551
 2778TIP3   OH229824   2.997   1.220  12.197 -0.7335  0.0029 -0.7188
 2778TIP3    H129825   2.928   1.205  12.262 -0.5341  0.5218 -0.3916
 2778TIP3    H229826   3.001   1.315  12.187  0.0482 -0.0167 -0.6196
 2779TIP3   OH229827   5.822   6.621  12.624  0.8944 -1.2466  0.3373
 2779TIP3    H129828   5.787   6.541  12.664 -0.6388  0.0499  1.6227
 2779TIP3    H229829   5.766   6.636  12.548  0.0320 -0.3875  1.1395
 2780TIP3   OH229830   2.738   0.155  12.089 -0.2475 -0.8641  0.0810
 2780TIP3    H129831   2.825   0.116  12.098 -0.3830 -1.1944 -0.0593
 2780TIP3    H229832   2.715   0.181  12.178  0.7567  0.8739 -0.1231
 2781TIP3   OH229833   4.045   0.752   5.389 -0.4323 -0.1522 -0.2103
 2781TIP3    H129834   4.130   0.797   5.385  0.4042 -1.6005  1.0607
 2781TIP3    H229835   3.983   0.820   5.415  0.0753  1.2308 -2.4537
 2782TIP3   OH229836   4.305   5.766   2.904  0.2563  0.5483  0.0192
 2782TIP3    H129837   4.363   5.748   2.831  1.8382 -0.4597  1.4699
 2782TIP3    H229838   4.219   5.781   2.864  1.1392  0.2916 -2.0310
 2783TIP3   OH229839   4.984   5.624  11.064  0.3844 -0.1782 -0.3017
 2783TIP3    H129840   4.915   5.654  11.005  1.1868  0.4900 -0.9274
 2783TIP3    H229841   4.986   5.689  11.134 -0.3389 -0.7857  0.2902
 2784TIP3   OH229842   3.564   6.554  13.170 -0.1240  0.7369 -1.1003
 2784TIP3    H129843   3.636   6.607  13.204  0.1182 -1.4547  2.0068
 2784TIP3    H229844   3.606   6.490  13.113  0.0964  1.0315 -1.2723
 2785TIP3   OH229845   4.550   0.878  16.424 -0.0577  0.0304  0.1407
 2785TIP3    H129846   4.549   0.944  16.354  1.6302  0.2472  0.2977
 2785TIP3    H229847   4.458   0.854  16.436 -0.4858  0.8793 -1.3198
 2786TIP3   OH229848   5.233   3.197  16.797 -0.4314  0.1852 -0.6943
 2786TIP3    H129849   5.157   3.186  16.854 -0.0804  2.4169  0.2572
 2786TIP3    H229850   5.290   3.122  16.819 -1.1301  0.0027  0.5502
 2787TIP3   OH229851   2.441   3.272   2.420 -0.4593  0.0642 -0.1073
 2787TIP3    H129852   2.519   3.306   2.377  0.2035 -2.1589 -0.7142
 2787TIP3    H229853   2.405   3.347   2.467  2.6509  0.8559  1.1169
 2788TIP3   OH229854   5.376   1.670   2.240  0.1872 -0.3551  0.4731
 2788TIP3    H129855   5.316   1.744   2.240 -0.3518 -0.7917 -0.0501
 2788TIP3    H229856   5.331   1.602   2.291  0.0538 -0.8257 -0.2654
 2789TIP3   OH229857   2.149   3.025  12.682 -0.4373 -0.2261 -0.2425
 2789TIP3    H129858   2.201   2.975  12.620 -0.1622 -1.3019  0.8281
 2789TIP3    H229859   2.058   3.002  12.661 -0.2652 -2.4498  1.2463
 2790TIP3   OH229860   3.482   1.746  14.621 -0.5014  0.0070 -0.0784
 2790TIP3    H129861   3.419   1.811  14.589 -0.3739  0.0208 -0.3054
 2790TIP3    H229862   3.457   1.665  14.577 -1.0872 -0.2572  0.7309
 2791TIP3   OH229863   4.727   6.115  10.777 -0.4217 -0.2012  0.1761
 2791TIP3    H129864   4.798   6.155  10.827  0.4301 -0.3670 -0.8772
 2791TIP3    H229865   4.649   6.165  10.800 -0.0765 -0.3724  1.7797
 2792TIP3   OH229866   5.726   6.554  11.629 -0.4174 -0.3167 -0.0423
 2792TIP3    H129867   5.768   6.468  11.623 -1.0659 -0.6433  0.0747
 2792TIP3    H229868   5.799   6.616  11.631  0.1286 -0.9860  2.3582
 2793TIP3   OH229869   5.382   5.199  13.460  0.3871  0.2596 -0.3163
 2793TIP3    H129870   5.395   5.127  13.521  1.5998 -1.3427 -2.4203
 2793TIP3    H229871   5.470   5.232  13.441 -0.0768  1.6133 -0.1963
 2794TIP3   OH229872   0.141   3.303   1.144  0.1860  0.0182  0.5615
 2794TIP3    H129873   0.148   3.294   1.239  0.6610 -2.0407  0.3428
 2794TIP3    H229874   0.228   3.281   1.111 -0.1851 -0.0325 -0.4098
 2795TIP3   OH229875   5.693   3.818  15.103 -0.1654  0.2894  0.4434
 2795TIP3    H129876   5.726   3.728  15.095 -0.4788  0.2624 -0.5642
 2795TIP3    H229877   5.754   3.871  15.052 -0.2789  0.5741  0.6057
 2796TIP3   OH229878   2.151   1.070  15.313 -0.8281  0.5043 -0.0279
 2796TIP3    H129879   2.161   1.030  15.226 -1.6180 -1.7716  0.8717
 2796TIP3    H229880   2.086   1.139  15.301  0.2206  1.2594 -1.5473
 2797TIP3   OH229881   0.403   3.470   5.622  0.7575  0.3915 -0.1098
 2797TIP3    H129882   0.336   3.506   5.565 -0.5635 -0.8926  0.5937
 2797TIP3    H229883   0.362   3.394   5.663  2.7050 -0.5436  0.1904
 2798TIP3   OH229884   5.807   4.247  16.272  0.5380  0.9093 -0.0331
 2798TIP3    H129885   5.872   4.306  16.308 -0.0848  0.7965  1.3200
 2798TIP3    H229886   5.746   4.231  16.344  0.4015 -0.9600 -0.5169
 2799TIP3   OH229887   3.051   4.303  15.897  0.5145  0.6596  0.1137
 2799TIP3    H129888   3.145   4.306  15.916  0.4317 -0.1134  0.6392
 2799TIP3    H229889   3.044   4.341  15.809  1.7530 -2.6071 -1.4774
 2800TIP3   OH229890   5.014   1.768  16.661 -0.6318  0.3701 -0.3692
 2800TIP3    H129891   5.092   1.714  16.674 -1.1755 -0.4710 -0.5762
 2800TIP3    H229892   5.001   1.769  16.566 -1.1056  0.1716 -0.3081
 2801TIP3   OH229893   4.305   4.096  15.442 -0.3040  0.2478 -0.0450
 2801TIP3    H129894   4.369   4.040  15.398 -0.2222 -0.8671  1.4670
 2801TIP3    H229895   4.221   4.072  15.402 -0.1526 -0.3322 -0.0129
 2802TIP3   OH229896   2.566   2.335  15.326  0.1745 -0.2720  0.0389
 2802TIP3    H129897   2.522   2.311  15.408  0.1951 -0.3026  0.0412
 2802TIP3    H229898   2.528   2.276  15.261  0.3161 -0.3975  0.0679
 2803TIP3   OH229899   6.349   5.587   0.044  0.5728 -0.0298 -0.3231
 2803TIP3    H129900   6.356   5.546   0.130 -0.8902 -0.3041 -0.3311
 2803TIP3    H229901   6.439   5.610   0.021  1.0631 -0.6955  0.9166
 2804TIP3   OH229902   3.245   5.551   6.243 -0.4228 -0.3380 -0.3800
 2804TIP3    H129903   3.279   5.489   6.179 -0.7047  1.1355 -2.0006
 2804TIP3    H229904   3.219   5.497   6.318 -0.8862 -2.1841 -1.8443
 2805TIP3   OH229905   4.409   3.795  10.899  0.2496  0.4261  0.5121
 2805TIP3    H129906   4.479   3.734  10.878 -1.3733 -1.1968 -0.3765
 2805TIP3    H229907   4.386   3.835  10.816 -0.5280  0.1997  0.6088
 2806TIP3   OH229908   5.839   3.581  12.999  0.1861  0.1331 -0.4947
 2806TIP3    H129909   5.865   3.518  13.066 -0.4615 -0.4611 -0.7870
 2806TIP3    H229910   5.807   3.656  13.048 -0.3051 -0.3078 -0.1319
 2807TIP3   OH229911   1.261   6.182  13.454 -0.0975  0.1849 -0.3786
 2807TIP3    H129912   1.293   6.186  13.364  2.0125 -0.1849  0.3394
 2807TIP3    H229913   1.316   6.117  13.496 -2.2465 -0.9635  0.7405
 2808TIP3   OH229914   6.791   5.112  14.660  0.4981 -0.1032 -0.3030
 2808TIP3    H129915   6.864   5.058  14.692 -0.6901 -1.0963  0.8016
 2808TIP3    H229916   6.736   5.051  14.611  0.1435  0.5281 -0.7014
 2809TIP3   OH229917   2.438   6.561   1.462 -0.2889  0.0779  0.2570
 2809TIP3    H129918   2.383   6.623   1.509 -0.7030 -0.4621  0.4958
 2809TIP3    H229919   2.379   6.487   1.442  0.9307 -1.6122  2.6485
 2810TIP3   OH229920   4.220   1.775  13.440  0.1003  0.0054  0.3615
 2810TIP3    H129921   4.304   1.737  13.466 -0.6342  0.6920  3.9586
 2810TIP3    H229922   4.241   1.865  13.414  0.2975  0.7020  2.8324
 2811TIP3   OH229923   3.350   3.639  16.030  0.5009 -0.1015  0.1961
 2811TIP3    H129924   3.342   3.729  15.998 -1.2313 -0.8721 -1.5933
 2811TIP3    H229925   3.320   3.644  16.121  0.8233  1.1959  0.2475
 2812TIP3   OH229926   6.718   0.784  16.882  0.3051 -0.3518  0.4322
 2812TIP3    H129927   6.629   0.760  16.855  0.7152 -4.0060  2.1134
 2812TIP3    H229928   6.764   0.799  16.799 -1.2937 -0.5865 -0.5270
 2813TIP3   OH229929   1.815   2.649  12.761 -0.1720 -0.5073 -0.7224
 2813TIP3    H129930   1.719   2.650  12.754 -0.5573 -0.5960  3.4301
 2813TIP3    H229931   1.838   2.556  12.757 -0.5187 -0.6686  0.7947
 2814TIP3   OH229932   0.309   5.412  13.874  0.0236  0.5673  0.2143
 2814TIP3    H129933   0.335   5.367  13.794  0.9682  0.9840  0.2800
 2814TIP3    H229934   0.294   5.503  13.847  0.5076  0.7448  0.5380
 2815TIP3   OH229935   3.661   6.104  13.563 -0.2822  0.7858  0.1024
 2815TIP3    H129936   3.692   6.080  13.650 -0.4002 -2.0304 -0.5810
 2815TIP3    H229937   3.567   6.117  13.574 -0.8323 -2.4985 -0.1014
 2816TIP3   OH229938   0.892   3.099  14.804  0.5059 -0.1744 -0.2008
 2816TIP3    H129939   0.948   3.068  14.733  0.1157  0.1957 -0.6707
 2816TIP3    H229940   0.820   3.036  14.807  0.5893 -0.2629 -0.0462
 2817TIP3   OH229941   6.548   3.020  15.238 -0.0721  0.1738 -0.0080
 2817TIP3    H129942   6.554   3.039  15.332 -0.4207  1.5187 -0.2433
 2817TIP3    H229943   6.461   2.982  15.227 -0.3537  0.7847  0.0920
 2818TIP3   OH229944   4.842   3.078  15.795  0.0535 -0.2032  0.0875
 2818TIP3    H129945   4.912   3.100  15.855  0.2454 -0.9320  0.1274
 2818TIP3    H229946   4.761   3.097  15.843  0.1747 -2.1187  1.1027
 2819TIP3   OH229947   4.407   4.769   0.921  0.4948 -0.3529  0.0916
 2819TIP3    H129948   4.441   4.841   0.973  0.2951 -0.4130  0.3095
 2819TIP3    H229949   4.411   4.800   0.831  1.5496 -0.5373  0.0756
 2820TIP3   OH229950   5.941   6.595   3.242 -0.9204 -0.8208 -0.1556
 2820TIP3    H129951   6.032   6.623   3.234 -0.7239 -1.3561  0.1377
 2820TIP3    H229952   5.899   6.663   3.294 -0.8947 -0.1333 -1.0182
 2821TIP3   OH229953   0.913   4.598  16.427  0.3300  0.2947  0.7221
 2821TIP3    H129954   0.821   4.608  16.402  0.4577  0.3740  0.2752
 2821TIP3    H229955   0.920   4.639  16.513  0.4838  2.5166 -0.3178
 2822TIP3   OH229956   4.871   0.756   1.577 -0.1356 -0.3898 -1.0455
 2822TIP3    H129957   4.844   0.732   1.488  0.9985 -1.2877 -1.1520
 2822TIP3    H229958   4.872   0.673   1.625 -1.1687  0.1473 -0.0640
 2823TIP3   OH229959   3.196   4.609   2.104 -0.0452  0.0542 -0.3011
 2823TIP3    H129960   3.249   4.555   2.162  1.6593 -0.3885 -2.2116
 2823TIP3    H229961   3.254   4.681   2.079 -1.2262  1.0051 -0.3477
 2824TIP3   OH229962   3.500   6.715   2.144 -0.1525  0.4471  0.2986
 2824TIP3    H129963   3.535   6.626   2.154 -0.6057  0.3092  0.6601
 2824TIP3    H229964   3.414   6.704   2.104 -0.3134  0.7043  0.5676
 2825TIP3   OH229965   2.730   5.648  15.452 -0.6015 -0.3888 -0.0220
 2825TIP3    H129966   2.755   5.555  15.450  2.2652  0.3791 -0.6398
 2825TIP3    H229967   2.701   5.667  15.363 -0.0108 -0.3808 -0.2147
 2826TIP3   OH229968   0.269   6.125   0.122 -0.1801  0.0875  0.4219
 2826TIP3    H129969   0.181   6.161   0.112 -0.8196 -1.7524 -0.8247
 2826TIP3    H229970   0.263   6.066   0.197  0.1856  0.5177  0.7933
 2827TIP3   OH229971   4.144   0.803  14.718 -0.1389  0.2701 -0.2579
 2827TIP3    H129972   4.180   0.852  14.643  0.1681 -2.3299 -1.8909
 2827TIP3    H229973   4.108   0.870  14.775 -0.0411  2.3826 -2.5681
 2828TIP3   OH229974   4.932   2.950  16.152 -0.6748  0.2465  0.1145
 2828TIP3    H129975   5.025   2.947  16.175 -0.4381 -1.8706 -0.9405
 2828TIP3    H229976   4.909   3.042  16.156  0.3265  0.4374  4.8043
 2829TIP3   OH229977   4.931   6.520  14.911 -0.0798 -0.7255  0.0581
 2829TIP3    H129978   4.974   6.547  14.992 -0.2611 -0.2411 -0.0027
 2829TIP3    H229979   4.891   6.600  14.878 -0.4036 -1.0190 -0.2661
 2830TIP3   OH229980   0.936   1.509   3.836 -0.4455 -0.3623  0.3470
 2830TIP3    H129981   1.031   1.516   3.836 -0.3601 -1.4546 -0.2003
 2830TIP3    H229982   0.913   1.493   3.927 -0.0365 -0.9975  0.3388
 2831TIP3   OH229983   5.040   1.266  13.061  0.6255  0.1999 -0.6774
 2831TIP3    H129984   5.077   1.314  12.988  1.8793  0.8954  0.3938
 2831TIP3    H229985   5.038   1.175  13.033 -1.4955  0.7950 -2.6180
 2832TIP3   OH229986   5.874   0.310  11.120  0.3076 -0.1926  0.0531
 2832TIP3    H129987   5.864   0.245  11.050 -0.7938 -0.3440  0.3349
 2832TIP3    H229988   5.933   0.268  11.183  1.8070  0.1999 -1.0761
 2833TIP3   OH229989   3.539   6.420   2.117 -0.7023 -0.3126 -0.1897
 2833TIP3    H129990   3.502   6.356   2.178  0.0949 -1.2039 -0.6331
 2833TIP3    H229991   3.496   6.402   2.034 -2.3369  1.3850  0.2530
 2834TIP3   OH229992   6.527   0.925  11.385 -0.1744 -0.0833 -0.4350
 2834TIP3    H129993   6.534   0.949  11.293 -3.8642  1.9409 -0.2754
 2834TIP3    H229994   6.560   1.002  11.432  0.2130 -0.4872 -0.0395
 2835TIP3   OH229995   3.354   0.432  11.605 -0.0568 -0.9485 -0.0332
 2835TIP3    H129996   3.422   0.389  11.554  0.8281  0.9757 -0.5277
 2835TIP3    H229997   3.385   0.522  11.615 -2.0121 -0.3303  0.6741
 2836TIP3   OH229998   0.032   5.827  11.160  0.0678  0.5437 -0.9865
 2836TIP3    H129999   0.018   5.793  11.071 -0.1465  0.5805 -0.9659
 2836TIP3    H230000  -0.049   5.808  11.206  0.8500 -1.1667 -0.2534
 2837TIP3   OH230001   3.036   4.980   0.707 -0.1149  0.1900  0.2710
 2837TIP3    H130002   3.033   4.973   0.611  0.2383 -0.4037  0.2954
 2837TIP3    H230003   3.053   5.072   0.725  1.0325  0.0891 -0.2719
 2838TIP3   OH230004   6.403   1.542   1.945  0.1076 -0.2564 -0.0419
 2838TIP3    H130005   6.374   1.453   1.964  1.0842 -0.3771  0.9556
 2838TIP3    H230006   6.489   1.548   1.986  0.4734  0.8395 -0.9341
 2839TIP3   OH230007   6.710   6.367   2.752  0.0887  0.4066 -1.0537
 2839TIP3    H130008   6.721   6.301   2.820  0.0169  1.3578 -0.0914
 2839TIP3    H230009   6.619   6.358   2.724 -0.7906  1.9423  1.1049
 2840TIP3   OH230010   4.164   2.507  15.410  0.3369  0.3488  0.2337
 2840TIP3    H130011   4.184   2.425  15.455 -0.3782  0.1138  0.1342
 2840TIP3    H230012   4.078   2.533  15.443  0.5486  1.0489  0.2481
 2841TIP3   OH230013   3.984   6.762  10.859  0.2567 -0.1149  0.1083
 2841TIP3    H130014   3.920   6.833  10.855  0.6157  0.1961 -0.1011
 2841TIP3    H230015   3.946   6.692  10.805 -0.1026 -0.0878  0.3274
 2842TIP3   OH230016   1.841   2.259  15.024 -0.2922  0.1769  0.4005
 2842TIP3    H130017   1.798   2.262  14.938  0.2920  0.9002  0.1240
 2842TIP3    H230018   1.920   2.207  15.009  1.1145  2.4102 -0.1178
 2843TIP3   OH230019   4.382   2.790   4.646 -0.3016  0.4874  0.8506
 2843TIP3    H130020   4.350   2.752   4.729 -1.4811  1.6736  0.9526
 2843TIP3    H230021   4.447   2.855   4.673  0.2799 -0.0614  0.7758
 2844TIP3   OH230022   3.716   6.338  15.419  0.4232  0.2459  0.4582
 2844TIP3    H130023   3.656   6.343  15.344  1.7955 -1.8235 -0.8517
 2844TIP3    H230024   3.665   6.370  15.493 -2.2272 -1.1916 -0.6673
 2845TIP3   OH230025   0.618   4.188  13.457  0.4111 -0.0585  0.5804
 2845TIP3    H130026   0.663   4.192  13.542 -1.2111 -0.3322  1.4672
 2845TIP3    H230027   0.684   4.217  13.394  1.2717  1.3442  2.0732
 2846TIP3   OH230028   0.347   0.579   0.980 -0.3651  0.7764 -0.1688
 2846TIP3    H130029   0.296   0.660   0.973 -0.8986  0.5739  1.2695
 2846TIP3    H230030   0.287   0.510   0.952 -0.6014  0.6379  0.6747
 2847TIP3   OH230031   0.945   6.795  11.787 -0.2872  0.7093  0.0956
 2847TIP3    H130032   0.975   6.711  11.822 -1.1537 -0.8189 -2.6775
 2847TIP3    H230033   0.850   6.793  11.799 -0.4225  0.8291 -0.9645
 2848TIP3   OH230034   5.860   6.734   3.672  0.4502 -0.4371 -0.3772
 2848TIP3    H130035   5.886   6.643   3.655 -2.5018 -1.1211 -1.6470
 2848TIP3    H230036   5.851   6.738   3.767  0.9199 -1.3936 -0.2786
 2849TIP3   OH230037   6.510   5.634  15.143  0.0102  0.1972  0.2079
 2849TIP3    H130038   6.445   5.577  15.184 -2.6077  2.9619  0.0958
 2849TIP3    H230039   6.492   5.626  15.049  0.0692  0.7169  0.1527
 2850TIP3   OH230040   5.381   6.443  12.066  0.0078  0.4398  0.2216
 2850TIP3    H130041   5.299   6.475  12.103 -1.2726  0.8716 -2.9046
 2850TIP3    H230042   5.431   6.523  12.046  0.2506  0.2325  0.0018
 2851TIP3   OH230043   3.111   0.962   1.256 -0.3731  0.0706 -0.3330
 2851TIP3    H130044   3.042   1.022   1.286  0.1464  1.4256 -1.7984
 2851TIP3    H230045   3.063   0.894   1.208 -0.8642 -0.1740  0.4715
 2852TIP3   OH230046   3.175   4.233  13.994  0.2248 -0.0895  0.3219
 2852TIP3    H130047   3.267   4.257  13.985 -0.2107  1.2146 -0.7408
 2852TIP3    H230048   3.129   4.316  14.007 -0.7349 -0.7824  1.4681
 2853TIP3   OH230049   0.394   1.217  12.702  0.7406  0.2053 -0.3169
 2853TIP3    H130050   0.368   1.249  12.789  1.4596 -0.2248  0.0578
 2853TIP3    H230051   0.405   1.297  12.650  0.7880  0.4886  0.1196
 2854TIP3   OH230052   4.405   1.977  14.300 -0.1907  0.0292 -0.3163
 2854TIP3    H130053   4.324   2.023  14.277  1.0426  1.1052 -2.6583
 2854TIP3    H230054   4.474   2.024  14.253  1.6832 -1.4698  0.8686
 2855TIP3   OH230055   0.056   3.095   4.659 -0.1525  0.2779 -0.1343
 2855TIP3    H130056   0.089   3.058   4.741 -2.2283 -0.1360  0.5544
 2855TIP3    H230057  -0.038   3.077   4.661 -0.4757  1.6259 -1.9010
 2856TIP3   OH230058   1.179   4.254   3.309 -0.4987  0.0842 -0.5309
 2856TIP3    H130059   1.149   4.262   3.218  0.4399  0.2224 -0.8329
 2856TIP3    H230060   1.233   4.175   3.309 -0.1606  0.3152 -0.1890
 2857TIP3   OH230061   6.773   0.888  13.343  0.1832 -0.3536  0.4863
 2857TIP3    H130062   6.690   0.851  13.314 -1.5816  4.2514 -0.8676
 2857TIP3    H230063   6.761   0.903  13.437 -0.6532  0.5098  0.2509
 2858TIP3   OH230064   1.237   5.208  14.513 -0.2993  0.3931 -0.8156
 2858TIP3    H130065   1.313   5.150  14.503  0.8645  1.6801  0.4568
 2858TIP3    H230066   1.189   5.172  14.588  0.8156  1.4700  0.4391
 2859TIP3   OH230067   2.290   5.434  11.467  0.3563 -0.2015  0.0238
 2859TIP3    H130068   2.194   5.427  11.468  0.3601 -0.2347  0.7726
 2859TIP3    H230069   2.317   5.378  11.394 -0.2279  0.3234 -0.6064
 2860TIP3   OH230070   6.417   4.417   4.141 -0.1779  0.0633 -0.0871
 2860TIP3    H130071   6.389   4.376   4.060  0.1486 -1.9093  0.7655
 2860TIP3    H230072   6.413   4.347   4.206 -0.5060  1.6199  1.6160
 2861TIP3   OH230073   2.891   2.735   4.417  0.5868  0.0976 -0.4478
 2861TIP3    H130074   2.943   2.765   4.491 -0.1389  0.2943 -0.0169
 2861TIP3    H230075   2.819   2.686   4.456 -1.2255  2.3421 -0.8869
 2862TIP3   OH230076   4.845   3.416  11.736 -0.1858  0.2874  0.2056
 2862TIP3    H130077   4.845   3.475  11.660 -1.2802  1.9562  1.4510
 2862TIP3    H230078   4.757   3.379  11.737  0.4684 -1.3126 -0.5105
 2863TIP3   OH230079   2.420   6.487   3.033 -0.5769 -0.4914 -0.4112
 2863TIP3    H130080   2.420   6.477   3.129  0.8179 -1.0550 -0.4703
 2863TIP3    H230081   2.509   6.467   3.006 -0.5285  1.2984 -1.6855
 2864TIP3   OH230082   3.083   1.667  11.689  0.7468  0.1277 -0.0332
 2864TIP3    H130083   3.002   1.693  11.734  1.5752  2.2080  0.3239
 2864TIP3    H230084   3.054   1.608  11.619 -0.6909 -2.0523  2.3264
 2865TIP3   OH230085   5.324   1.651   1.223  0.5682  0.3843  0.4950
 2865TIP3    H130086   5.341   1.586   1.155 -1.3894  0.0450  0.2946
 2865TIP3    H230087   5.290   1.601   1.297 -1.2368  1.1901  0.2408
 2866TIP3   OH230088   5.804   2.135  16.313 -0.6003  0.4212 -0.1891
 2866TIP3    H130089   5.760   2.130  16.228  3.0518  1.0764 -2.2333
 2866TIP3    H230090   5.888   2.091  16.300  0.8769  2.2276  2.4945
 2867TIP3   OH230091   6.760   5.597   2.719 -0.2322  0.2112  0.0196
 2867TIP3    H130092   6.832   5.621   2.777  1.1533 -1.7870 -0.8118
 2867TIP3    H230093   6.781   5.639   2.636 -1.2785  1.5852  0.4378
 2868TIP3   OH230094   3.118   1.633  16.175  0.0362  0.1633 -0.2462
 2868TIP3    H130095   3.085   1.659  16.090 -1.3059  0.3808  0.3331
 2868TIP3    H230096   3.189   1.571  16.155 -1.4674 -1.1955 -1.4982
 2869TIP3   OH230097   5.646   6.747   0.827 -0.1858  0.0867 -0.1106
 2869TIP3    H130098   5.564   6.727   0.873  0.1324  0.4493  0.6219
 2869TIP3    H230099   5.713   6.698   0.874 -0.0987 -0.8504 -1.2106
 2870TIP3   OH230100   2.832   0.250  13.059  0.2563  0.2939 -0.1240
 2870TIP3    H130101   2.904   0.289  13.108 -0.6237  1.9309 -0.1178
 2870TIP3    H230102   2.872   0.175  13.014  1.5906  0.1933  1.1928
 2871TIP3   OH230103   1.582   1.116  16.230 -0.0569  0.4793 -0.3462
 2871TIP3    H130104   1.599   1.022  16.222 -0.4809  0.3626  0.1687
 2871TIP3    H230105   1.548   1.141  16.144  4.4016  1.0761 -2.1152
 2872TIP3   OH230106   1.034   4.003  13.836  0.4874  0.1905 -0.5845
 2872TIP3    H130107   1.090   4.024  13.911 -0.2771  0.1557 -0.0054
 2872TIP3    H230108   1.011   4.088  13.798 -0.0458  0.2597 -0.1078
 2873TIP3   OH230109   0.582   1.756  13.752  0.0376 -0.2916 -0.1554
 2873TIP3    H130110   0.515   1.813  13.713  1.4271  2.1340  0.8657
 2873TIP3    H230111   0.534   1.700  13.813 -1.2482  0.4777 -0.4521
 2874TIP3   OH230112   5.012   6.519   0.112 -0.2318 -0.3089  0.0785
 2874TIP3    H130113   4.934   6.560   0.149 -0.0435  1.8692 -1.8807
 2874TIP3    H230114   5.085   6.571   0.147  0.1950 -0.7862 -0.0994
 2875TIP3   OH230115   4.536   0.620  14.992  0.6865  0.0772 -0.2946
 2875TIP3    H130116   4.586   0.688  15.037 -0.3036  1.5250 -1.3436
 2875TIP3    H230117   4.541   0.644  14.899 -0.2261 -0.9154 -0.6102
 2876TIP3   OH230118   1.240   3.608   0.358 -0.0295  0.4086  0.0564
 2876TIP3    H130119   1.279   3.561   0.284 -0.9863 -1.0680  0.4763
 2876TIP3    H230120   1.313   3.622   0.418  0.5250  0.6132 -0.6509
 2877TIP3   OH230121   3.593   4.147   2.575 -0.0083 -0.8405 -0.1922
 2877TIP3    H130122   3.540   4.173   2.500  0.2328 -0.6145 -0.2860
 2877TIP3    H230123   3.636   4.228   2.603 -1.0512 -0.6745  0.9605
 2878TIP3   OH230124   3.752   2.693  12.429  0.0345 -0.6858 -0.4184
 2878TIP3    H130125   3.793   2.703  12.343  1.6528 -0.1078  0.4092
 2878TIP3    H230126   3.756   2.780  12.468 -2.2161 -0.5597 -0.4106
 2879TIP3   OH230127   1.195   3.577  13.630  0.2375  0.3067  0.4540
 2879TIP3    H130128   1.266   3.531  13.586 -0.5194 -1.1001  0.6892
 2879TIP3    H230129   1.218   3.670  13.621  1.5981 -0.0875 -0.3131
 2880TIP3   OH230130   5.428   1.770  14.389  0.6905  0.0600  0.6484
 2880TIP3    H130131   5.470   1.714  14.454  0.3142 -1.3166 -0.2588
 2880TIP3    H230132   5.423   1.715  14.310 -1.8111  0.5854  0.4190
 2881TIP3   OH230133   0.280   1.986   4.844 -0.3506 -0.4593  0.3952
 2881TIP3    H130134   0.335   2.024   4.912  0.3509 -1.0723  0.1813
 2881TIP3    H230135   0.241   2.061   4.799  0.8156  0.0036  0.1377
 2882TIP3   OH230136   3.755   1.770  12.879 -0.1336 -0.1201 -0.2096
 2882TIP3    H130137   3.807   1.696  12.848 -1.2805 -0.0167 -2.5223
 2882TIP3    H230138   3.765   1.837  12.811 -1.6361  0.6651  0.3080
 2883TIP3   OH230139   5.938   1.263  16.494 -0.0066  0.4519  0.3281
 2883TIP3    H130140   6.030   1.286  16.502  0.2442  0.3208 -1.7305
 2883TIP3    H230141   5.936   1.168  16.503  0.4056  0.1916 -1.9106
 2884TIP3   OH230142   0.892   6.065  12.181  0.3250  0.4774  0.3320
 2884TIP3    H130143   0.804   6.029  12.170  0.5950 -0.2711  0.5544
 2884TIP3    H230144   0.945   6.020  12.116  0.3058  1.8252 -0.6388
 2885TIP3   OH230145   1.161   0.111  13.799 -0.6100 -0.0042 -0.3207
 2885TIP3    H130146   1.141   0.163  13.877  0.5198  1.2958 -0.8798
 2885TIP3    H230147   1.097   0.040  13.800  0.2068 -0.7473  2.4939
 2886TIP3   OH230148   1.183   3.570  12.193 -0.3482  0.4606  0.2448
 2886TIP3    H130149   1.198   3.636  12.261  1.5293  0.3428 -0.0341
 2886TIP3    H230150   1.108   3.603  12.143  0.2874  2.1522  0.3887
 2887TIP3   OH230151   4.267   6.317  11.064  0.2050  0.1217  0.3899
 2887TIP3    H130152   4.175   6.320  11.091  0.1603 -0.8606  0.3666
 2887TIP3    H230153   4.271   6.242  11.004  0.8437  0.6913 -0.2809
 2888TIP3   OH230154   6.443   2.025  14.624  0.1663  0.6151 -0.4749
 2888TIP3    H130155   6.444   2.120  14.614 -1.2181  0.6386 -0.4927
 2888TIP3    H230156   6.534   2.002  14.645  0.9980  1.6979 -2.7160
 2889TIP3   OH230157   6.209   4.745   5.670  0.1917 -0.2259 -0.0602
 2889TIP3    H130158   6.293   4.722   5.710  0.2746  0.4957  0.1790
 2889TIP3    H230159   6.228   4.819   5.613 -0.4580  0.5520  0.7172
 2890TIP3   OH230160   5.286   1.136  14.655 -0.3466 -0.2414 -0.1106
 2890TIP3    H130161   5.358   1.113  14.596 -0.1822  1.4417 -0.6087
 2890TIP3    H230162   5.207   1.121  14.604 -0.2499  0.1543 -0.3788
 2891TIP3   OH230163   3.017   2.007  13.495 -0.3952 -0.6588  0.0508
 2891TIP3    H130164   2.942   1.975  13.445 -1.1662 -1.2654  1.5704
 2891TIP3    H230165   3.050   1.930  13.541  0.0455 -0.0263  0.8021
 2892TIP3   OH230166   5.366   0.619   3.654  0.3089  0.1346 -0.3946
 2892TIP3    H130167   5.282   0.648   3.689  0.5786  0.0235  0.3489
 2892TIP3    H230168   5.354   0.526   3.634 -0.5274  0.7066 -2.6881
 2893TIP3   OH230169   1.524   5.839  12.907 -0.2190 -0.1033  0.2008
 2893TIP3    H130170   1.520   5.746  12.930  2.1657 -0.3901 -0.3878
 2893TIP3    H230171   1.455   5.880  12.959 -0.1802 -1.9489  1.7471
 2894TIP3   OH230172   3.682   1.800  15.488  0.0554  0.1041 -0.0525
 2894TIP3    H130173   3.623   1.804  15.413  0.0173  1.1602  0.0246
 2894TIP3    H230174   3.763   1.840  15.457  0.1667  0.1957  0.3538
 2895TIP3   OH230175   6.223   6.183  14.909 -0.0366  0.2194 -0.4296
 2895TIP3    H130176   6.145   6.237  14.902  1.0419  1.9922  0.8938
 2895TIP3    H230177   6.196   6.108  14.963 -1.1714  0.0801 -1.1669
 2896TIP3   OH230178   6.103   2.838  10.798 -0.1576 -0.2810  0.2613
 2896TIP3    H130179   6.151   2.823  10.717  0.7798 -0.5703  0.8663
 2896TIP3    H230180   6.062   2.924  10.785 -0.7613 -0.7286 -0.8712
 2897TIP3   OH230181   1.849   5.856  13.718  0.0748  0.4796  0.2565
 2897TIP3    H130182   1.757   5.881  13.724  0.2969  1.1781  0.8467
 2897TIP3    H230183   1.887   5.917  13.655  0.4899  1.2973  1.2674
 2898TIP3   OH230184   3.409   1.606   5.022 -0.3465 -0.4703  0.4531
 2898TIP3    H130185   3.424   1.512   5.029  1.2621 -0.1545  1.4132
 2898TIP3    H230186   3.355   1.616   4.943 -1.1993 -2.2587  0.7917
 2899TIP3   OH230187   5.848   6.028  16.862  0.7405 -0.2931 -0.6929
 2899TIP3    H130188   5.786   6.050  16.792  0.5127  1.6760  0.1166
 2899TIP3    H230189   5.931   6.067  16.834  0.2203  2.0911  0.9825
 2900TIP3   OH230190   2.048   1.001  16.173  0.0711 -0.0599 -0.5751
 2900TIP3    H130191   2.141   1.017  16.161  0.1483  1.3752  1.6647
 2900TIP3    H230192   2.035   0.911  16.143  2.4201 -0.7189  0.2529
 2901TIP3   OH230193   4.599   3.076  16.736  0.0126  0.1153 -0.2274
 2901TIP3    H130194   4.564   3.070  16.647  1.3876 -1.0889 -0.7136
 2901TIP3    H230195   4.625   2.987  16.758  1.4005  0.7128  0.6507
 2902TIP3   OH230196   4.481   2.476   2.976 -0.3710 -0.1151 -0.1209
 2902TIP3    H130197   4.548   2.414   3.004  0.5914  0.8490 -0.2687
 2902TIP3    H230198   4.409   2.421   2.944 -0.2153 -1.1786  1.3032
 2903TIP3   OH230199   3.017   4.067  13.850  0.1257 -0.7329 -0.3557
 2903TIP3    H130200   3.080   4.112  13.905 -0.2689 -1.0467  0.3607
 2903TIP3    H230201   3.051   3.978  13.842 -0.0348 -0.8014 -0.2769
 2904TIP3   OH230202   5.487   4.765   5.735 -0.1165  0.3422 -0.2842
 2904TIP3    H130203   5.398   4.742   5.761  0.3120  0.5608  1.4516
 2904TIP3    H230204   5.533   4.681   5.728 -0.2505  0.2797 -0.4111
 2905TIP3   OH230205   2.233   4.434   2.395  0.0934 -0.3267  0.5106
 2905TIP3    H130206   2.179   4.463   2.321  2.9773  1.0656 -1.1522
 2905TIP3    H230207   2.177   4.443   2.472 -2.3076  0.1427 -1.2499
 2906TIP3   OH230208   2.084   5.689   6.557 -0.2249  0.0157  0.8331
 2906TIP3    H130209   2.044   5.733   6.481  2.1406 -0.4030 -0.6924
 2906TIP3    H230210   2.126   5.612   6.521  1.2330 -0.0169  2.5283
 2907TIP3   OH230211   1.935   3.405   6.673  0.0471  0.6143 -0.0250
 2907TIP3    H130212   1.866   3.458   6.632 -1.2188 -0.3192  0.8308
 2907TIP3    H230213   1.898   3.381   6.758  2.0145  1.2651  1.0584
 2908TIP3   OH230214   3.735   5.619  10.687 -0.5694  0.3372 -0.9628
 2908TIP3    H130215   3.813   5.573  10.717 -1.1095 -0.6782 -1.0809
 2908TIP3    H230216   3.761   5.661  10.606  0.1205  0.7941 -0.5076
 2909TIP3   OH230217   1.164   0.375  16.116  0.5952 -0.4876  0.1124
 2909TIP3    H130218   1.197   0.313  16.051 -1.6535  0.5888 -2.1551
 2909TIP3    H230219   1.139   0.452  16.066 -4.2039 -0.8046  1.7411
 2910TIP3   OH230220   4.506   5.742  17.041  0.0762  0.5094  0.3288
 2910TIP3    H130221   4.470   5.806  16.980  1.0462  0.3707 -0.3921
 2910TIP3    H230222   4.569   5.792  17.093  0.3197  0.2917  0.2413
 2911TIP3   OH230223   4.012   0.003   4.858  0.3852  0.4412 -0.9558
 2911TIP3    H130224   4.026  -0.024   4.949  0.4742 -1.8648 -1.6399
 2911TIP3    H230225   3.945   0.071   4.864  0.1446  0.0787  0.8084
 2912TIP3   OH230226   5.879   5.556  11.413  0.8990 -0.6862 -0.1318
 2912TIP3    H130227   5.882   5.650  11.396 -0.0592 -0.3688  1.3613
 2912TIP3    H230228   5.964   5.536  11.452  0.5811 -0.1808  0.8190
 2913TIP3   OH230229   3.360   4.375   0.782 -0.1569 -0.0123 -0.2237
 2913TIP3    H130230   3.313   4.404   0.860  0.3920 -2.9065  1.2533
 2913TIP3    H230231   3.293   4.369   0.714 -0.7787  1.7895  0.2160
 2914TIP3   OH230232   2.162   3.560  13.641  0.1663  0.0775 -0.6401
 2914TIP3    H130233   2.216   3.621  13.692 -1.7582  2.3823 -1.2783
 2914TIP3    H230234   2.124   3.614  13.572 -2.2380 -1.6669 -0.7335
 2915TIP3   OH230235   4.610   1.878  14.988  0.2213 -0.7904 -0.2736
 2915TIP3    H130236   4.673   1.944  14.959  1.2171 -2.3705 -1.7846
 2915TIP3    H230237   4.664   1.805  15.019 -0.8571 -1.7024 -0.5173
 2916TIP3   OH230238   3.452   5.521   3.436  0.4700 -0.1441  0.0506
 2916TIP3    H130239   3.548   5.528   3.444  0.4015  0.0305  0.7262
 2916TIP3    H230240   3.421   5.516   3.526 -0.1895  0.1240 -0.1617
 2917TIP3   OH230241   4.065   3.336  16.441  0.2387  0.3412  0.5698
 2917TIP3    H130242   4.147   3.342  16.392  0.0469 -1.0229  0.0393
 2917TIP3    H230243   4.051   3.424  16.477  0.6370  1.2631 -1.4534
 2918TIP3   OH230244   3.026   5.886  16.180  0.7885  0.1644 -0.2146
 2918TIP3    H130245   3.007   5.824  16.109  2.2271 -1.8799  1.1365
 2918TIP3    H230246   3.120   5.876  16.197  1.3374  3.6974 -0.8375
 2919TIP3   OH230247   1.802   0.576   1.809  0.6447  0.3650  0.2998
 2919TIP3    H130248   1.883   0.555   1.763  1.3711 -0.9360  2.0897
 2919TIP3    H230249   1.755   0.492   1.814  0.8076  0.3639  2.2832
 2920TIP3   OH230250   5.733   2.034  13.872  0.0343  0.2982 -0.0391
 2920TIP3    H130251   5.817   2.076  13.890  0.3494 -0.9185  1.4796
 2920TIP3    H230252   5.668   2.104  13.884  0.9198  1.6711 -2.9219
 2921TIP3   OH230253   4.843   6.426  12.501  0.0614  0.0560 -0.1912
 2921TIP3    H130254   4.903   6.480  12.551  0.0030  1.1130 -1.2311
 2921TIP3    H230255   4.868   6.336  12.522 -1.3314  0.4189  3.3698
 2922TIP3   OH230256   5.347   5.360   6.472 -0.5241  0.4215 -0.8472
 2922TIP3    H130257   5.342   5.454   6.488 -0.5051  0.3463 -0.4096
 2922TIP3    H230258   5.439   5.337   6.486 -0.7191  0.1573  0.0567
 2923TIP3   OH230259   6.594   1.890  13.469  0.2019 -0.0994  0.6326
 2923TIP3    H130260   6.533   1.962  13.484  0.5841  0.7991 -1.9423
 2923TIP3    H230261   6.542   1.811  13.485 -0.8469  0.6996  1.2540
 2924TIP3   OH230262   3.869   0.657   4.773  0.4768 -0.1250 -0.6299
 2924TIP3    H130263   3.862   0.630   4.681 -0.8604 -1.0961 -0.2441
 2924TIP3    H230264   3.962   0.647   4.794  0.3105 -2.6991 -1.0281
 2925TIP3   OH230265   4.800   5.631   3.597  0.5890 -0.0081  0.6700
 2925TIP3    H130266   4.865   5.625   3.666  0.3342 -0.3154  0.8879
 2925TIP3    H230267   4.803   5.722   3.568  0.7140  0.1155  1.0667
 2926TIP3   OH230268   4.151   1.573  14.748  0.1029 -0.2087 -0.1344
 2926TIP3    H130269   4.081   1.638  14.758  0.9752  1.0447 -1.7992
 2926TIP3    H230270   4.112   1.503  14.696 -1.0805 -1.4441  2.3371
 2927TIP3   OH230271   4.636   4.199   2.322  0.8805 -0.6702  0.2253
 2927TIP3    H130272   4.662   4.165   2.408 -0.9420 -0.2100  0.9870
 2927TIP3    H230273   4.655   4.293   2.326  0.9033 -0.6681  0.0746
 2928TIP3   OH230274   2.435   1.631  16.207  0.1609 -0.4444  0.3206
 2928TIP3    H130275   2.367   1.692  16.236  0.0436  0.1570 -1.1543
 2928TIP3    H230276   2.396   1.588  16.131  1.4876  0.0277 -0.6431
 2929TIP3   OH230277   2.233   5.447   3.208 -0.6743  0.7018  0.1076
 2929TIP3    H130278   2.209   5.527   3.161 -0.9987  2.7344  3.5711
 2929TIP3    H230279   2.161   5.386   3.191 -2.1018  2.3458  0.1728
 2930TIP3   OH230280   6.196   5.155  15.586  0.0873  0.1882  0.1251
 2930TIP3    H130281   6.261   5.223  15.569  0.0932 -0.2025 -1.4545
 2930TIP3    H230282   6.151   5.184  15.666  1.9420  0.6511  1.0282
 2931TIP3   OH230283   1.808   0.841   5.514 -0.5432  0.1636 -1.4828
 2931TIP3    H130284   1.738   0.778   5.530  0.5459 -0.4185  1.2908
 2931TIP3    H230285   1.762   0.925   5.504 -1.7248 -0.3608 -0.6182
 2932TIP3   OH230286   4.114   0.129   2.159  0.0518  0.1596 -0.1969
 2932TIP3    H130287   4.150   0.082   2.235 -1.0037 -0.3836 -0.0225
 2932TIP3    H230288   4.019   0.128   2.173  0.0144  2.6359 -0.0198
 2933TIP3   OH230289   3.750   5.389   1.321  0.1806  0.3181 -0.5940
 2933TIP3    H130290   3.803   5.437   1.257  1.0584  3.3512  2.2731
 2933TIP3    H230291   3.809   5.375   1.395 -1.9927  0.6909  1.2641
 2934TIP3   OH230292   1.614   6.350   1.188  0.0953 -0.0436 -0.1745
 2934TIP3    H130293   1.626   6.445   1.199 -0.0138  0.0426 -0.7988
 2934TIP3    H230294   1.605   6.317   1.278  1.7016  0.3263  0.1322
 2935TIP3   OH230295   1.277   2.385   1.448  0.4880  0.5066 -0.4625
 2935TIP3    H130296   1.252   2.311   1.503  0.0053 -0.2847 -1.7113
 2935TIP3    H230297   1.202   2.396   1.389  1.3909  0.7109 -1.5787
 2936TIP3   OH230298   2.452   2.416  12.370 -0.6693 -0.3016  0.1087
 2936TIP3    H130299   2.460   2.510  12.383 -0.8394 -0.3470  0.5465
 2936TIP3    H230300   2.427   2.382  12.456  0.8914 -0.9306  0.3134
 2937TIP3   OH230301   5.230   3.627  15.884 -0.3005 -0.2485 -0.3389
 2937TIP3    H130302   5.214   3.721  15.890  3.7168  0.4941 -0.0570
 2937TIP3    H230303   5.193   3.591  15.964 -0.8887  1.2272  0.0673
 2938TIP3   OH230304   2.691   3.491   0.400 -0.2310  0.3682  0.1121
 2938TIP3    H130305   2.636   3.425   0.442 -0.6726  1.2257  0.8979
 2938TIP3    H230306   2.706   3.457   0.312 -2.8402  0.5630 -0.4573
 2939TIP3   OH230307   1.350   0.324   2.077  0.7642  0.0348 -0.2359
 2939TIP3    H130308   1.318   0.320   1.987  1.7492 -1.4959 -0.5414
 2939TIP3    H230309   1.371   0.417   2.091 -0.9790  0.5745 -0.9914
 2940TIP3   OH230310   2.154   0.943   1.347 -0.2423 -0.0287 -0.1340
 2940TIP3    H130311   2.245   0.964   1.324  0.3390 -0.9480  1.2456
 2940TIP3    H230312   2.127   0.879   1.281  0.9437 -1.6130  0.8944
 2941TIP3   OH230313   1.876   1.452  13.005  0.1935 -0.1415  0.5145
 2941TIP3    H130314   1.812   1.498  13.059 -0.4305 -0.7354  0.2898
 2941TIP3    H230315   1.835   1.367  12.987  0.6193 -0.1460 -0.4516
 2942TIP3   OH230316   6.323   5.418   5.582  0.6580  0.6397 -0.7033
 2942TIP3    H130317   6.279   5.409   5.497  0.0680 -1.8346 -0.1646
 2942TIP3    H230318   6.254   5.446   5.642  0.5961  0.2666 -0.5990
 2943TIP3   OH230319   0.191   3.414   0.474 -0.2840 -0.0908  0.2860
 2943TIP3    H130320   0.124   3.381   0.533 -0.4440 -1.7068 -0.7761
 2943TIP3    H230321   0.193   3.509   0.490 -1.6812 -0.2560  1.4609
 2944TIP3   OH230322   4.906   6.554  13.035  0.0211 -0.6527 -0.1009
 2944TIP3    H130323   4.811   6.565  13.039 -0.0296 -1.5367  1.1545
 2944TIP3    H230324   4.934   6.549  13.126  1.0162 -2.6795 -0.4944
 2945TIP3   OH230325   6.725   6.188   5.480 -0.6815 -0.3011  0.3895
 2945TIP3    H130326   6.740   6.191   5.385  1.5687 -0.4168  0.7097
 2945TIP3    H230327   6.713   6.279   5.505 -0.0035 -0.1433  0.1662
 2946TIP3   OH230328   4.209   5.013  16.738  0.6170  0.1200  0.0649
 2946TIP3    H130329   4.278   5.035  16.676 -0.7511 -0.4851 -1.7261
 2946TIP3    H230330   4.156   5.092  16.745  1.4118  0.5577  1.3786
 2947TIP3   OH230331   0.904   0.584  13.082  0.2068  0.5990  0.2586
 2947TIP3    H130332   0.914   0.527  13.159  1.1882  2.1532  1.2930
 2947TIP3    H230333   0.812   0.573  13.056  0.4710 -1.7448  0.2035
 2948TIP3   OH230334   1.410   3.822  14.362  0.3363  0.0253  0.1290
 2948TIP3    H130335   1.383   3.730  14.355 -0.1576  0.0950  1.0554
 2948TIP3    H230336   1.384   3.861  14.278  0.7528 -0.7301 -0.3631
 2949TIP3   OH230337   4.098   0.256  15.611  0.0538 -0.3205 -0.3842
 2949TIP3    H130338   4.163   0.316  15.574 -1.3699  2.1775  1.0332
 2949TIP3    H230339   4.135   0.231  15.696  0.7514 -1.6692 -1.0717
 2950TIP3   OH230340   1.011   5.625  16.891  0.4822  0.2453  0.3891
 2950TIP3    H130341   0.982   5.589  16.807  2.2538 -0.4120  0.0466
 2950TIP3    H230342   1.045   5.711  16.870  0.6842  0.1867  0.4789
 2951TIP3   OH230343   5.796   6.507  11.061  0.0668  0.2461  0.1721
 2951TIP3    H130344   5.728   6.453  11.020 -1.1462  2.1807 -0.4553
 2951TIP3    H230345   5.871   6.448  11.071 -1.5974 -1.8815  0.6472
 2952TIP3   OH230346   1.861   0.074   0.179  0.3101  0.4690  0.4149
 2952TIP3    H130347   1.892   0.002   0.235  1.8695  0.8291  0.0378
 2952TIP3    H230348   1.916   0.069   0.101 -1.1762  0.6033 -0.6663
 2953TIP3   OH230349   2.535   2.963   6.707  0.0907  0.4372 -0.5819
 2953TIP3    H130350   2.529   3.057   6.692  1.1675  0.5230 -0.5195
 2953TIP3    H230351   2.546   2.925   6.620 -1.1961  0.2888 -0.6896
 2954TIP3   OH230352   3.023   5.560  12.110  0.8221  0.0811 -0.6378
 2954TIP3    H130353   2.958   5.588  12.175  1.7861  1.2636 -0.1651
 2954TIP3    H230354   3.070   5.489  12.152 -1.6416 -2.3715 -1.8419
 2955TIP3   OH230355   0.403   5.913  13.867 -0.4238  0.4145 -0.0741
 2955TIP3    H130356   0.434   5.922  13.958 -2.6290  0.4424  0.7086
 2955TIP3    H230357   0.311   5.939  13.871 -1.1253 -1.6455 -1.9183
 2956TIP3   OH230358   1.408   2.706  11.966  0.4073 -0.6912 -0.5737
 2956TIP3    H130359   1.323   2.670  11.940 -0.2858  0.8928 -0.5584
 2956TIP3    H230360   1.445   2.743  11.886 -0.5966  1.9210  0.1121
 2957TIP3   OH230361   3.060   3.231  14.311 -0.0854 -0.1401  0.3117
 2957TIP3    H130362   3.023   3.148  14.282 -1.1116  0.5311 -0.3297
 2957TIP3    H230363   3.008   3.254  14.388  0.7271 -0.4746  0.9742
 2958TIP3   OH230364   1.441   6.546  13.118 -0.0751 -0.6741 -0.2215
 2958TIP3    H130365   1.379   6.596  13.172 -1.8073 -1.5281 -1.3649
 2958TIP3    H230366   1.386   6.504  13.052  0.9305 -6.0118  2.0835
 2959TIP3   OH230367   0.127   2.423   5.059 -0.2282  0.1028 -0.2367
 2959TIP3    H130368   0.214   2.402   5.025 -0.1263  1.0795 -0.5954
 2959TIP3    H230369   0.091   2.338   5.085  1.0088 -0.2631  0.3564
 2960TIP3   OH230370   2.350   1.228  15.079 -0.2515  0.0114 -0.1501
 2960TIP3    H130371   2.421   1.165  15.064 -0.5678  0.1160 -2.2213
 2960TIP3    H230372   2.387   1.291  15.140  1.1682 -0.4105 -0.5497
 2961TIP3   OH230373   1.688   1.639  17.039  0.6538  0.0666  0.1516
 2961TIP3    H130374   1.627   1.710  17.057 -0.2693 -0.1183 -2.0737
 2961TIP3    H230375   1.687   1.586  17.119 -3.4161 -0.8641 -0.4058
 2962TIP3   OH230376   5.195   3.925   2.472 -0.1580 -0.2179 -0.9374
 2962TIP3    H130377   5.115   3.948   2.521 -0.4516  0.9070 -1.9245
 2962TIP3    H230378   5.210   3.833   2.494 -1.3699 -0.2699 -0.2395
 2963TIP3   OH230379   1.220   1.731  11.933 -0.2261 -0.4252  0.5022
 2963TIP3    H130380   1.198   1.817  11.897 -0.6528 -0.3754  0.8810
 2963TIP3    H230381   1.240   1.748  12.026  0.2068 -0.6562  0.4546
 2964TIP3   OH230382   0.415   0.006  15.230  0.6508  0.2975 -0.4562
 2964TIP3    H130383   0.328  -0.015  15.195  0.6981 -0.5892 -0.0556
 2964TIP3    H230384   0.443  -0.074  15.274  0.0730  1.7526  2.6973
 2965TIP3   OH230385   6.561   0.922  12.340 -0.1308 -0.0656  0.2685
 2965TIP3    H130386   6.621   0.991  12.369  0.4132 -0.6883  0.6283
 2965TIP3    H230387   6.568   0.854  12.408  0.3989 -1.0925 -0.8017
 2966TIP3   OH230388   2.818   2.129  12.575  0.1275 -0.2167  0.3855
 2966TIP3    H130389   2.741   2.095  12.530  0.1282 -1.2102  1.1184
 2966TIP3    H230390   2.864   2.181  12.509  1.0368 -3.0257 -1.2937
 2967TIP3   OH230391   6.032   2.269   3.606  0.3212  0.1015  0.1304
 2967TIP3    H130392   6.050   2.175   3.594  0.6615  0.4413 -2.3073
 2967TIP3    H230393   5.937   2.276   3.599  0.3192 -0.0308  0.0162
 2968TIP3   OH230394   1.760   5.161   3.287 -0.0911 -0.1692  0.6427
 2968TIP3    H130395   1.847   5.175   3.324  1.1054 -0.4406 -1.9946
 2968TIP3    H230396   1.708   5.126   3.359  1.7420  0.7893  2.4654
 2969TIP3   OH230397   5.049   1.683   2.262  0.3103 -0.0388 -0.5163
 2969TIP3    H130398   5.021   1.761   2.310 -0.9539 -0.7346 -0.1077
 2969TIP3    H230399   5.044   1.709   2.170 -1.5010 -0.0930 -0.4375
 2970TIP3   OH230400   3.624   5.861  12.487 -0.3050  0.1421  0.1984
 2970TIP3    H130401   3.628   5.816  12.572  1.7581  1.4789  0.8353
 2970TIP3    H230402   3.698   5.922  12.488  0.8490 -1.0699 -3.2777
 2971TIP3   OH230403   2.809   1.623   5.548  0.4922 -0.5160 -0.0449
 2971TIP3    H130404   2.728   1.674   5.539  0.3883 -0.9638 -1.9382
 2971TIP3    H230405   2.877   1.688   5.561 -0.0775 -0.0892  0.8226
 2972TIP3   OH230406   6.105   6.124  16.210 -0.6039  0.2451  0.6350
 2972TIP3    H130407   6.071   6.184  16.277 -1.8716  0.2059  0.0279
 2972TIP3    H230408   6.054   6.143  16.132 -0.6805 -1.2852  0.2984
 2973TIP3   OH230409   4.177   1.371  15.833  0.7382  0.0513 -0.0077
 2973TIP3    H130410   4.244   1.339  15.772  0.1123 -0.7095 -0.2882
 2973TIP3    H230411   4.130   1.438  15.783  0.9333  0.2057  0.0121
 2974TIP3   OH230412   4.318   1.098   5.232  0.0091  0.6018 -0.2140
 2974TIP3    H130413   4.278   1.084   5.147 -0.8730  1.2137  0.0923
 2974TIP3    H230414   4.411   1.082   5.218 -0.1594  0.5107 -1.2417
 2975TIP3   OH230415   1.645   5.419  16.540  0.7130 -0.1031  0.0328
 2975TIP3    H130416   1.660   5.471  16.618  1.7915 -1.2840  0.6299
 2975TIP3    H230417   1.713   5.447  16.478  1.0838 -0.5437  0.2345
 2976TIP3   OH230418   1.348   2.020  10.522 -0.4416  0.3467 -0.2412
 2976TIP3    H130419   1.364   2.062  10.437  1.4414  0.4255  0.1144
 2976TIP3    H230420   1.394   2.076  10.585 -0.2625 -0.7174  0.5837
 2977TIP3   OH230421   1.765   3.691  12.398 -0.0346 -0.3803 -0.3066
 2977TIP3    H130422   1.773   3.703  12.303 -0.2765 -0.7268 -0.3722
 2977TIP3    H230423   1.672   3.701  12.416  0.0810  0.1882 -0.0357
 2978TIP3   OH230424   4.452   6.735   5.058  0.3539  0.4299 -0.3368
 2978TIP3    H130425   4.535   6.781   5.040  0.8247 -0.7472 -1.2263
 2978TIP3    H230426   4.463   6.702   5.148  0.4147  1.1831 -0.0581
 2979TIP3   OH230427   5.407   0.712   0.771  0.1044 -0.5929 -0.0583
 2979TIP3    H130428   5.491   0.738   0.732 -0.4753 -1.3970 -1.8676
 2979TIP3    H230429   5.375   0.641   0.716 -1.8501 -0.2006  0.5151
 2980TIP3   OH230430   5.148   5.247  14.390 -0.6104 -0.0706  1.6024
 2980TIP3    H130431   5.152   5.161  14.432  0.2817 -0.2210  1.2296
 2980TIP3    H230432   5.102   5.233  14.308  0.2685 -0.3670  1.1496
 2981TIP3   OH230433   2.900   5.353   0.324  0.5981  0.3756  0.4623
 2981TIP3    H130434   2.922   5.348   0.417 -0.0393  1.3187  0.6729
 2981TIP3    H230435   2.960   5.418   0.288  0.0565  0.8955  0.4719
 2982TIP3   OH230436   5.638   6.600  14.406 -1.0170  0.7221 -0.3552
 2982TIP3    H130437   5.725   6.564  14.417 -1.5854 -1.0917 -1.7134
 2982TIP3    H230438   5.595   6.585  14.491 -0.5090  0.2208 -0.1868
 2983TIP3   OH230439   1.256   1.596  12.571  0.0132 -0.1621  0.2766
 2983TIP3    H130440   1.262   1.530  12.641 -0.4700 -0.2395  0.2469
 2983TIP3    H230441   1.179   1.647  12.593 -0.1532 -0.1995 -0.2147
 2984TIP3   OH230442   3.644   5.894   4.319  0.6567  0.3228 -0.1440
 2984TIP3    H130443   3.551   5.873   4.307  0.4113  0.7378  1.0219
 2984TIP3    H230444   3.675   5.829   4.382  0.8813  0.8941  0.3389
 2985TIP3   OH230445   6.705   2.619   5.459 -0.2814  0.5601 -0.1479
 2985TIP3    H130446   6.644   2.615   5.385 -1.8559  0.5108  1.1260
 2985TIP3    H230447   6.791   2.622   5.419 -0.9031 -3.3700 -1.9452
 2986TIP3   OH230448   5.707   3.597   1.610  0.3271  0.0494 -0.1784
 2986TIP3    H130449   5.665   3.538   1.548  1.0539  0.8717 -1.4783
 2986TIP3    H230450   5.763   3.652   1.556  2.1112 -0.1998  1.3959
 2987TIP3   OH230451   1.866   0.603   0.075 -0.2225  0.8671  0.4022
 2987TIP3    H130452   1.841   0.606   0.167  1.0593  0.6370  0.7793
 2987TIP3    H230453   1.919   0.683   0.063  0.8049  0.1733  0.2463
 2988TIP3   OH230454   0.944   1.641  10.803 -0.1131  0.5910 -0.4067
 2988TIP3    H130455   0.894   1.722  10.818  0.0312  1.3226 -3.5956
 2988TIP3    H230456   1.033   1.671  10.785  0.1063 -0.3435 -0.8863
 2989TIP3   OH230457   2.287   0.859   1.576  0.1205  0.3115 -0.2456
 2989TIP3    H130458   2.234   0.884   1.652 -0.2373  0.7728 -0.6385
 2989TIP3    H230459   2.228   0.871   1.501  1.2431  2.3849 -0.8445
 2990TIP3   OH230460   2.838   0.823   3.261 -0.9968 -0.6293  0.2695
 2990TIP3    H130461   2.915   0.832   3.205 -0.5451  0.9834  1.1091
 2990TIP3    H230462   2.790   0.905   3.249 -2.1962 -1.3034  0.3400
 2991TIP3   OH230463   2.834   2.183  15.202 -0.1891 -0.1902  0.1341
 2991TIP3    H130464   2.901   2.224  15.256  2.4765 -1.6424 -1.9334
 2991TIP3    H230465   2.798   2.254  15.149  1.2183  0.2519 -0.2397
 2992TIP3   OH230466   0.305   2.811  11.365 -0.1430  0.4776 -0.4766
 2992TIP3    H130467   0.254   2.850  11.435  0.6796 -0.3692  0.6173
 2992TIP3    H230468   0.317   2.882  11.302 -0.5359  1.3664  0.4278
 2993TIP3   OH230469   5.464   0.608   1.252  0.2200  0.0223  0.2694
 2993TIP3    H130470   5.438   0.533   1.199  1.7596 -0.1770 -0.2196
 2993TIP3    H230471   5.535   0.575   1.308  1.2915  1.2446 -0.3414
 2994TIP3   OH230472   4.227   1.888   3.257 -0.0226  0.2479 -0.1130
 2994TIP3    H130473   4.135   1.904   3.278  0.2339 -0.3696  1.5472
 2994TIP3    H230474   4.248   1.808   3.304  1.0846 -0.2041 -1.3483
 2995TIP3   OH230475   0.841   4.646   2.313 -0.5200 -0.3287 -0.0747
 2995TIP3    H130476   0.894   4.725   2.312 -1.1432  0.1454  1.7791
 2995TIP3    H230477   0.904   4.574   2.309  0.1528  0.2491  0.1585
 2996TIP3   OH230478   4.076   5.796  13.434  0.4480 -0.4653 -0.4529
 2996TIP3    H130479   3.984   5.788  13.457  0.9026  0.2238  1.6770
 2996TIP3    H230480   4.077   5.853  13.357 -0.9044 -0.5533 -0.5384
 2997TIP3   OH230481   2.098   6.439  11.973  0.4636  0.1465  0.1446
 2997TIP3    H130482   2.172   6.404  12.022  0.2054 -1.3792 -0.5461
 2997TIP3    H230483   2.042   6.364  11.956 -0.8821  1.1635  0.0172
 2998TIP3   OH230484   3.903   1.720  15.066  0.2863  0.7112 -0.3037
 2998TIP3    H130485   3.995   1.733  15.091  0.2565  0.6993 -0.1857
 2998TIP3    H230486   3.902   1.733  14.971  0.7066 -0.9846 -0.5453
 2999TIP3   OH230487   1.388   1.341   4.229  0.2490 -0.2124 -0.0075
 2999TIP3    H130488   1.387   1.250   4.258 -0.6392  0.0975  0.9851
 2999TIP3    H230489   1.429   1.339   4.143  0.9268 -1.4498  0.3356
 3000TIP3   OH230490   4.467   5.512  16.794 -0.2609 -0.6361 -0.1778
 3000TIP3    H130491   4.498   5.512  16.885 -1.9547  2.3411  0.4606
 3000TIP3    H230492   4.527   5.452  16.749  3.5530  1.3106  1.9578
 3001TIP3   OH230493   6.314   4.825  11.563 -0.1243 -0.2238  0.0841
 3001TIP3    H130494   6.230   4.798  11.527 -0.1935  0.6158 -0.3946
 3001TIP3    H230495   6.308   4.920  11.571  1.4045  0.0422 -1.6254
 3002TIP3   OH230496   6.663   5.545   5.653  0.0332 -0.5220 -0.1159
 3002TIP3    H130497   6.753   5.577   5.645  0.0475 -0.7801 -1.1141
 3002TIP3    H230498   6.669   5.467   5.709  0.1908  0.4136  1.1782
 3003TIP3   OH230499   2.827   4.398   1.714 -0.4356 -0.9042 -0.2230
 3003TIP3    H130500   2.851   4.329   1.775 -1.8605 -1.2597 -0.0597
 3003TIP3    H230501   2.819   4.477   1.768 -2.8296 -1.4471  0.2655
 3004TIP3   OH230502   2.023   0.353   3.932 -0.8278  0.1289  0.2591
 3004TIP3    H130503   2.067   0.437   3.950 -0.1497 -0.3787  0.9751
 3004TIP3    H230504   2.063   0.291   3.993 -0.1189 -1.1119 -1.4258
 3005TIP3   OH230505   2.467   1.157   0.036 -0.2773  0.4769  0.0023
 3005TIP3    H130506   2.508   1.173   0.121 -1.4330  1.9386  0.2898
 3005TIP3    H230507   2.453   1.244  -0.002 -0.3781 -0.1317 -1.3961
 3006TIP3   OH230508   2.272   2.498   5.715 -0.2028 -0.2764  0.0121
 3006TIP3    H130509   2.324   2.424   5.684  1.1058  0.0161  1.4296
 3006TIP3    H230510   2.234   2.467   5.798  1.6017  1.1220  1.4116
 3007TIP3   OH230511   6.119   0.361  16.980 -0.5040 -0.5784  0.0356
 3007TIP3    H130512   6.035   0.406  16.980  0.4902  1.3022  0.8372
 3007TIP3    H230513   6.156   0.378  17.066  0.2557 -2.2776  0.0645
 3008TIP3   OH230514   5.361   4.780   0.117 -0.4527  0.3732  0.2700
 3008TIP3    H130515   5.329   4.853   0.063 -0.6915 -0.5920 -0.9384
 3008TIP3    H230516   5.368   4.707   0.055  2.8203  0.1825  0.7843
 3009TIP3   OH230517   2.113   4.350   4.143  0.4652  0.1501 -0.3405
 3009TIP3    H130518   2.046   4.349   4.211  1.5760  0.6334  0.7828
 3009TIP3    H230519   2.070   4.313   4.066 -0.2887 -2.0720  1.1037
 3010TIP3   OH230520   0.416   3.881  16.077 -0.1177  0.1216 -0.0265
 3010TIP3    H130521   0.443   3.803  16.125  0.5818  0.7160  0.5516
 3010TIP3    H230522   0.342   3.916  16.127  0.9335  1.0264  0.9201
 3011TIP3   OH230523   6.127   5.853  16.267 -0.2908  0.2862 -0.0144
 3011TIP3    H130524   6.176   5.817  16.193 -0.9331  1.0417 -0.8217
 3011TIP3    H230525   6.124   5.947  16.249  0.2734  0.5903  1.4114
 3012TIP3   OH230526   2.421   3.089  11.135  0.2659  0.0904 -0.1826
 3012TIP3    H130527   2.479   3.164  11.121  0.9551 -0.1996  1.0476
 3012TIP3    H230528   2.388   3.068  11.048  0.5660  1.4170 -0.6312
 3013TIP3   OH230529   0.976   5.451   5.064 -0.1754  0.1593  0.4481
 3013TIP3    H130530   1.015   5.525   5.110  0.8197 -0.1001  0.0364
 3013TIP3    H230531   0.932   5.490   4.989 -0.7614  0.4559  0.9351
 3014TIP3   OH230532   0.874   5.637   1.980 -0.4859  0.4288 -0.7065
 3014TIP3    H130533   0.825   5.700   2.033 -1.3210  0.5129 -1.5736
 3014TIP3    H230534   0.807   5.586   1.935  0.2132  0.0986 -1.3813
 3015TIP3   OH230535   4.602   0.322   3.018 -0.2496 -0.2721 -1.0231
 3015TIP3    H130536   4.674   0.260   3.012 -0.6740 -0.8546 -0.2700
 3015TIP3    H230537   4.581   0.326   3.111 -2.0304 -1.1218 -1.3476
 3016TIP3   OH230538   1.662   6.243   0.677  0.0831 -0.0884  0.5716
 3016TIP3    H130539   1.633   6.181   0.743 -0.5332  0.7011  1.0592
 3016TIP3    H230540   1.715   6.306   0.725 -0.3877  0.5071  0.3256
 3017TIP3   OH230541   3.733   0.136  11.420  0.1203 -0.1574  0.1295
 3017TIP3    H130542   3.707   0.044  11.413 -0.7529  0.0342  0.7474
 3017TIP3    H230543   3.794   0.149  11.347  0.3226 -1.2463  0.0889
 3018TIP3   OH230544   3.250   3.146  15.361  0.3579 -1.1219  0.5252
 3018TIP3    H130545   3.319   3.083  15.340  0.6654 -1.4128  2.2766
 3018TIP3    H230546   3.181   3.093  15.400 -0.5423 -0.7304 -0.5338
 3019TIP3   OH230547   4.250   1.115   1.905  0.1469  0.3706  0.3223
 3019TIP3    H130548   4.323   1.059   1.932  0.1045  1.2273  2.3279
 3019TIP3    H230549   4.175   1.055   1.899  0.3769 -0.0144  1.2013
 3020TIP3   OH230550   6.253   3.223   4.548 -0.0063  0.1049  0.0835
 3020TIP3    H130551   6.193   3.277   4.599  0.4366 -1.9255  2.8320
 3020TIP3    H230552   6.196   3.177   4.485 -0.6913  1.7552 -0.5341
 3021TIP3   OH230553   4.806   3.121  12.653 -0.1771  0.6885 -0.7779
 3021TIP3    H130554   4.776   3.052  12.594 -0.2033 -0.3231  0.3984
 3021TIP3    H230555   4.900   3.106  12.662 -0.3931 -0.0097  0.5014
 3022TIP3   OH230556   3.411   4.275   0.051  0.9572 -0.2749  0.3707
 3022TIP3    H130557   3.455   4.231   0.124  1.2121 -0.5994  0.0262
 3022TIP3    H230558   3.389   4.204  -0.010  0.9603  0.0229  0.0238
 3023TIP3   OH230559   1.012   0.357   0.922  0.1800  0.2737  0.3976
 3023TIP3    H130560   0.959   0.285   0.956 -0.6867  1.4676  1.6899
 3023TIP3    H230561   1.102   0.336   0.947  0.1577 -1.1744 -0.7321
 3024TIP3   OH230562   0.318   5.346  16.126 -0.0987 -0.0841  0.5686
 3024TIP3    H130563   0.228   5.348  16.159  0.2872 -1.4996  1.7734
 3024TIP3    H230564   0.372   5.370  16.202  0.5821 -0.0810  0.0870
 3025TIP3   OH230565   2.909   0.817   1.693 -0.0176  0.3696  0.1780
 3025TIP3    H130566   2.897   0.901   1.647  2.9516  0.9625  0.3728
 3025TIP3    H230567   2.922   0.842   1.784  1.3747 -0.2395  0.1551
 3026TIP3   OH230568   3.649   0.856   3.028  0.1660 -0.0565  0.1616
 3026TIP3    H130569   3.714   0.854   2.957 -0.2678 -0.4297 -0.2238
 3026TIP3    H230570   3.685   0.797   3.095  0.9193  0.8341  0.5595
 3027TIP3   OH230571   0.338   4.820  10.499  0.2267  0.3695  0.2027
 3027TIP3    H130572   0.365   4.759  10.430  0.4735  1.0104 -0.2719
 3027TIP3    H230573   0.419   4.845  10.542  0.0713 -0.0339  0.7289
 3028TIP3   OH230574   4.046   4.592   3.929  0.4759  0.2594 -0.1803
 3028TIP3    H130575   4.082   4.677   3.953  1.6832  0.1160 -1.4220
 3028TIP3    H230576   4.122   4.534   3.925 -0.2198 -0.6588 -0.2906
 3029TIP3   OH230577   1.347   2.981   5.530 -0.1398 -0.0245  0.1429
 3029TIP3    H130578   1.267   2.986   5.477 -1.2121  1.0159  1.8082
 3029TIP3    H230579   1.410   3.037   5.484 -1.2195  1.2866  0.2179
 3030TIP3   OH230580   6.818   5.816   0.475  0.3794 -0.0105  0.9443
 3030TIP3    H130581   6.826   5.898   0.523 -1.4042  0.3665  0.6108
 3030TIP3    H230582   6.908   5.796   0.447  0.8727  1.6428  1.3050
 3031TIP3   OH230583   4.518   6.009   0.559  0.1335  0.2593  0.1387
 3031TIP3    H130584   4.464   6.026   0.636 -0.1622  0.7715 -0.1792
 3031TIP3    H230585   4.608   6.011   0.592 -0.0231 -0.3493  0.6227
 3032TIP3   OH230586   1.633   2.505   1.298 -0.0787 -0.2159  0.0121
 3032TIP3    H130587   1.573   2.466   1.234  1.0528 -0.4134 -0.9454
 3032TIP3    H230588   1.600   2.594   1.311 -0.3501 -0.1913 -0.8096
 3033TIP3   OH230589   0.384   5.041   4.051  0.4104  0.1543 -0.3176
 3033TIP3    H130590   0.387   5.002   4.139  2.0086  1.2716  0.1383
 3033TIP3    H230591   0.459   5.004   4.005 -1.0084 -1.2240 -1.5848
 3034TIP3   OH230592   4.673   0.905   3.055  0.1769  0.2545 -0.1206
 3034TIP3    H130593   4.616   0.915   3.132  0.9817  1.1648  0.3651
 3034TIP3    H230594   4.632   0.835   3.004  0.1462 -1.0379  1.6190
 3035TIP3   OH230595   4.017   3.294   1.580  0.4286 -0.0749  0.1373
 3035TIP3    H130596   3.960   3.243   1.522  0.3842 -1.4250  1.3720
 3035TIP3    H230597   3.977   3.382   1.580  0.0070 -0.2489 -1.2903
 3036TIP3   OH230598   2.378   3.423  13.377 -0.4131  0.2424 -0.1260
 3036TIP3    H130599   2.342   3.423  13.465  0.8670 -2.5725  0.4653
 3036TIP3    H230600   2.436   3.347  13.375  0.7894  1.1597 -2.9134
 3037TIP3   OH230601   3.898   6.650   5.956 -0.8180  0.2519 -0.4812
 3037TIP3    H130602   3.885   6.666   6.049 -0.9110 -2.3012 -0.0325
 3037TIP3    H230603   3.815   6.615   5.925 -0.0041 -1.2902 -0.9693
 3038TIP3   OH230604   2.143   5.579   1.093  0.4266 -0.0025 -0.3520
 3038TIP3    H130605   2.098   5.605   1.012 -2.3106 -1.0299  0.7517
 3038TIP3    H230606   2.139   5.483   1.093  0.3902 -0.0119  0.9962
 3039TIP3   OH230607   6.120   3.884  11.152 -0.3350  0.2073 -0.0637
 3039TIP3    H130608   6.110   3.897  11.057 -0.8361 -0.2595 -0.0801
 3039TIP3    H230609   6.156   3.967  11.184 -0.5477  0.5133 -0.6034
 3040TIP3   OH230610   2.022   4.055  15.769  0.2738  0.3053 -0.1704
 3040TIP3    H130611   1.987   3.995  15.834  0.9352  0.4811  0.3540
 3040TIP3    H230612   2.110   4.021  15.750 -0.7564 -1.1531 -2.7470
 3041TIP3   OH230613   1.181   6.195  12.603  0.0338 -0.2421  0.5494
 3041TIP3    H130614   1.234   6.126  12.643 -0.7368 -1.2448 -0.1410
 3041TIP3    H230615   1.208   6.275  12.648  1.5458 -0.8614  0.7568
 3042TIP3   OH230616   4.654   5.270   3.968 -0.0226 -0.5205 -0.1342
 3042TIP3    H130617   4.711   5.345   3.950 -1.2444  0.3378 -0.5050
 3042TIP3    H230618   4.569   5.295   3.930 -0.4136 -2.1289 -0.3506
 3043TIP3   OH230619   4.097   1.314  13.312 -0.0093 -0.0414  0.4319
 3043TIP3    H130620   4.099   1.298  13.407  0.5155  0.8507  0.5678
 3043TIP3    H230621   4.182   1.351  13.292 -0.8500  1.6677 -0.0641
 3044TIP3   OH230622   0.233   5.672  13.806 -0.2829  0.3729  1.0592
 3044TIP3    H130623   0.157   5.699  13.755  0.7716  1.1460 -0.1535
 3044TIP3    H230624   0.236   5.733  13.880 -0.3486  0.9132  0.6235
 3045TIP3   OH230625   6.174   4.857   4.919  0.0254 -0.7141  0.3226
 3045TIP3    H130626   6.100   4.853   4.980 -0.8033  1.4448 -0.4992
 3045TIP3    H230627   6.235   4.919   4.959  0.5091 -0.9811  0.0152
 3046TIP3   OH230628   4.794   0.360  14.218  0.3678 -0.6965 -0.2544
 3046TIP3    H130629   4.800   0.332  14.310  0.3392  0.5359  0.1284
 3046TIP3    H230630   4.703   0.342  14.194  0.4288 -1.2148 -0.1116
 3047TIP3   OH230631   3.068   6.642  11.552 -0.0794 -0.4275  0.5506
 3047TIP3    H130632   3.102   6.554  11.569 -1.8611 -1.1656  0.3591
 3047TIP3    H230633   3.086   6.656  11.459 -0.1278 -0.7235  0.4957
 3048TIP3   OH230634   0.029   1.524  16.790 -0.5223  0.0241 -0.0023
 3048TIP3    H130635   0.054   1.434  16.812 -0.2837 -0.1842 -1.1129
 3048TIP3    H230636  -0.059   1.534  16.827 -1.0764 -1.0891 -0.9893
 3049TIP3   OH230637   1.875   1.358  12.362  0.8245  0.6181 -0.1789
 3049TIP3    H130638   1.920   1.333  12.443 -1.4034 -0.8814  0.6401
 3049TIP3    H230639   1.811   1.423  12.390 -1.1260 -1.1514 -0.4006
 3050TIP3   OH230640   5.457   1.201   2.082 -0.1229 -0.5436  0.1997
 3050TIP3    H130641   5.527   1.236   2.027 -0.5075 -0.0524  0.0178
 3050TIP3    H230642   5.377   1.218   2.032 -0.4427 -0.3854  0.7648
 3051TIP3   OH230643   1.450   2.552  15.627 -0.2225 -0.1753  0.0680
 3051TIP3    H130644   1.456   2.459  15.648 -1.6306 -0.0629  1.0467
 3051TIP3    H230645   1.381   2.585  15.685  0.2506  1.4704 -0.2833
 3052TIP3   OH230646   4.947   1.798  16.397  0.5806  0.4293  0.1302
 3052TIP3    H130647   4.948   1.826  16.306  0.6013  0.9028  0.2769
 3052TIP3    H230648   4.915   1.708  16.394  1.8675 -0.0168 -0.4775
 3053TIP3   OH230649   6.522   2.332  17.064 -0.1400 -0.1280  0.7095
 3053TIP3    H130650   6.543   2.419  17.100 -1.2456 -0.8356  3.1519
 3053TIP3    H230651   6.523   2.345  16.969  0.4315  2.3900  1.0126
 3054TIP3   OH230652   1.869   6.088  16.215  0.0655  0.0910 -0.5359
 3054TIP3    H130653   1.830   6.132  16.140  0.6511 -0.0034 -0.8968
 3054TIP3    H230654   1.962   6.112  16.212  0.3773 -1.0998 -0.6888
 3055TIP3   OH230655   1.693   4.093   2.893 -0.0951  0.0452 -0.6800
 3055TIP3    H130656   1.667   4.090   2.985 -0.6573 -0.8275 -0.8567
 3055TIP3    H230657   1.783   4.125   2.894 -0.3335  0.6945  0.1293
 3056TIP3   OH230658   2.307   4.959  15.840  0.3549 -0.6267  0.1784
 3056TIP3    H130659   2.263   4.890  15.889 -0.9258  0.4311  0.5375
 3056TIP3    H230660   2.238   4.999  15.787  0.6128  1.8771  1.6941
 3057TIP3   OH230661   4.402   3.739   5.530 -0.6297  0.4691  0.1995
 3057TIP3    H130662   4.466   3.795   5.573  0.1192 -0.3383  0.1548
 3057TIP3    H230663   4.339   3.717   5.599  0.2756 -0.3886  0.7639
 3058TIP3   OH230664   0.537   1.413   0.504  0.1682  0.0218 -0.1188
 3058TIP3    H130665   0.501   1.439   0.418 -1.2736 -2.4715 -0.2966
 3058TIP3    H230666   0.625   1.381   0.484  0.0691  0.0289 -0.5776
 3059TIP3   OH230667   1.051   5.027  12.823 -0.4201 -0.0223 -0.3226
 3059TIP3    H130668   1.092   5.045  12.907  0.6406  0.2442 -0.8755
 3059TIP3    H230669   1.085   4.941  12.797 -1.0780 -0.2986 -0.2852
 3060TIP3   OH230670   2.346   5.881   3.914 -0.1210  0.5289 -0.3489
 3060TIP3    H130671   2.430   5.854   3.951 -0.5603 -1.8434 -1.0421
 3060TIP3    H230672   2.312   5.945   3.977  1.0130 -0.4256  1.2754
 3061TIP3   OH230673   0.873   0.814  16.607 -0.5753 -0.2329  0.5199
 3061TIP3    H130674   0.830   0.892  16.573  0.1181  0.1923  0.6184
 3061TIP3    H230675   0.964   0.840  16.619 -0.3680 -1.0206  0.6628
 3062TIP3   OH230676   5.177   0.423  11.369  0.1130 -0.8190 -0.0177
 3062TIP3    H130677   5.114   0.495  11.359  3.1982  1.9618 -0.6124
 3062TIP3    H230678   5.161   0.389  11.456 -0.5879  1.5097  0.8042
 3063TIP3   OH230679   6.630   3.105   0.840  0.4840 -0.3799 -0.0325
 3063TIP3    H130680   6.665   3.142   0.921  1.8524  1.9840 -1.6244
 3063TIP3    H230681   6.618   3.012   0.859  0.5739  0.1708  2.9253
 3064TIP3   OH230682   1.243   4.494  10.886 -0.0474  0.4656  0.3855
 3064TIP3    H130683   1.268   4.441  10.811  1.4747  1.0165  0.4860
 3064TIP3    H230684   1.184   4.561  10.850 -2.7488 -1.7909  0.4148
 3065TIP3   OH230685   0.065   0.112  11.296  0.5356  0.1433 -0.7705
 3065TIP3    H130686   0.102   0.141  11.212  2.3102  0.7045  0.1762
 3065TIP3    H230687   0.140   0.079  11.345 -0.6544 -1.2335  0.1974
 3066TIP3   OH230688   5.948   3.621   3.491 -0.9907  0.1979  0.6768
 3066TIP3    H130689   5.964   3.658   3.404 -0.9938  0.0139  0.5986
 3066TIP3    H230690   5.972   3.692   3.551  0.7593 -0.2914  0.5838
 3067TIP3   OH230691   5.362   3.293   0.158  0.3666 -0.2880  0.2801
 3067TIP3    H130692   5.290   3.252   0.206 -0.2060  0.6417  0.2301
 3067TIP3    H230693   5.334   3.384   0.146  1.7858  0.2360  0.7642
 3068TIP3   OH230694   6.677   2.201   2.550 -0.5699 -0.4693  0.1685
 3068TIP3    H130695   6.675   2.135   2.481 -1.1277 -0.1785 -0.1032
 3068TIP3    H230696   6.591   2.243   2.545 -1.3737 -1.7715  2.3524
 3069TIP3   OH230697   3.959   3.746  14.534 -0.5249 -0.4716  0.2873
 3069TIP3    H130698   3.888   3.749  14.599 -0.1669  0.5110  0.6349
 3069TIP3    H230699   4.019   3.680  14.568 -0.3451  0.0295  0.9575
 3070TIP3   OH230700   0.127   4.002  15.538  0.1965  0.1069 -0.0217
 3070TIP3    H130701   0.119   4.014  15.444 -1.9065 -1.6061 -0.1019
 3070TIP3    H230702   0.151   3.910  15.549  1.3871  0.5336  1.0817
 3071TIP3   OH230703   4.877   0.877   5.084 -0.1784  0.0833  0.0195
 3071TIP3    H130704   4.956   0.828   5.062  0.2691  0.3723  0.9632
 3071TIP3    H230705   4.906   0.968   5.087 -0.7647  0.2976 -0.6076
 3072TIP3   OH230706   1.899   3.682   0.404 -0.4284  0.2404  0.6925
 3072TIP3    H130707   1.975   3.646   0.358 -0.8661 -0.7842  0.7722
 3072TIP3    H230708   1.881   3.764   0.358 -0.6736 -0.6125 -0.7753
 3073TIP3   OH230709   0.024   2.157   3.484  0.0512 -0.3173  0.4433
 3073TIP3    H130710   0.062   2.233   3.529  0.1236  1.3996 -2.3568
 3073TIP3    H230711  -0.070   2.175   3.482  0.2757  0.7584 -2.0028
 3074TIP3   OH230712   0.480   0.133   3.289  0.5630  0.1822 -0.1240
 3074TIP3    H130713   0.386   0.139   3.273  0.5434  3.1921  0.9384
 3074TIP3    H230714   0.488   0.083   3.371 -0.2451  1.9350  1.0456
 3075TIP3   OH230715   4.473   1.463   1.379 -0.3441 -0.1707 -0.7088
 3075TIP3    H130716   4.389   1.451   1.423 -0.1866 -1.6350 -0.7803
 3075TIP3    H230717   4.529   1.503   1.444 -0.3573 -1.5636  0.1915
 3076TIP3   OH230718   5.690   0.617  15.873  0.3250  0.0237 -0.1067
 3076TIP3    H130719   5.718   0.707  15.890 -1.6076  0.4516  0.9291
 3076TIP3    H230720   5.689   0.575  15.959  1.3635 -1.0409 -0.6052
 3077TIP3   OH230721   1.743   3.362   3.040  0.1086 -0.1404  0.2292
 3077TIP3    H130722   1.813   3.296   3.031 -0.6782 -0.6059 -2.9288
 3077TIP3    H230723   1.789   3.444   3.055  1.2398 -0.8522  0.7186
 3078TIP3   OH230724   1.589   4.291  11.168  0.6885  0.4774 -0.3692
 3078TIP3    H130725   1.667   4.339  11.141  0.3280  0.2162 -1.9378
 3078TIP3    H230726   1.570   4.323  11.256  0.4223  3.3024 -1.3973
 3079TIP3   OH230727   0.851   1.445  12.770 -0.2905 -0.5211 -0.1922
 3079TIP3    H130728   0.894   1.515  12.720  3.5397 -0.7015  2.6000
 3079TIP3    H230729   0.763   1.479  12.787 -0.2695  1.3594 -3.2827
 3080TIP3   OH230730   1.279   5.075   3.197 -0.3267 -0.3084 -0.3598
 3080TIP3    H130731   1.242   4.998   3.154 -1.3119  0.0545 -0.1544
 3080TIP3    H230732   1.301   5.134   3.125  1.0357 -1.0363 -0.5626
 3081TIP3   OH230733   4.948   3.955   6.264  0.0742 -0.4841  0.1441
 3081TIP3    H130734   5.004   3.925   6.336 -1.1501 -0.9349  0.9241
 3081TIP3    H230735   4.861   3.923   6.287 -0.9123  2.0355  0.0313
 3082TIP3   OH230736   2.145   3.096  14.501 -0.5671 -0.7390  0.3991
 3082TIP3    H130737   2.136   3.024  14.439  1.0177 -1.5734  1.0853
 3082TIP3    H230738   2.085   3.163  14.470 -2.1306 -2.3987 -0.1984
 3083TIP3   OH230739   3.777   3.762  14.726  0.1658 -0.1462 -0.4897
 3083TIP3    H130740   3.703   3.715  14.763 -0.5521  0.2378 -1.4090
 3083TIP3    H230741   3.760   3.854  14.747  0.1660 -0.0119 -1.0661
 3084TIP3   OH230742   3.564   2.104   3.207 -0.2614  0.1896  0.0652
 3084TIP3    H130743   3.532   2.111   3.297  2.8164  0.0212  1.2270
 3084TIP3    H230744   3.527   2.180   3.162 -3.1163 -0.5667  1.0159
 3085TIP3   OH230745   5.226   4.955   0.314  0.0972  0.5105 -0.4639
 3085TIP3    H130746   5.274   4.909   0.245 -0.6633 -0.4131 -0.3901
 3085TIP3    H230747   5.142   4.978   0.274 -1.1497 -1.7653  0.6959
 3086TIP3   OH230748   4.135   5.877  11.936 -0.1681 -0.5374 -0.2581
 3086TIP3    H130749   4.069   5.879  12.005 -0.9387  1.4087 -1.0073
 3086TIP3    H230750   4.100   5.817  11.870 -0.7863 -0.1650 -0.2679
 3087TIP3   OH230751   5.906   0.522  10.828  0.1636  0.0407  0.4098
 3087TIP3    H130752   5.962   0.542  10.752 -2.7165  2.7150 -1.1309
 3087TIP3    H230753   5.845   0.456  10.796  0.8582 -1.0979  1.3767
 3088TIP3   OH230754   1.618   6.509   3.878  0.1682 -0.1686  0.2386
 3088TIP3    H130755   1.676   6.476   3.946  0.8074 -0.0691 -0.2588
 3088TIP3    H230756   1.534   6.465   3.895  0.8991 -1.7703 -0.1881
 3089TIP3   OH230757   3.387   0.946   0.694 -0.3291  0.2538 -0.4383
 3089TIP3    H130758   3.412   1.034   0.721 -2.1352  0.2165  1.4857
 3089TIP3    H230759   3.438   0.888   0.750 -0.8836  0.1101 -0.0787
 3090TIP3   OH230760   0.611   3.617  14.250  0.4148  0.1732 -0.7068
 3090TIP3    H130761   0.627   3.527  14.222  2.0683  0.7118 -1.5947
 3090TIP3    H230762   0.598   3.665  14.168 -0.2410  0.7819 -0.2496
 3091TIP3   OH230763   0.257   1.989   4.330 -0.1395  0.0942 -0.3589
 3091TIP3    H130764   0.201   1.981   4.253  0.4991  2.8491 -1.1539
 3091TIP3    H230765   0.196   1.987   4.404 -1.0918  0.7942 -1.1142
 3092TIP3   OH230766   2.185   0.401   5.127 -1.0679 -0.6927 -0.1554
 3092TIP3    H130767   2.190   0.494   5.105  2.1408 -0.7088  0.2633
 3092TIP3    H230768   2.234   0.393   5.208 -2.2051 -2.6300  0.3830
 3093TIP3   OH230769   3.923   4.206   2.855 -0.0197  0.4543  0.1724
 3093TIP3    H130770   3.841   4.201   2.904  0.7133  0.3351  1.3913
 3093TIP3    H230771   3.971   4.127   2.880  1.1310  1.2995  0.6431
 3094TIP3   OH230772   5.206   3.873   0.368 -0.2391  0.1030 -0.2150
 3094TIP3    H130773   5.202   3.968   0.354  1.1719  0.3904  1.1183
 3094TIP3    H230774   5.259   3.841   0.295 -0.0423  0.4507 -0.2290
 3095TIP3   OH230775   0.422   5.750   0.066  0.1255 -0.3958 -0.3051
 3095TIP3    H130776   0.467   5.797  -0.005  1.4051 -1.1424  0.0062
 3095TIP3    H230777   0.354   5.700   0.021  1.1308 -1.1121 -1.0597
 3096TIP3   OH230778   6.675   6.783  12.106 -0.1058  0.2238  0.2525
 3096TIP3    H130779   6.656   6.854  12.168 -0.8336 -0.4033  0.7510
 3096TIP3    H230780   6.599   6.781  12.048 -0.1154 -0.1896  0.2769
 3097TIP3   OH230781   3.554   2.663  16.390 -0.0290 -0.0551  0.1253
 3097TIP3    H130782   3.543   2.593  16.325 -1.3904 -1.5850  1.9304
 3097TIP3    H230783   3.543   2.744  16.340  0.7234 -1.1315 -1.8653
 3098TIP3   OH230784   4.113   1.320  15.369  0.4942 -0.0814 -0.3078
 3098TIP3    H130785   4.036   1.306  15.424 -0.1631  0.4474 -1.0879
 3098TIP3    H230786   4.082   1.376  15.298  2.1208  2.0662  0.5947
 3099TIP3   OH230787   4.768   3.661   4.383  0.2948  0.3066  0.3490
 3099TIP3    H130788   4.822   3.739   4.396  0.3551  0.7150 -2.2379
 3099TIP3    H230789   4.765   3.648   4.289 -1.1713 -1.8204  0.6387
 3100TIP3   OH230790   1.914   5.280  15.293  0.0030  0.8368 -0.1894
 3100TIP3    H130791   1.931   5.190  15.317 -1.0687  0.5939 -0.3157
 3100TIP3    H230792   1.928   5.283  15.198 -1.0619  0.5301 -0.3652
 3101TIP3   OH230793   5.482   1.561   3.046  0.1330  0.3828 -0.2711
 3101TIP3    H130794   5.459   1.490   2.986  0.8923  0.2398 -0.4009
 3101TIP3    H230795   5.439   1.538   3.128  0.2908 -0.1763 -0.3421
 3102TIP3   OH230796   1.713   0.323   1.097 -0.4725  0.0903 -0.3836
 3102TIP3    H130797   1.685   0.399   1.046 -2.5155  0.5349  1.3562
 3102TIP3    H230798   1.751   0.359   1.177 -1.0041 -0.7093  0.2380
 3103TIP3   OH230799   6.467   4.612  17.114  0.4066 -0.3786 -0.0351
 3103TIP3    H130800   6.439   4.602  17.205 -1.1015  1.6872 -0.2375
 3103TIP3    H230801   6.528   4.685  17.116  0.2365 -0.2182 -0.7024
 3104TIP3   OH230802   6.343   3.766   5.131  0.5250 -0.1327 -0.4357
 3104TIP3    H130803   6.370   3.808   5.213 -1.3582  0.2891  0.0080
 3104TIP3    H230804   6.322   3.676   5.157 -0.6184  0.1528 -0.3089
 3105TIP3   OH230805   5.965   3.421   4.261 -0.6568 -1.2387 -0.8326
 3105TIP3    H130806   5.971   3.469   4.343  0.2103 -1.7948 -0.5631
 3105TIP3    H230807   5.883   3.450   4.222 -0.6860 -0.3843 -0.1442
 3106TIP3   OH230808   4.335   5.727  16.574  0.3306  0.4569  0.3081
 3106TIP3    H130809   4.326   5.785  16.498  0.1578  1.0618  0.7759
 3106TIP3    H230810   4.421   5.687  16.564 -0.5313 -1.0213 -1.2638
 3107TIP3   OH230811   5.807   1.932  12.466  0.0744 -0.2414 -0.1369
 3107TIP3    H130812   5.840   2.020  12.448  1.1150 -0.2970  1.3887
 3107TIP3    H230813   5.866   1.898  12.533 -1.2412 -1.5188  0.3900
 3108TIP3   OH230814   5.510   2.768   2.613  0.2009  0.0164  0.2212
 3108TIP3    H130815   5.421   2.773   2.649 -0.5268 -2.5228 -1.0964
 3108TIP3    H230816   5.542   2.683   2.640  2.5123  1.1515  1.1760
 3109TIP3   OH230817   3.086   4.697   2.891  0.2030  0.3941 -0.4058
 3109TIP3    H130818   3.115   4.759   2.958 -1.3624  2.7365 -1.8579
 3109TIP3    H230819   3.157   4.696   2.827  1.1649 -0.9449  0.6485
 3110TIP3   OH230820   5.382   5.568   0.376 -0.3692  0.0756 -0.3359
 3110TIP3    H130821   5.384   5.547   0.469  1.5051  0.5885 -0.2371
 3110TIP3    H230822   5.472   5.558   0.347 -0.5960  1.7064 -1.6890
 3111TIP3   OH230823   0.825   0.642  14.390 -0.4119 -0.2515  0.3872
 3111TIP3    H130824   0.918   0.626  14.373 -0.8005 -2.5221  0.2809
 3111TIP3    H230825   0.821   0.736  14.409  1.4781  0.4424 -2.2914
 3112TIP3   OH230826   1.025   0.957  12.618 -0.0445  0.3427  0.2167
 3112TIP3    H130827   1.037   0.930  12.709  0.2353 -1.0098 -0.2028
 3112TIP3    H230828   1.057   1.047  12.615  1.1720 -0.0406  1.1748
 3113TIP3   OH230829   1.145   1.428  13.106 -0.0253  0.5954 -0.1569
 3113TIP3    H130830   1.095   1.448  13.185  2.8629  2.9899  1.1654
 3113TIP3    H230831   1.147   1.511  13.058 -0.7186 -0.5302 -2.1705
 3114TIP3   OH230832   0.525   5.548  15.665 -0.2757  0.7441  0.3592
 3114TIP3    H130833   0.506   5.621  15.606 -0.5632 -0.2750 -0.8133
 3114TIP3    H230834   0.455   5.552  15.731 -2.3785 -0.6161 -1.7174
 3115TIP3   OH230835   5.705   6.305   0.745  0.0707 -0.3199 -0.6063
 3115TIP3    H130836   5.682   6.346   0.661 -0.2100  1.1668  0.1808
 3115TIP3    H230837   5.731   6.378   0.801  1.8242 -1.4560  0.1238
 3116TIP3   OH230838   4.328   1.989   0.588  0.3853 -0.5902  0.4661
 3116TIP3    H130839   4.323   2.012   0.495  0.7976 -2.3788 -0.0178
 3116TIP3    H230840   4.359   1.898   0.588 -0.4957 -0.9024  2.3235
 3117TIP3   OH230841   3.229   4.508  11.273 -0.6376 -0.8566  0.4614
 3117TIP3    H130842   3.255   4.486  11.183 -1.2523  1.5554 -0.3470
 3117TIP3    H230843   3.134   4.503  11.272 -0.7977  1.6963  0.2517
 3118TIP3   OH230844   2.939   0.693  14.249 -0.1798  0.3622 -0.1310
 3118TIP3    H130845   3.022   0.659  14.283  0.5107  0.2376 -1.8937
 3118TIP3    H230846   2.887   0.710  14.327  0.9752 -0.8963  0.9521
 3119TIP3   OH230847   4.207   2.202  16.175 -0.2984 -0.2631  0.3748
 3119TIP3    H130848   4.120   2.220  16.212 -0.5406 -1.0205  0.2024
 3119TIP3    H230849   4.232   2.118  16.214  0.1807 -0.2456  0.1061
 3120TIP3   OH230850   3.540   2.438   3.673 -0.5192  0.2280  0.1202
 3120TIP3    H130851   3.458   2.472   3.637 -0.3108 -1.0396 -1.6159
 3120TIP3    H230852   3.520   2.418   3.764 -2.5309 -1.3052 -0.6105
 3121TIP3   OH230853   1.806   5.238   1.357  0.1872 -0.0818 -0.4027
 3121TIP3    H130854   1.854   5.229   1.439  0.6695 -1.1295 -0.7865
 3121TIP3    H230855   1.817   5.330   1.333 -1.7963  0.7854  1.8026
 3122TIP3   OH230856   0.095   4.816  14.453  0.3583 -0.5934  0.8540
 3122TIP3    H130857   0.079   4.770  14.536  0.3946 -2.4367 -0.1407
 3122TIP3    H230858   0.191   4.821  14.448  0.3566 -0.4981  0.9159
 3123TIP3   OH230859   1.869   6.698   4.004 -0.2526 -0.5187  0.6302
 3123TIP3    H130860   1.838   6.727   4.090  0.8711  1.6027  0.3342
 3123TIP3    H230861   1.830   6.611   3.993 -2.1745  0.0838  2.3395
 3124TIP3   OH230862   5.556   4.959   5.578 -0.1483  0.2668  0.2863
 3124TIP3    H130863   5.526   4.921   5.495  0.7380 -0.3404  0.2327
 3124TIP3    H230864   5.530   4.895   5.644  0.4749  0.0331  0.3066
 3125TIP3   OH230865   3.544   0.663  16.898  0.5566 -0.1110  0.5836
 3125TIP3    H130866   3.470   0.616  16.935  1.5326 -0.4905  2.1177
 3125TIP3    H230867   3.546   0.637  16.806 -0.8470 -0.5428  0.6645
 3126TIP3   OH230868   0.380   4.381  13.753  0.6620 -0.0534  0.3074
 3126TIP3    H130869   0.382   4.413  13.663  2.6425  2.7706  1.2917
 3126TIP3    H230870   0.291   4.401  13.784 -0.9703 -3.5423 -1.7835
 3127TIP3   OH230871   6.373   3.390   4.975  0.2655  0.1389  0.2123
 3127TIP3    H130872   6.414   3.472   4.947 -0.1154  0.1637 -0.2640
 3127TIP3    H230873   6.429   3.321   4.939 -1.1889  0.1391 -2.1021
 3128TIP3   OH230874   0.915   3.944  16.533 -0.5157 -0.2188 -0.0451
 3128TIP3    H130875   0.879   4.030  16.555  1.4058  0.3351  1.0828
 3128TIP3    H230876   0.980   3.927  16.602 -0.9939 -2.6587 -0.1516
 3129TIP3   OH230877   5.548   2.932   2.106  0.1061 -0.2934 -0.0104
 3129TIP3    H130878   5.528   3.002   2.044  2.5664 -0.7024 -1.3071
 3129TIP3    H230879   5.465   2.884   2.115 -1.0624  1.5316 -0.6625
 3130TIP3   OH230880   1.230   5.205   2.702 -0.4954  0.0874 -0.1006
 3130TIP3    H130881   1.135   5.197   2.693 -0.2466 -0.5194 -2.4922
 3130TIP3    H230882   1.262   5.115   2.697  0.3730  0.4668 -1.4195
 3131TIP3   OH230883   0.035   5.971   1.992 -0.0084 -0.2023 -0.4990
 3131TIP3    H130884  -0.051   5.928   1.992 -0.7947  1.3157 -1.3588
 3131TIP3    H230885   0.045   6.004   2.081  0.1348 -1.2340 -0.1234
 3132TIP3   OH230886   2.179   5.126  11.336  0.2218 -0.4260 -0.3541
 3132TIP3    H130887   2.267   5.160  11.350  0.8269 -0.8632 -2.8785
 3132TIP3    H230888   2.152   5.162  11.252 -1.0827 -2.1748 -0.7174
 3133TIP3   OH230889   5.449   0.366  13.842  0.2202 -0.2831 -0.8069
 3133TIP3    H130890   5.508   0.383  13.768  1.5879 -1.3120  0.0250
 3133TIP3    H230891   5.495   0.302  13.896 -0.3903  1.0297  1.3568
 3134TIP3   OH230892   6.048   5.362  13.745  0.1733  0.1344 -0.1361
 3134TIP3    H130893   6.045   5.329  13.655 -0.6203  0.4347 -0.2294
 3134TIP3    H230894   5.961   5.343  13.780  0.4117  0.2132  0.4985
 3135TIP3   OH230895   0.886   0.914  14.434 -0.1706 -0.2054  1.0989
 3135TIP3    H130896   0.971   0.882  14.462  0.7444  1.7151  0.6210
 3135TIP3    H230897   0.905   0.975  14.363 -1.7982  1.4751  2.0513
 3136TIP3   OH230898   2.063   3.901  14.483 -0.4205  0.3342  0.6159
 3136TIP3    H130899   2.092   3.935  14.399  1.2576  0.5011  1.2425
 3136TIP3    H230900   1.997   3.964  14.513 -1.5183 -0.1075 -0.8905
 3137TIP3   OH230901   4.170   0.656  15.377 -0.0510  0.1299  0.5602
 3137TIP3    H130902   4.200   0.713  15.447  1.4644 -1.2523  1.0685
 3137TIP3    H230903   4.125   0.714  15.316 -0.7696  1.4608  2.3108
 3138TIP3   OH230904   5.269   1.995   2.181 -0.1413 -0.0771  0.5000
 3138TIP3    H130905   5.363   1.992   2.167 -0.1484  1.0676  0.1503
 3138TIP3    H230906   5.254   1.937   2.256  1.0188  0.8050  1.4335
 3139TIP3   OH230907   2.172   1.283  14.260  0.1186  0.7990 -0.3953
 3139TIP3    H130908   2.093   1.313  14.214  0.1263  1.6664  0.1574
 3139TIP3    H230909   2.208   1.216  14.202 -1.0160  0.4021 -0.6644
 3140TIP3   OH230910   3.161   4.759  12.998  0.4287 -0.3491  0.1092
 3140TIP3    H130911   3.249   4.789  12.976  1.0208 -1.6663  0.5936
 3140TIP3    H230912   3.118   4.746  12.913  0.3975  1.1584 -0.1057
 3141TIP3   OH230913   1.555   6.651  11.257 -0.2294 -0.0485  0.4610
 3141TIP3    H130914   1.504   6.673  11.179  0.5338 -2.0098 -0.6216
 3141TIP3    H230915   1.501   6.587  11.304 -0.2732  0.4366  1.0885
 3142TIP3   OH230916   2.712   2.542  15.814 -0.5180  0.1357  0.0539
 3142TIP3    H130917   2.707   2.448  15.834 -0.9125  0.7973  3.5282
 3142TIP3    H230918   2.621   2.568  15.798 -0.5446  0.1143  0.1673
 3143TIP3   OH230919   0.007   3.399  12.024 -0.4291 -0.3763 -0.2409
 3143TIP3    H130920  -0.050   3.346  11.968  0.2609  0.2616 -1.5594
 3143TIP3    H230921  -0.047   3.475  12.048 -0.3226 -0.0419 -1.0415
 3144TIP3   OH230922   2.532   5.879  12.476 -0.4012 -0.1049  0.3506
 3144TIP3    H130923   2.441   5.883  12.505 -0.1132  1.1396  1.1026
 3144TIP3    H230924   2.566   5.799  12.516 -1.7797 -1.7740 -1.7590
 3145TIP3   OH230925   2.818   6.265  16.559  0.5576 -0.8569 -0.6993
 3145TIP3    H130926   2.787   6.276  16.649  2.4145  1.4712 -0.2716
 3145TIP3    H230927   2.831   6.171  16.549  0.1108 -1.1682  1.3777
 3146TIP3   OH230928   4.204   1.804   2.996 -0.0478  0.0680  0.4316
 3146TIP3    H130929   4.288   1.802   2.950  0.1593  0.8730  0.7746
 3146TIP3    H230930   4.223   1.845   3.080 -0.2713 -2.0922  1.5932
 3147TIP3   OH230931   0.793   4.953  15.550 -0.0948  0.0527  0.5966
 3147TIP3    H130932   0.779   4.865  15.515  0.2172  0.2215  0.0358
 3147TIP3    H230933   0.719   4.967  15.609 -1.0778  0.0707 -0.6200
 3148TIP3   OH230934   3.838   0.036   0.234 -0.1845  0.0482  1.0999
 3148TIP3    H130935   3.918   0.087   0.225  0.6442 -1.3570  0.2934
 3148TIP3    H230936   3.829   0.021   0.328 -0.5781  1.8523  1.3746
 3149TIP3   OH230937   5.828   2.114   5.307  0.1564 -0.0331  0.1654
 3149TIP3    H130938   5.799   2.205   5.297 -0.3917 -0.1868  0.3415
 3149TIP3    H230939   5.906   2.108   5.252 -1.4330 -0.2193 -2.1565
 3150TIP3   OH230940   0.068   4.866   5.739  0.3794 -0.0206  0.1300
 3150TIP3    H130941   0.098   4.929   5.806 -1.1173  1.7757 -0.8311
 3150TIP3    H230942  -0.026   4.885   5.730  0.4494 -0.6354 -2.0529
 3151TIP3   OH230943   1.384   2.171  16.855  0.5777 -0.2190 -0.2190
 3151TIP3    H130944   1.378   2.262  16.883  3.0553  0.3814 -1.5096
 3151TIP3    H230945   1.473   2.144  16.877 -0.3393 -2.5818  0.8061
 3152TIP3   OH230946   1.986   3.523  12.414  0.5950 -0.1318 -0.0464
 3152TIP3    H130947   1.913   3.585  12.419 -0.0909 -0.9687  0.3693
 3152TIP3    H230948   2.032   3.547  12.334  0.3899  0.9829  0.1655
 3153TIP3   OH230949   5.456   5.807   0.043 -0.1245 -0.3513  0.3699
 3153TIP3    H130950   5.375   5.857   0.042 -0.4850 -0.9424  0.1117
 3153TIP3    H230951   5.428   5.715   0.040  0.5525 -0.5525  0.0866
 3154TIP3   OH230952   6.203   1.005   2.077  0.6341  0.0535  0.2071
 3154TIP3    H130953   6.188   0.927   2.023  0.8877 -1.2830  1.9765
 3154TIP3    H230954   6.117   1.026   2.112 -0.3385  3.4545 -3.9091
 3155TIP3   OH230955   3.939   4.312  16.750  0.3220 -0.0576  0.1837
 3155TIP3    H130956   4.035   4.311  16.749  0.3872  2.5708 -2.1302
 3155TIP3    H230957   3.916   4.404  16.748 -2.2276 -0.6779 -1.4098
 3156TIP3   OH230958   2.696   3.341   1.441 -0.0834  0.5105  0.2086
 3156TIP3    H130959   2.683   3.320   1.349 -1.2051  0.3792  0.3818
 3156TIP3    H230960   2.661   3.266   1.488  1.5358  0.0659  0.7343
 3157TIP3   OH230961   5.189   5.963   0.868 -0.2515  0.2301  0.1432
 3157TIP3    H130962   5.279   5.945   0.840 -0.4255  0.9023 -0.8842
 3157TIP3    H230963   5.134   5.920   0.803 -0.6644  3.1494 -1.5261
 3158TIP3   OH230964   4.614   1.193   2.136 -0.2829  0.4426 -0.0344
 3158TIP3    H130965   4.642   1.108   2.102  2.0527  1.0211  0.3762
 3158TIP3    H230966   4.639   1.255   2.067 -0.9064  0.9423  0.1881
 3159TIP3   OH230967   1.363   2.176  12.070  0.4892 -0.1060 -0.3510
 3159TIP3    H130968   1.367   2.255  12.124  0.6171 -0.7414  0.5778
 3159TIP3    H230969   1.393   2.204  11.984  1.2773  0.6866  0.1733
 3160TIP3   OH230970   1.448   6.632  12.205  0.0052 -0.4985  0.1907
 3160TIP3    H130971   1.486   6.715  12.175  0.4371 -1.1337 -1.0795
 3160TIP3    H230972   1.354   6.643  12.195  0.0727 -0.2068 -0.1243
 3161TIP3   OH230973   3.766   2.305   1.414 -0.2287  0.4028  0.0932
 3161TIP3    H130974   3.815   2.387   1.417  1.8103 -0.7691 -0.0932
 3161TIP3    H230975   3.688   2.325   1.364  1.4175  1.6403 -2.0493
 3162TIP3   OH230976   0.742   6.397   5.772  0.2205 -0.0727 -0.0829
 3162TIP3    H130977   0.682   6.379   5.844  0.4775  1.6725  0.5909
 3162TIP3    H230978   0.717   6.485   5.741  1.5338  0.1050 -0.6764
 3163TIP3   OH230979   0.753   2.327  11.715  0.8503  0.3038 -0.0709
 3163TIP3    H130980   0.726   2.415  11.689  2.8520  0.8297 -0.4956
 3163TIP3    H230981   0.705   2.269  11.657  0.2527  1.1706 -0.4560
 3164TIP3   OH230982   0.181   6.059  16.664  0.4630  0.0541 -0.3965
 3164TIP3    H130983   0.252   6.102  16.712 -0.7107  0.2223  1.2163
 3164TIP3    H230984   0.145   5.996  16.727 -1.9458  1.1788 -0.6099
 3165TIP3   OH230985   3.286   2.962   0.668 -0.0527 -0.5552 -0.4169
 3165TIP3    H130986   3.205   2.934   0.626 -0.0677 -2.4487  0.7991
 3165TIP3    H230987   3.292   2.907   0.747  0.3978  2.2692  1.5872
 3166TIP3   OH230988   1.319   1.843  11.503  0.1466  0.1221  0.5042
 3166TIP3    H130989   1.226   1.844  11.527 -0.0652 -1.7047 -0.1456
 3166TIP3    H230990   1.361   1.795  11.574  0.7201  1.5486  1.1465
 3167TIP3   OH230991   6.250   3.943  10.220 -0.2682  0.2938  0.1544
 3167TIP3    H130992   6.298   3.860  10.225 -0.4506  0.1611 -0.3586
 3167TIP3    H230993   6.303   4.004  10.273 -0.0738 -0.1146  0.4366
 3168TIP3   OH230994   0.128   1.154  12.099  0.0690 -0.0724  0.7866
 3168TIP3    H130995   0.147   1.203  12.179 -2.2038 -1.0839  1.9978
 3168TIP3    H230996   0.073   1.213  12.047 -0.7679 -0.4575  1.2253
 3169TIP3   OH230997   1.094   2.259  12.752  0.0043 -0.0383  0.0479
 3169TIP3    H130998   1.108   2.348  12.719  1.8000 -0.2518  0.2030
 3169TIP3    H230999   1.170   2.241  12.807 -0.3287 -1.6858  0.0013
 3170TIP3   OH231000   2.955   1.539   1.217 -0.1288 -0.6391 -0.6604
 3170TIP3    H131001   2.938   1.474   1.284 -1.0825 -1.2626 -1.4841
 3170TIP3    H231002   3.050   1.539   1.206 -0.1693 -2.3527 -1.0914
 3171TIP3   OH231003   3.915   5.066  16.632  0.1927 -0.7434  0.4835
 3171TIP3    H131004   3.945   5.148  16.671 -3.2455  0.3090  1.0409
 3171TIP3    H231005   3.907   5.006  16.706 -1.5615 -0.2178  0.7457
 3172TIP3   OH231006   3.966   2.675  15.483  0.7456 -0.5363 -0.3432
 3172TIP3    H131007   4.028   2.747  15.469  1.5428 -0.8766  1.2413
 3172TIP3    H231008   3.901   2.712  15.543  1.1233 -1.1052  0.4232
 3173TIP3   OH231009   4.327   5.826  14.737  0.9329  0.8305  0.3914
 3173TIP3    H131010   4.361   5.738  14.752 -0.1814  0.1029 -1.1457
 3173TIP3    H231011   4.252   5.834  14.796 -0.1671 -0.0001 -0.8816
 3174TIP3   OH231012   0.742   2.221   0.753  0.1859 -0.3022 -0.2256
 3174TIP3    H131013   0.703   2.203   0.667 -3.6017 -0.3403  1.3624
 3174TIP3    H231014   0.731   2.315   0.764  2.9970  0.1247 -0.7915
 3175TIP3   OH231015   5.793   3.644  16.257 -0.3879 -0.2806  0.2229
 3175TIP3    H131016   5.800   3.641  16.161 -2.7532  0.2048  0.0243
 3175TIP3    H231017   5.702   3.668  16.274  0.4965  1.5789  2.5748
 3176TIP3   OH231018   4.877   3.269  12.315  0.1066 -0.3393 -0.2109
 3176TIP3    H131019   4.865   3.201  12.249 -0.7680 -0.8568  0.4824
 3176TIP3    H231020   4.793   3.313  12.321 -0.1046 -0.9200  1.2532
 3177TIP3   OH231021   0.384   3.520   3.169  0.7759  0.3684 -0.0749
 3177TIP3    H131022   0.438   3.467   3.110  0.7576 -1.8342  1.8226
 3177TIP3    H231023   0.443   3.589   3.201  2.3478 -1.6326  1.4865
 3178TIP3   OH231024   3.365   1.295   4.417  0.2516 -0.4190 -0.7277
 3178TIP3    H131025   3.411   1.333   4.492  1.3022 -1.2133 -0.9729
 3178TIP3    H231026   3.361   1.366   4.353 -0.9513  0.3741  0.1886
 3179TIP3   OH231027   5.972   5.533  12.257  0.2542 -0.6413  0.3409
 3179TIP3    H131028   6.004   5.613  12.299 -0.2420  0.5902 -1.5955
 3179TIP3    H231029   5.997   5.463  12.318 -0.1899  1.0552  2.5530
 3180TIP3   OH231030   0.271   4.901  13.964 -0.2462 -0.6947  0.0736
 3180TIP3    H131031   0.268   4.840  14.038 -0.5143 -0.9857 -0.1791
 3180TIP3    H231032   0.207   4.968  13.986  0.2814 -0.3246  0.5065
 3181TIP3   OH231033   1.569   5.645  15.678 -0.0058  0.7911  0.2960
 3181TIP3    H131034   1.574   5.551  15.658 -0.6260  0.7942  0.1103
 3181TIP3    H231035   1.475   5.663  15.684  0.0409  1.7699 -1.4877
 3182TIP3   OH231036   0.729   5.831   0.284 -0.5084  0.2366  0.2120
 3182TIP3    H131037   0.784   5.804   0.358 -0.2635 -3.1315 -1.1165
 3182TIP3    H231038   0.786   5.885   0.230  1.0482 -1.9007 -0.3350
 3183TIP3   OH231039   0.937   5.061   6.124 -0.1917 -0.0049 -0.5336
 3183TIP3    H131040   0.850   5.084   6.157 -0.4288 -1.8788  0.1921
 3183TIP3    H231041   0.940   4.965   6.128  1.2912 -0.0581 -2.1261
 3184TIP3   OH231042   5.940   5.051   3.790 -0.4806  0.1700  0.0263
 3184TIP3    H131043   5.880   5.124   3.773 -0.3539  0.0088 -1.1625
 3184TIP3    H231044   5.886   4.973   3.782 -0.7174  0.1439  1.7663
 3185TIP3   OH231045   0.111   5.961  13.565  0.7439 -0.0752  0.4401
 3185TIP3    H131046   0.031   5.963  13.617  1.2527 -1.8732  1.3316
 3185TIP3    H231047   0.178   5.928  13.625  1.8467  0.0487 -0.6948
 3186TIP3   OH231048   1.317   3.992  15.478 -0.6324 -0.1487 -0.2272
 3186TIP3    H131049   1.259   4.028  15.411 -0.9442 -1.0440 -0.4410
 3186TIP3    H231050   1.370   3.926  15.433  0.1112  0.2150  0.1045
 3187TIP3   OH231051   0.275   3.729  12.151  0.7003 -0.0547 -0.5074
 3187TIP3    H131052   0.289   3.818  12.119  2.1152 -1.0888 -2.9251
 3187TIP3    H231053   0.336   3.675  12.100 -1.2272 -2.6304 -0.2177
 3188TIP3   OH231054   5.648   6.787   4.188 -0.3911  0.3190 -0.0447
 3188TIP3    H131055   5.682   6.875   4.208  0.2034  0.4802 -1.6738
 3188TIP3    H231056   5.554   6.794   4.201 -0.4031  1.3435 -0.6601
 3189TIP3   OH231057   3.380   1.089  16.671 -0.0753  0.0429  0.3141
 3189TIP3    H131058   3.296   1.130  16.693  0.0121 -0.4684  1.6632
 3189TIP3    H231059   3.437   1.110  16.745  0.4768 -1.0740  0.2108
 3190TIP3   OH231060   6.167   5.094  16.286 -0.2081  0.0212 -0.2391
 3190TIP3    H131061   6.201   5.025  16.344  1.7235 -0.4901 -1.9243
 3190TIP3    H231062   6.137   5.047  16.208 -1.7643  0.8110 -0.1356
 3191TIP3   OH231063   0.514   3.442   0.944  0.1820 -0.0259 -0.5931
 3191TIP3    H131064   0.594   3.474   0.902  0.7023 -1.3207 -0.5954
 3191TIP3    H231065   0.444   3.486   0.897  0.8150 -0.4834 -1.9865
 3192TIP3   OH231066   3.060   1.802  13.236 -0.9087 -0.6027  1.1234
 3192TIP3    H131067   3.085   1.806  13.329  1.5293  2.3395  0.4189
 3192TIP3    H231068   3.121   1.739  13.198 -1.0466 -0.8274  1.2737
 3193TIP3   OH231069   5.742   2.287   4.817 -0.2263  0.4271  0.2265
 3193TIP3    H131070   5.783   2.202   4.807  0.2406  0.7045 -0.2328
 3193TIP3    H231071   5.719   2.313   4.728 -2.6441 -0.3407  0.5888
 3194TIP3   OH231072   0.300   2.522  15.213  0.0627  0.1726 -0.0820
 3194TIP3    H131073   0.353   2.466  15.269 -1.7479 -1.2113  0.2866
 3194TIP3    H231074   0.310   2.610  15.250 -1.0433 -0.7010  2.3798
 3195TIP3   OH231075   4.435   1.575  15.485  0.3104 -0.1085  0.0780
 3195TIP3    H131076   4.502   1.564  15.418  0.4918 -1.3783  0.4590
 3195TIP3    H231077   4.471   1.534  15.563 -0.1021  0.9366  0.8198
 3196TIP3   OH231078   0.934   4.842   0.489 -0.4016  0.8899  0.8110
 3196TIP3    H131079   0.920   4.774   0.555 -0.3003  0.4484  0.3714
 3196TIP3    H231080   1.028   4.839   0.471 -0.6826 -0.0458 -0.5103
 3197TIP3   OH231081   1.829   2.655  12.058  0.0465 -0.4229  0.6227
 3197TIP3    H131082   1.761   2.713  12.094  0.4326 -0.8628  2.1107
 3197TIP3    H231083   1.848   2.594  12.130  1.4464 -0.8034 -0.0674
 3198TIP3   OH231084   6.567   3.726   0.305 -0.2102  0.2407 -0.1744
 3198TIP3    H131085   6.511   3.649   0.297  0.6934 -0.6243  1.3927
 3198TIP3    H231086   6.594   3.726   0.397  2.8371  0.2592 -1.0168
 3199TIP3   OH231087   4.138   4.917   3.571 -0.3010 -0.1149  0.0705
 3199TIP3    H131088   4.107   4.873   3.492  1.5162  0.5389 -1.0467
 3199TIP3    H231089   4.061   4.963   3.605 -1.9679 -3.2367  0.6826
 3200TIP3   OH231090   6.032   6.495  16.593  0.3075  0.3759  0.5599
 3200TIP3    H131091   6.021   6.580  16.550 -0.7887  0.5011  1.0603
 3200TIP3    H231092   6.103   6.508  16.655  1.7097  0.2763 -0.9918
 3201TIP3   OH231093   0.969   4.633  11.049  0.3505 -0.2674 -0.4609
 3201TIP3    H131094   0.940   4.714  11.091 -1.1395 -1.4248  0.8022
 3201TIP3    H231095   1.009   4.662  10.967  1.4409  1.8842  0.7720
 3202TIP3   OH231096   1.314   2.630  16.648 -0.2564 -0.0504 -0.1849
 3202TIP3    H131097   1.291   2.613  16.557 -1.0215  1.0066 -0.2000
 3202TIP3    H231098   1.361   2.714  16.645 -1.7911  0.8449  0.5947
 3203TIP3   OH231099   3.778   1.485   6.149  0.0517 -0.5707  0.4820
 3203TIP3    H131100   3.695   1.524   6.122  0.6500 -0.6450 -1.5296
 3203TIP3    H231101   3.759   1.392   6.161 -0.5084 -0.3193  1.5668
 3204TIP3   OH231102   6.747   5.794   4.086 -0.0640  0.5762  0.4436
 3204TIP3    H131103   6.814   5.736   4.047  0.0045  0.7206  0.3458
 3204TIP3    H231104   6.780   5.882   4.070 -0.8310  0.6819 -0.5985
 3205TIP3   OH231105   4.143   1.570  15.603  0.4412  0.4936 -0.0038
 3205TIP3    H131106   4.210   1.583  15.535  2.2871 -0.3106  1.6285
 3205TIP3    H231107   4.161   1.639  15.667 -0.0008 -0.0279  0.6847
 3206TIP3   OH231108   1.996   5.826  16.380 -0.7838  0.3193  0.1431
 3206TIP3    H131109   2.042   5.840  16.296 -0.4928 -0.1675  0.2171
 3206TIP3    H231110   1.910   5.865  16.367 -2.2847 -3.3746 -1.8415
 3207TIP3   OH231111   1.413   5.057  15.752 -0.0924 -0.0796 -0.3816
 3207TIP3    H131112   1.403   5.064  15.657 -0.4658  1.2299 -0.2604
 3207TIP3    H231113   1.439   4.966  15.767  0.6367 -0.1236 -1.7888
 3208TIP3   OH231114   4.797   1.272   5.656  0.4984  0.0293 -0.2820
 3208TIP3    H131115   4.749   1.246   5.734  0.7330  0.9434  0.1771
 3208TIP3    H231116   4.804   1.192   5.604  0.0787 -0.5156  0.4907
 3209TIP3   OH231117   5.207   2.595   3.605  0.0983 -0.0750  0.3000
 3209TIP3    H131118   5.258   2.633   3.678  0.9307 -0.6585  0.0370
 3209TIP3    H231119   5.271   2.541   3.558 -0.1795  1.1747 -1.5131
 3210TIP3   OH231120   1.872   3.121   5.657  0.1075 -0.1653  0.0982
 3210TIP3    H131121   1.945   3.111   5.595  0.3476  0.0463  0.3435
 3210TIP3    H231122   1.900   3.191   5.716  0.8096 -1.8016  1.7608
 3211TIP3   OH231123   2.056   2.569   2.203  0.1494  0.2159 -0.6464
 3211TIP3    H131124   2.143   2.528   2.203  0.3151  0.5590 -1.0247
 3211TIP3    H231125   2.015   2.538   2.122  0.1600  0.5545 -0.7817
 3212TIP3   OH231126   3.408   1.238   0.773 -0.5820 -0.0700 -0.5557
 3212TIP3    H131127   3.342   1.276   0.716  0.0088  1.4691 -0.2289
 3212TIP3    H231128   3.485   1.293   0.760  0.1332 -0.8587  0.3025
 3213TIP3   OH231129   1.383   1.491   2.244 -0.2309  0.0204  0.1690
 3213TIP3    H131130   1.452   1.488   2.310  0.6309 -2.4029 -0.7710
 3213TIP3    H231131   1.319   1.426   2.272 -1.2445  0.9600  0.0715
 3214TIP3   OH231132   0.405   4.929  13.581  0.7141 -0.1991 -0.2839
 3214TIP3    H131133   0.464   4.889  13.645  1.6930  1.5399 -0.0939
 3214TIP3    H231134   0.422   5.023  13.587  0.4527  0.0406 -2.7340
 3215TIP3   OH231135   3.299   3.009  17.004  0.4181 -0.0261  0.3885
 3215TIP3    H131136   3.313   2.924  17.046  0.6323 -0.1696  0.0285
 3215TIP3    H231137   3.354   3.006  16.926 -0.8406 -0.2053 -0.5128
 3216TIP3   OH231138   0.584   5.524   3.598  0.1869 -0.1409 -0.1521
 3216TIP3    H131139   0.582   5.544   3.692 -2.3267 -0.3934 -0.1048
 3216TIP3    H231140   0.553   5.433   3.593 -0.8752  0.2711 -1.2845
 3217TIP3   OH231141   4.901   4.138  10.879  0.1011 -0.9668  0.0951
 3217TIP3    H131142   4.990   4.173  10.887 -0.8155  1.4725 -0.0521
 3217TIP3    H231143   4.890   4.122  10.785 -0.0545 -0.0434 -0.0493
 3218TIP3   OH231144   3.190   4.927   3.012  0.5931  0.0605  0.0393
 3218TIP3    H131145   3.192   4.956   3.103  3.9782 -0.1458  0.0870
 3218TIP3    H231146   3.173   5.006   2.962  1.4847  0.6752  0.6876
 3219TIP3   OH231147   0.531   2.074  15.668  0.3321  0.1207  0.1806
 3219TIP3    H131148   0.578   2.012  15.613  0.5326  0.9408 -0.5905
 3219TIP3    H231149   0.579   2.074  15.751  1.5832  0.8057 -0.5320
 3220TIP3   OH231150   2.886   3.833  12.814  0.7328  0.0126  0.2929
 3220TIP3    H131151   2.973   3.793  12.813  0.0033 -1.6273 -0.1427
 3220TIP3    H231152   2.845   3.798  12.893 -0.0641 -0.4257 -0.3089
 3221TIP3   OH231153   5.502   3.696   5.875  0.7853  0.2472 -0.5311
 3221TIP3    H131154   5.508   3.723   5.783  1.8406  1.7852 -0.0255
 3221TIP3    H231155   5.472   3.774   5.921  1.8690 -0.0195  0.6531
 3222TIP3   OH231156   2.799   3.328  13.851 -0.0797 -0.6931  0.0102
 3222TIP3    H131157   2.881   3.296  13.890 -0.0687 -0.1347  0.4443
 3222TIP3    H231158   2.767   3.394  13.913 -0.4152 -0.2978 -0.5822
 3223TIP3   OH231159   2.752   1.670  11.672 -0.3389  0.2087  0.5189
 3223TIP3    H131160   2.684   1.617  11.631  1.4469 -1.4029 -0.4210
 3223TIP3    H231161   2.756   1.637  11.762  0.3518 -0.8939  0.1021
 3224TIP3   OH231162   2.009   5.431  13.709  0.3369  0.4251 -0.1521
 3224TIP3    H131163   2.085   5.467  13.665  0.1852  2.3466  1.0993
 3224TIP3    H231164   1.934   5.474  13.667  0.0663  0.2665  0.1642
 3225TIP3   OH231165   0.751   5.045   4.740 -0.1225  0.4396  0.4087
 3225TIP3    H131166   0.846   5.053   4.734 -0.0062 -0.7671  0.4661
 3225TIP3    H231167   0.720   5.132   4.764  0.8647  1.1262 -0.8016
 3226TIP3   OH231168   0.323   0.884  15.948  0.1783 -0.4495  0.7329
 3226TIP3    H131169   0.399   0.833  15.921  1.8481  2.6185 -0.6673
 3226TIP3    H231170   0.269   0.889  15.870  1.0217  1.5477  0.2367
 3227TIP3   OH231171   5.731   6.322   1.709  0.0695  0.3395 -0.6660
 3227TIP3    H131172   5.658   6.371   1.672 -1.1973 -1.3306 -0.4877
 3227TIP3    H231173   5.720   6.233   1.674  1.6159 -0.1143 -0.0594
 3228TIP3   OH231174   2.455   5.865  11.308  0.0307 -0.2131 -0.4628
 3228TIP3    H131175   2.535   5.833  11.348 -0.6102  1.3484  2.1799
 3228TIP3    H231176   2.385   5.811  11.345 -0.4786  0.6717 -0.1046
 3229TIP3   OH231177   3.930   3.054  12.980 -0.3821 -0.4535  0.5478
 3229TIP3    H131178   3.921   2.978  13.038 -0.1095 -0.8978  0.0080
 3229TIP3    H231179   3.942   3.127  13.040 -2.3024 -0.5872  1.1334
 3230TIP3   OH231180   2.943   2.962   0.160  0.5642 -0.5283 -0.6936
 3230TIP3    H131181   2.971   2.871   0.152  0.0770 -0.8390  1.0561
 3230TIP3    H231182   2.917   2.987   0.071  0.9575 -2.0085 -1.2287
 3231TIP3   OH231183   2.798   0.073  14.821 -0.0598  0.1476  0.0113
 3231TIP3    H131184   2.889   0.051  14.843 -0.1833  0.9035  1.3142
 3231TIP3    H231185   2.752   0.071  14.905 -1.0604  0.6716 -0.5193
 3232TIP3   OH231186   4.747   0.530  13.264 -0.2003  0.0238 -0.3488
 3232TIP3    H131187   4.801   0.582  13.205 -0.9622  1.4753  0.2126
 3232TIP3    H231188   4.772   0.439  13.245  2.3255  0.6468 -0.1901
 3233TIP3   OH231189   4.677   4.601   4.194  0.4073  0.8068 -0.1956
 3233TIP3    H131190   4.686   4.651   4.275  3.3002  1.4898 -0.8586
 3233TIP3    H231191   4.767   4.595   4.161 -0.3783 -1.8015 -1.9479
 3234TIP3   OH231192   4.380   0.546   1.827  0.6778 -0.4977 -0.1983
 3234TIP3    H131193   4.463   0.514   1.862  0.2381 -0.3906  0.9377
 3234TIP3    H231194   4.396   0.555   1.733  1.0941 -3.1594 -0.4066
 3235TIP3   OH231195   2.885   6.363  16.057  0.2170 -0.0461  0.4757
 3235TIP3    H131196   2.923   6.373  16.144 -0.9286  1.4214  0.8420
 3235TIP3    H231197   2.854   6.273  16.054 -0.8161  0.2321  2.0673
 3236TIP3   OH231198   6.758   3.612  15.642  0.2234 -0.0831 -0.0657
 3236TIP3    H131199   6.712   3.569  15.570  1.3194 -1.9277  0.2907
 3236TIP3    H231200   6.804   3.685  15.600 -1.4210  0.5769 -0.7397
 3237TIP3   OH231201   5.831   1.927   3.612  0.8856  0.3662  1.0122
 3237TIP3    H131202   5.779   1.926   3.693 -0.8094  0.2933 -0.0481
 3237TIP3    H231203   5.798   1.853   3.562  2.0786  0.2841  0.3395
 3238TIP3   OH231204   1.636   1.325  16.421  0.1808  0.1846 -0.0419
 3238TIP3    H131205   1.602   1.271  16.350 -1.1052  0.5436  0.2972
 3238TIP3    H231206   1.619   1.274  16.501  2.3190 -0.5686 -0.0307
 3239TIP3   OH231207   0.067   3.743   1.275 -0.1592  0.1124  0.4627
 3239TIP3    H131208   0.056   3.835   1.253  2.4448  0.2706 -0.3554
 3239TIP3    H231209   0.027   3.734   1.362 -0.3853  2.0034  0.5732
 3240TIP3   OH231210   2.744   3.274  16.917 -0.0641 -0.7228 -0.4964
 3240TIP3    H131211   2.813   3.335  16.888 -0.4357 -0.5601 -1.0425
 3240TIP3    H231212   2.666   3.301  16.868 -0.4748 -1.0191 -0.0018
 3241TIP3   OH231213   5.867   1.362   6.035  0.0421 -0.0260  0.2702
 3241TIP3    H131214   5.899   1.452   6.037  1.8818 -0.5845 -2.2112
 3241TIP3    H231215   5.846   1.343   6.127  1.2064  2.3481  1.0945
 3242TIP3   OH231216   5.413   5.527  10.458 -0.3755 -0.5990 -0.5749
 3242TIP3    H131217   5.463   5.446  10.447 -0.6551 -0.9460  0.7143
 3242TIP3    H231218   5.479   5.596  10.464 -0.1007 -0.8934 -0.2472
 3243TIP3   OH231219   0.988   2.084   2.588 -0.7457 -0.4741 -0.4780
 3243TIP3    H131220   0.895   2.064   2.583 -1.0898  0.4181  1.6677
 3243TIP3    H231221   1.007   2.130   2.506 -1.6769 -2.5936 -1.9091
 3244TIP3   OH231222   3.285   5.160   5.150 -0.6789 -0.1945  0.4899
 3244TIP3    H131223   3.270   5.237   5.095 -2.8376 -1.0905 -0.2113
 3244TIP3    H231224   3.350   5.109   5.103  2.3612  2.1267  1.9432
 3245TIP3   OH231225   1.267   1.199   5.834  0.3279  0.1392 -0.2837
 3245TIP3    H131226   1.293   1.290   5.846 -2.3007  0.6573  1.9421
 3245TIP3    H231227   1.216   1.199   5.753 -2.3078  1.2983  1.3152
 3246TIP3   OH231228   0.180   6.653   4.585  0.1122  0.3958  0.1753
 3246TIP3    H131229   0.131   6.638   4.504 -0.9949 -1.6399  1.1770
 3246TIP3    H231230   0.236   6.576   4.594 -1.4597 -0.5370  2.5016
 3247TIP3   OH231231   1.847   4.306  12.091 -0.5385  0.0207  0.3917
 3247TIP3    H131232   1.767   4.334  12.134 -0.3209  0.2628  0.6426
 3247TIP3    H231233   1.881   4.236  12.146 -0.1841  0.4278  0.7004
 3248TIP3   OH231234   6.491   4.831  12.855 -0.1230  0.1814  0.2890
 3248TIP3    H131235   6.507   4.925  12.864 -0.5712  0.1498  1.5467
 3248TIP3    H231236   6.532   4.792  12.932 -1.6795 -0.4324  0.8413
 3249TIP3   OH231237   6.369   3.192  11.505  0.4471 -0.3412 -0.0884
 3249TIP3    H131238   6.354   3.160  11.416 -0.0012 -0.5051  0.0413
 3249TIP3    H231239   6.419   3.121  11.547  1.5253  0.1723 -0.5010
 3250TIP3   OH231240   1.618   3.736  13.507  0.2140  0.2908  0.3851
 3250TIP3    H131241   1.632   3.795  13.432 -0.0263 -0.8412 -0.5633
 3250TIP3    H231242   1.583   3.793  13.576  1.0662  1.4722 -0.1438
 3251TIP3   OH231243   2.392   1.393   5.683 -0.2406  0.0492  0.5190
 3251TIP3    H131244   2.417   1.442   5.762 -1.9366  2.4576 -0.3779
 3251TIP3    H231245   2.457   1.421   5.617  1.1639 -1.9450  1.0169
 3252TIP3   OH231246   2.291   1.410  16.102 -0.0281 -0.0345 -0.0371
 3252TIP3    H131247   2.273   1.377  16.190 -0.3306  1.7565  0.5873
 3252TIP3    H231248   2.289   1.332  16.047 -2.2518 -0.8605  1.1650
 3253TIP3   OH231249   5.979   5.770  17.065  0.2790  0.1759  0.7844
 3253TIP3    H131250   5.967   5.747  17.157  1.6964  0.4087  1.0392
 3253TIP3    H231251   6.073   5.779  17.055  0.0790  0.9497 -0.5054
 3254TIP3   OH231252   2.110   0.281  15.848  0.2680  0.1678  0.3829
 3254TIP3    H131253   2.080   0.312  15.763  0.6302  0.4093  0.3396
 3254TIP3    H231254   2.199   0.249  15.833  0.7830  1.2966  0.8865
 3255TIP3   OH231255   1.533   3.459  13.498 -0.0054 -0.3630 -0.1126
 3255TIP3    H131256   1.548   3.554  13.492 -0.9396 -0.1956  0.0728
 3255TIP3    H231257   1.610   3.420  13.457  0.2286  0.4891 -0.5008
 3256TIP3   OH231258   5.260   3.960  12.641  0.1175 -0.4257  0.6574
 3256TIP3    H131259   5.310   3.906  12.580 -0.2069  0.2069 -0.1729
 3256TIP3    H231260   5.300   4.046  12.636 -1.2379  0.1788 -0.2682
 3257TIP3   OH231261   1.290   1.395   3.126  0.8010 -0.5476 -0.5482
 3257TIP3    H131262   1.295   1.488   3.101  1.2035  0.1908  2.0955
 3257TIP3    H231263   1.377   1.376   3.162 -0.2999 -1.0006  1.9678
 3258TIP3   OH231264   3.433   6.219   2.282  0.4296  0.2852 -0.3303
 3258TIP3    H131265   3.487   6.155   2.329  1.8642 -0.2640 -2.5928
 3258TIP3    H231266   3.389   6.167   2.214 -1.1043  1.1490 -0.0331
 3259TIP3   OH231267   6.097   2.618   2.898  0.2110  0.1304  0.5456
 3259TIP3    H131268   6.130   2.551   2.838  1.2688  1.3995 -0.3437
 3259TIP3    H231269   6.022   2.578   2.941  0.5252 -1.4364 -0.3340
 3260TIP3   OH231270   5.098   4.499  11.025 -0.1160 -0.0641  0.0543
 3260TIP3    H131271   5.050   4.437  11.081  1.0149  0.0557  1.1805
 3260TIP3    H231272   5.115   4.451  10.944 -0.3467 -0.8032  0.4436
 3261TIP3   OH231273   2.955   2.838  16.274  0.4823  0.5868  0.3929
 3261TIP3    H131274   2.956   2.933  16.260  2.3966  0.4108 -0.7484
 3261TIP3    H231275   3.044   2.810  16.254 -0.2554 -1.5460  0.0445
 3262TIP3   OH231276   0.784   1.224  14.626  0.4459 -0.7183  0.3229
 3262TIP3    H131277   0.866   1.256  14.588 -0.4573  1.3371  0.0671
 3262TIP3    H231278   0.734   1.303  14.647 -2.0821 -1.9279 -0.8351
 3263TIP3   OH231279   4.365   1.319   4.716 -0.7390 -0.4127 -0.1369
 3263TIP3    H131280   4.280   1.289   4.748 -0.2807 -0.3706  1.1731
 3263TIP3    H231281   4.410   1.240   4.687  0.5937 -1.1469  3.6014
 3264TIP3   OH231282   1.189   2.707   4.868 -0.2988 -0.1080 -0.0557
 3264TIP3    H131283   1.229   2.775   4.814  0.1963 -0.3082  0.0512
 3264TIP3    H231284   1.242   2.706   4.948 -1.0965  0.2699  0.4850
 3265TIP3   OH231285   1.925   1.589  13.939 -0.2248  0.8999  0.6730
 3265TIP3    H131286   1.929   1.611  13.846  0.3185  2.0009  0.9468
 3265TIP3    H231287   1.845   1.631  13.970 -0.7162  0.0380  0.5831
 3266TIP3   OH231288   3.191   1.344   1.145  0.6009 -0.0096  0.3342
 3266TIP3    H131289   3.159   1.274   1.087 -1.9742  2.7617 -1.7271
 3266TIP3    H231290   3.284   1.351   1.123 -0.0649  0.1940 -2.7645
 3267TIP3   OH231291   6.395   5.550   6.231 -0.6012 -0.0857 -0.3212
 3267TIP3    H131292   6.428   5.639   6.240 -4.4744  1.6539 -2.2322
 3267TIP3    H231293   6.394   5.515   6.320  3.3251  0.8127  0.1400
 3268TIP3   OH231294   6.506   1.961  16.771 -0.1020  0.1219  0.4944
 3268TIP3    H131295   6.584   1.934  16.819 -0.5940  0.1720  1.3283
 3268TIP3    H231296   6.435   1.952  16.834 -0.3243  3.1557  0.7526
 3269TIP3   OH231297   1.273   6.569  11.915 -0.3097 -0.4379  0.3490
 3269TIP3    H131298   1.237   6.626  11.983  0.0728 -0.9175  0.9561
 3269TIP3    H231299   1.278   6.483  11.956  2.1288 -0.2588  0.5066
 3270TIP3   OH231300   1.215   0.852   2.377  0.4605 -0.3704 -0.1574
 3270TIP3    H131301   1.289   0.811   2.332  0.4964  0.2550 -0.6748
 3270TIP3    H231302   1.159   0.779   2.402  1.1282 -0.8282  0.0105
 3271TIP3   OH231303   2.814   2.419  15.052 -0.6051 -0.0593 -0.2128
 3271TIP3    H131304   2.793   2.511  15.041  0.7761  0.3693  0.6445
 3271TIP3    H231305   2.756   2.374  14.991 -1.2193  1.3794 -0.7096
 3272TIP3   OH231306   3.222   6.368  10.633  0.1390 -0.1682  0.0112
 3272TIP3    H131307   3.244   6.461  10.642  0.8995 -0.3496 -0.0011
 3272TIP3    H231308   3.302   6.328  10.599 -0.6469 -0.5749 -1.3893
 3273TIP3   OH231309   6.217   6.152   4.841 -0.0223  1.2173 -0.0739
 3273TIP3    H131310   6.217   6.177   4.933  0.3868  0.1292  0.2295
 3273TIP3    H231311   6.228   6.235   4.794  1.2826  1.6163  0.9049
 3274TIP3   OH231312   1.557   0.259  14.109 -0.0983  0.7601  0.1616
 3274TIP3    H131313   1.531   0.234  14.197  1.0234 -0.8007  0.0579
 3274TIP3    H231314   1.652   0.249  14.107 -0.1428  0.4038 -1.3287
 3275TIP3   OH231315   0.412   1.179   0.616 -0.0132 -0.6015 -0.1794
 3275TIP3    H131316   0.456   1.261   0.591  0.1724 -0.8916 -0.8393
 3275TIP3    H231317   0.441   1.162   0.705  1.6909 -1.0847 -0.8059
 3276TIP3   OH231318   4.783   4.011  14.645 -0.3071 -0.3003  0.0454
 3276TIP3    H131319   4.829   3.929  14.625 -0.7129 -0.2007 -1.3133
 3276TIP3    H231320   4.707   3.984  14.697 -0.8409 -0.8647 -1.0211
 3277TIP3   OH231321   2.498   0.769   4.392 -0.2403 -0.0454 -0.0718
 3277TIP3    H131322   2.522   0.676   4.394  0.0485  0.0379  0.9804
 3277TIP3    H231323   2.420   0.774   4.446 -0.6154  0.2298 -0.6407
 3278TIP3   OH231324   4.277   4.172   3.569  0.1854  0.6574  0.1141
 3278TIP3    H131325   4.235   4.163   3.484  0.2383  1.1828  0.0317
 3278TIP3    H231326   4.341   4.242   3.557 -1.4841  2.4137  1.2366
 3279TIP3   OH231327   2.574   0.086   1.807 -0.1777  0.1163  0.2239
 3279TIP3    H131328   2.598   0.096   1.899 -1.1370 -1.4117  0.6539
 3279TIP3    H231329   2.485   0.051   1.808  0.3308 -1.3405 -1.2457
 3280TIP3   OH231330   0.087   5.921   0.185  0.0250  0.0190  0.4937
 3280TIP3    H131331   0.026   5.949   0.254 -0.8346  1.8313 -0.9770
 3280TIP3    H231332   0.037   5.858   0.133 -0.6223  1.4785 -0.6905
 3281TIP3   OH231333   3.745   3.305   5.752  0.3142  0.2727  0.2428
 3281TIP3    H131334   3.650   3.306   5.739  0.2596  0.9594  0.6899
 3281TIP3    H231335   3.772   3.396   5.745  0.7994  0.2020  1.1291
 3282TIP3   OH231336   2.628   1.396  15.612 -0.4047  0.4002 -0.5937
 3282TIP3    H131337   2.656   1.475  15.565 -1.0268  0.5552 -0.6982
 3282TIP3    H231338   2.705   1.372  15.665 -0.9582  2.3760  1.1868
 3283TIP3   OH231339   4.940   3.891  11.386 -0.5852 -0.0942 -0.2148
 3283TIP3    H131340   4.929   3.983  11.363  0.7590 -0.1754 -1.2236
 3283TIP3    H231341   4.853   3.863  11.415 -0.6929  1.8307  1.4062
 3284TIP3   OH231342   3.595   2.713  11.404  0.7103 -0.1110  0.4894
 3284TIP3    H131343   3.607   2.633  11.353 -0.8557  1.3161 -2.2255
 3284TIP3    H231344   3.505   2.707  11.438 -0.1888  1.3983 -1.4985
 3285TIP3   OH231345   0.215   3.892  14.277 -0.1766 -0.4992  0.8645
 3285TIP3    H131346   0.200   3.973  14.228 -1.5627 -0.9384  0.5440
 3285TIP3    H231347   0.245   3.829  14.211 -0.1949 -0.5657  0.9196
 3286TIP3   OH231348   1.684   5.509  16.794  0.2755  0.3250 -0.0941
 3286TIP3    H131349   1.702   5.458  16.873  2.5296 -0.7725 -1.2882
 3286TIP3    H231350   1.680   5.600  16.825  1.1652 -0.0853  1.2853
 3287TIP3   OH231351   5.149   5.082  12.468  0.0008  0.0614  0.4709
 3287TIP3    H131352   5.125   5.128  12.549 -0.3910  2.1619 -0.7913
 3287TIP3    H231353   5.070   5.034  12.443 -0.0507 -0.1533  1.0580
 3288TIP3   OH231354   4.479   0.746  14.729 -0.5746 -0.3163 -0.2105
 3288TIP3    H131355   4.507   0.728  14.639 -1.3249 -0.4684 -0.4178
 3288TIP3    H231356   4.393   0.704  14.736 -0.4780 -0.3842  0.6066
 3289TIP3   OH231357   0.840   0.200   4.935 -0.3355 -0.1026  0.5833
 3289TIP3    H131358   0.857   0.173   4.844 -0.6173  1.9970 -0.1296
 3289TIP3    H231359   0.913   0.257   4.958  0.0047 -1.0385  1.8854
 3290TIP3   OH231360   0.206   3.722   0.142  0.5112  0.4600  0.7609
 3290TIP3    H131361   0.116   3.693   0.160  0.7689  0.7652  2.6945
 3290TIP3    H231362   0.259   3.644   0.157  0.5467  0.1952 -0.7067
 3291TIP3   OH231363   3.184   3.603  15.796 -0.2737 -0.4545  0.3401
 3291TIP3    H131364   3.252   3.601  15.728 -0.0085  1.8740  0.5103
 3291TIP3    H231365   3.231   3.577  15.876  0.3136  0.5976  0.3498
 3292TIP3   OH231366   6.756   0.704   1.934 -0.3793 -0.4273 -0.8435
 3292TIP3    H131367   6.745   0.719   2.028 -3.4098 -0.8557 -1.0731
 3292TIP3    H231368   6.677   0.741   1.895  0.6913 -0.5567 -3.2196
 3293TIP3   OH231369   6.018   3.002   3.074 -0.3647 -0.4371  0.0415
 3293TIP3    H131370   5.968   3.067   3.025 -0.9042 -0.6335  0.3253
 3293TIP3    H231371   6.041   3.045   3.156  4.6759  1.6150 -2.2299
 3294TIP3   OH231372   4.301   0.156   1.930 -0.5311 -0.1936  0.1440
 3294TIP3    H131373   4.377   0.126   1.980 -0.5818 -0.7487 -0.1145
 3294TIP3    H231374   4.225   0.127   1.980 -0.5949 -1.9266 -0.9340
 3295TIP3   OH231375   0.260   3.955  16.869  0.3477 -0.7073  0.6315
 3295TIP3    H131376   0.213   4.037  16.856  0.2089 -0.8045  0.5172
 3295TIP3    H231377   0.311   3.969  16.949  0.4511 -0.4528  0.5231
 3296TIP3   OH231378   0.061   4.995  16.118  0.0531  0.1360 -0.8553
 3296TIP3    H131379   0.137   5.043  16.084  0.3837 -0.9562 -1.6823
 3296TIP3    H231380   0.078   4.988  16.212 -0.7115  2.8741 -0.4781
 3297TIP3   OH231381   1.630   3.128   0.337 -0.3167 -0.2853 -0.2572
 3297TIP3    H131382   1.617   3.062   0.269  1.2420  0.0610 -0.9233
 3297TIP3    H231383   1.722   3.119   0.362 -0.0654  1.6632 -0.3940
 3298TIP3   OH231384   4.188   2.163   3.160  0.3691 -0.1085 -0.0608
 3298TIP3    H131385   4.092   2.163   3.158  0.3534 -0.9576  0.4449
 3298TIP3    H231386   4.211   2.077   3.196  1.2461  1.0279  2.2035
 3299TIP3   OH231387   0.361   1.348   5.566  0.0417  0.4776 -0.1963
 3299TIP3    H131388   0.351   1.333   5.660 -2.6226  1.7025 -0.2355
 3299TIP3    H231389   0.425   1.419   5.559 -0.4502  1.0170  0.7250
 3300TIP3   OH231390   5.801   4.444   3.841 -0.2277  0.0721  0.5698
 3300TIP3    H131391   5.731   4.452   3.906 -2.6302  1.2353 -2.0640
 3300TIP3    H231392   5.779   4.366   3.791 -0.7118  1.4645 -1.4447
 3301TIP3   OH231393   5.993   1.236  12.602 -1.0945 -0.3029  0.0408
 3301TIP3    H131394   6.054   1.292  12.648  0.5975 -0.0434 -2.4281
 3301TIP3    H231395   5.915   1.290  12.589 -0.4841  0.5736  0.0336
 3302TIP3   OH231396   6.439   0.670  12.205  0.0488  0.4694 -0.4081
 3302TIP3    H131397   6.378   0.739  12.230  0.4778  0.9264 -0.6079
 3302TIP3    H231398   6.454   0.620  12.286  1.3868  1.9027  0.2728
 3303TIP3   OH231399   6.750   1.284   4.198 -0.1575 -0.4729 -0.2161
 3303TIP3    H131400   6.819   1.259   4.137  2.2891  2.5979  1.1430
 3303TIP3    H231401   6.710   1.361   4.158 -0.0963  0.1552  0.9160
 3304TIP3   OH231402   1.909   0.286   0.867  0.1918  0.6949 -0.6788
 3304TIP3    H131403   1.841   0.304   0.932 -0.1544  0.2498 -0.9213
 3304TIP3    H231404   1.917   0.191   0.866 -0.5415  0.6378 -2.0595
 3305TIP3   OH231405   4.889   4.729  11.554  0.6823 -0.1165 -0.3727
 3305TIP3    H131406   4.897   4.646  11.505  1.0033 -0.1484 -0.2707
 3305TIP3    H231407   4.952   4.787  11.512 -0.0672  0.3112 -0.9135
 3306TIP3   OH231408   2.642   5.507  12.352  0.4591 -0.8316 -0.4282
 3306TIP3    H131409   2.608   5.552  12.430  0.6658 -0.3005 -0.6387
 3306TIP3    H231410   2.613   5.417  12.361  1.9201 -1.1798  1.1338
 3307TIP3   OH231411   1.426   1.772   4.459 -0.0021  0.3059  0.1626
 3307TIP3    H131412   1.402   1.863   4.441 -2.7000 -0.3535  0.2338
 3307TIP3    H231413   1.518   1.777   4.485 -0.1551  3.0411  0.3911
 3308TIP3   OH231414   4.470   5.396  13.095 -0.3520 -0.4370  0.1768
 3308TIP3    H131415   4.490   5.400  13.188 -0.6220 -1.5723  0.2985
 3308TIP3    H231416   4.383   5.435  13.087  0.0289  0.4317  0.2778
 3309TIP3   OH231417   5.999   3.847   3.312 -0.1796 -0.0475  0.3201
 3309TIP3    H131418   6.022   3.912   3.246 -1.6403  1.8341  1.6023
 3309TIP3    H231419   5.911   3.817   3.287  0.1533 -0.9179  0.1933
 3310TIP3   OH231420   6.605   0.315  13.746  0.0974  0.1589 -0.1912
 3310TIP3    H131421   6.589   0.408  13.732  1.6188  0.4840  0.0579
 3310TIP3    H231422   6.650   0.312  13.831 -0.7999 -0.8895  0.2463
 3311TIP3   OH231423   5.773   0.118   4.835  0.5266 -0.4838  0.4016
 3311TIP3    H131424   5.850   0.170   4.857 -0.5689  1.3556  0.0299
 3311TIP3    H231425   5.705   0.148   4.896  0.1602 -2.2747  0.9047
 3312TIP3   OH231426   0.686   4.341  12.555  0.1359 -0.1743 -0.2652
 3312TIP3    H131427   0.623   4.347  12.626 -1.2347 -0.0456 -1.4723
 3312TIP3    H231428   0.691   4.430  12.519  1.3279 -0.0877  0.0994
 3313TIP3   OH231429   0.390   0.374   2.999  0.1134 -0.4028 -0.1255
 3313TIP3    H131430   0.438   0.376   3.082 -1.0524  0.3056  0.5418
 3313TIP3    H231431   0.373   0.465   2.979 -0.5571 -0.6332 -0.5917
 3314TIP3   OH231432   1.271   2.913   4.709  0.3293  0.0634 -0.7827
 3314TIP3    H131433   1.336   2.951   4.768 -1.1212  2.1669 -0.4945
 3314TIP3    H231434   1.205   2.981   4.698 -1.8428 -2.0056 -1.0626
 3315TIP3   OH231435   4.013   1.812  13.985  0.0935 -0.3850 -0.7382
 3315TIP3    H131436   3.992   1.905  13.988 -0.8893 -0.6111 -0.5691
 3315TIP3    H231437   4.099   1.808  13.942 -0.2951  0.5232 -1.6063
 3316TIP3   OH231438   1.057   0.414   4.959  0.1120  0.2051  0.1912
 3316TIP3    H131439   1.026   0.505   4.965  0.9251  0.6647 -1.9872
 3316TIP3    H231440   1.151   0.420   4.977  0.2977 -0.0883 -0.6577
 3317TIP3   OH231441   2.506   0.621   4.746  0.2316 -0.3892  0.0627
 3317TIP3    H131442   2.438   0.650   4.686  0.6567  0.0035 -0.2249
 3317TIP3    H231443   2.527   0.531   4.718  0.2483 -0.2988 -0.2148
 3318TIP3   OH231444   5.332   2.683  12.940  0.4435 -0.8574 -0.2799
 3318TIP3    H131445   5.350   2.770  12.976 -0.6999 -0.1021 -1.4619
 3318TIP3    H231446   5.383   2.623  12.994  1.9437  0.6426 -0.0024
 3319TIP3   OH231447   1.335   0.789   0.072  0.6089  0.6907 -0.6955
 3319TIP3    H131448   1.265   0.745   0.122  1.4667  0.8640  0.7083
 3319TIP3    H231449   1.411   0.731   0.083  1.2162  1.5139 -0.5099
 3320TIP3   OH231450   4.254   0.459   2.708  0.1658 -0.5673  0.6904
 3320TIP3    H131451   4.233   0.439   2.617  2.5700 -1.5154  0.2891
 3320TIP3    H231452   4.170   0.482   2.749 -0.7153  1.4853 -2.1393
 3321TIP3   OH231453   4.915   4.890   4.947  0.2423  0.4673 -0.3779
 3321TIP3    H131454   4.829   4.899   4.906  0.9149 -2.1438 -2.5164
 3321TIP3    H231455   4.899   4.836   5.025 -0.1354  0.5138 -0.4222
 3322TIP3   OH231456   6.437   0.582  15.194  0.6447  0.1373  0.0430
 3322TIP3    H131457   6.503   0.642  15.227 -0.3072  0.5798  1.2161
 3322TIP3    H231458   6.361   0.637  15.176  0.0386 -0.5904  0.3489
 3323TIP3   OH231459   0.289   3.843   1.662  0.1448 -0.1767  0.6582
 3323TIP3    H131460   0.289   3.748   1.655 -0.8688 -0.0137 -2.6247
 3323TIP3    H231461   0.381   3.869   1.654  0.1075 -0.7310 -1.7775
 3324TIP3   OH231462   1.273   2.606   3.136  0.5321 -0.2184  0.3587
 3324TIP3    H131463   1.318   2.604   3.051  1.0198  0.0024  0.6086
 3324TIP3    H231464   1.200   2.545   3.126  1.5619 -1.4763  0.3236
 3325TIP3   OH231465   0.893   0.677   5.581 -0.2166 -0.3671  0.0056
 3325TIP3    H131466   0.950   0.721   5.643 -0.6106  0.0720  0.0647
 3325TIP3    H231467   0.882   0.588   5.615  0.8357 -0.6100 -0.2813
 3326TIP3   OH231468   1.340   0.097  16.990 -0.0153  0.5940 -0.6215
 3326TIP3    H131469   1.410   0.041  16.957  0.4700  2.5475 -3.0799
 3326TIP3    H231470   1.362   0.111  17.082  1.7558 -0.3935 -0.8703
 3327TIP3   OH231471   6.358   4.104  12.645  0.4530  0.0668 -0.3704
 3327TIP3    H131472   6.351   4.165  12.718  0.4223  0.0630 -0.3692
 3327TIP3    H231473   6.268   4.075  12.629  0.2304  1.3498 -1.5153
 3328TIP3   OH231474   3.157   3.324   1.784 -0.8415  0.5515  0.6528
 3328TIP3    H131475   3.116   3.325   1.698 -0.3824  1.1532  0.4341
 3328TIP3    H231476   3.112   3.255   1.831 -0.8182 -0.0633 -0.2114
 3329TIP3   OH231477   3.744   1.373  13.620  0.3149  0.3919 -0.0658
 3329TIP3    H131478   3.798   1.340  13.548 -2.2105 -3.7110 -0.2188
 3329TIP3    H231479   3.674   1.422  13.577 -0.2323 -0.6042 -0.3140
 3330TIP3   OH231480   4.752   1.811   3.922 -0.4300  0.4601 -0.1583
 3330TIP3    H131481   4.817   1.791   3.855 -1.3452 -1.2937 -0.5563
 3330TIP3    H231482   4.804   1.834   3.999  0.6784 -0.9611 -0.4586
 3331TIP3   OH231483   2.899   1.133   1.262 -0.2647 -0.3894 -0.5879
 3331TIP3    H131484   2.836   1.067   1.290  0.4629 -1.0602 -0.5225
 3331TIP3    H231485   2.912   1.116   1.169 -1.0886  0.5171 -0.8821
 3332TIP3   OH231486   3.021   4.950   4.522  0.2286  0.0110 -0.3209
 3332TIP3    H131487   2.988   5.035   4.494 -1.9928 -0.4698  0.6677
 3332TIP3    H231488   3.002   4.947   4.616  1.7522 -0.9265 -0.0259
 3333TIP3   OH231489   5.124   6.793  13.246 -0.2390  0.0375 -0.1413
 3333TIP3    H131490   5.173   6.735  13.304  0.7093 -0.6711 -1.6463
 3333TIP3    H231491   5.190   6.835  13.191 -1.2094 -0.0868 -1.4281
 3334TIP3   OH231492   6.779   3.337   4.046  0.4421  0.1830  0.4460
 3334TIP3    H131493   6.813   3.348   4.135 -0.5734 -1.8782  1.1149
 3334TIP3    H231494   6.685   3.321   4.058 -0.1256  2.0873 -1.1560
 3335TIP3   OH231495   1.786   4.118   2.276 -0.3529 -0.1362  0.5041
 3335TIP3    H131496   1.815   4.097   2.365  0.0602  3.3829  1.2590
 3335TIP3    H231497   1.867   4.140   2.229 -0.8471  0.5991 -0.0076
 3336TIP3   OH231498   2.896   2.841   6.441  0.1034 -0.1004 -0.1515
 3336TIP3    H131499   2.935   2.901   6.505 -2.0011 -0.2397  1.3059
 3336TIP3    H231500   2.804   2.866   6.437 -0.0127 -0.7429 -2.4329
 3337TIP3   OH231501   1.478   3.106   3.136  0.0162  0.2394  0.1030
 3337TIP3    H131502   1.532   3.135   3.063 -1.8167 -0.8704 -1.7743
 3337TIP3    H231503   1.493   3.011   3.141 -1.5675 -0.0477 -0.3078
 3338TIP3   OH231504   6.806   3.763   3.222 -0.0314  0.0950 -0.4221
 3338TIP3    H131505   6.754   3.697   3.268 -0.1308  0.9444  0.7121
 3338TIP3    H231506   6.757   3.780   3.141 -1.8111  1.2418  0.8633
 3339TIP3   OH231507   5.074   5.554  11.527 -0.1636  0.5088  0.2607
 3339TIP3    H131508   5.043   5.497  11.597  1.9470  0.4944  1.2319
 3339TIP3    H231509   5.155   5.592  11.561  1.0754  0.2668 -2.3019
 3340TIP3   OH231510   6.757   4.252  15.106 -0.1873 -0.1211  0.4195
 3340TIP3    H131511   6.806   4.189  15.053  0.0363 -0.3032  0.8372
 3340TIP3    H231512   6.818   4.276  15.176  0.4128  1.9779 -0.7807
 3341TIP3   OH231513   4.920   6.800   1.128 -1.0465 -0.0267 -0.3355
 3341TIP3    H131514   4.870   6.873   1.092 -0.2644  1.2820  1.1602
 3341TIP3    H231515   4.973   6.769   1.055  0.9389  2.9342 -0.2574
 3342TIP3   OH231516   5.866   5.909   0.343  0.4101 -0.4614 -0.4416
 3342TIP3    H131517   5.809   5.908   0.266 -1.4442  1.0351  0.8703
 3342TIP3    H231518   5.807   5.930   0.416  2.3324 -0.7402  1.2183
 3343TIP3   OH231519   5.759   3.772   4.978 -0.1414  0.3677 -0.3367
 3343TIP3    H131520   5.832   3.753   5.037  0.6539  0.8842 -1.1415
 3343TIP3    H231521   5.754   3.695   4.921  0.4144  0.7442 -0.9093
 3344TIP3   OH231522   3.647   5.210   5.792 -0.2723  0.2341  0.3613
 3344TIP3    H131523   3.620   5.134   5.741  1.7011 -0.4330  0.2476
 3344TIP3    H231524   3.741   5.218   5.775 -0.1243  1.6810  1.7027
 3345TIP3   OH231525   3.806   3.300   3.904 -0.0625  0.2131 -0.5605
 3345TIP3    H131526   3.749   3.350   3.845  1.2662  2.0761 -0.3280
 3345TIP3    H231527   3.876   3.268   3.848  0.0084  0.0683 -0.3893
 3346TIP3   OH231528   0.678   2.056  13.841  0.0960 -0.6722 -0.0668
 3346TIP3    H131529   0.588   2.075  13.866 -0.0334  1.1187 -1.7380
 3346TIP3    H231530   0.679   1.962  13.822 -1.4074 -0.7093  0.0003
 3347TIP3   OH231531   5.618   2.399   0.772 -0.3374 -0.7023  0.8765
 3347TIP3    H131532   5.619   2.486   0.813 -2.0259 -0.0583 -0.3842
 3347TIP3    H231533   5.689   2.352   0.816  0.0330  1.0100  2.2209
 3348TIP3   OH231534   2.486   4.012  13.785 -0.0608 -0.0487  0.4369
 3348TIP3    H131535   2.542   3.934  13.782  0.5717  0.4565 -1.0779
 3348TIP3    H231536   2.425   4.001  13.713  0.4403  1.1596 -0.1827
 3349TIP3   OH231537   6.008   1.025  13.997  0.2527 -0.0732  0.8517
 3349TIP3    H131538   5.966   1.053  13.915  1.7740  1.2046  0.4856
 3349TIP3    H231539   6.069   0.956  13.970  0.0594 -0.3181  1.0452
 3350TIP3   OH231540   2.895   3.642  14.635 -0.2833 -0.7428  0.0959
 3350TIP3    H131541   2.853   3.635  14.550  0.4489  1.4654 -0.4841
 3350TIP3    H231542   2.987   3.620  14.618 -0.4959 -2.1458  0.6929
 3351TIP3   OH231543   5.484   0.035   2.859 -0.0115  0.0660 -0.4398
 3351TIP3    H131544   5.538   0.065   2.932  1.0860 -1.4873 -0.5714
 3351TIP3    H231545   5.493   0.102   2.792  1.9829 -0.2911 -0.5497
 3352TIP3   OH231546   2.552   4.387   0.994  0.1770  0.2539 -0.4589
 3352TIP3    H131547   2.603   4.449   1.047 -1.4210  1.7475 -0.6175
 3352TIP3    H231548   2.597   4.303   1.005  0.8138  0.8772  1.9496
 3353TIP3   OH231549   4.274   0.546   4.423  0.7125 -0.5805 -0.2573
 3353TIP3    H131550   4.353   0.578   4.380 -0.7371  0.4666 -2.1984
 3353TIP3    H231551   4.225   0.501   4.355  0.0633 -2.0599  1.1465
 3354TIP3   OH231552   5.144   4.318   0.370  0.0650 -0.0351 -0.1120
 3354TIP3    H131553   5.094   4.328   0.451  0.6136  0.7167  0.1342
 3354TIP3    H231554   5.220   4.375   0.381  0.4220 -0.3416 -0.9348
 3355TIP3   OH231555   4.309   1.592  13.012 -0.0870 -0.0365  0.7763
 3355TIP3    H131556   4.223   1.552  13.024  0.3461 -0.6969  1.7349
 3355TIP3    H231557   4.362   1.557  13.083  1.3425 -0.6466 -0.5555
 3356TIP3   OH231558   3.956   1.307   3.763  0.1818 -0.1282 -0.6640
 3356TIP3    H131559   3.972   1.394   3.726 -1.0823  0.3559 -0.1176
 3356TIP3    H231560   4.005   1.306   3.845  0.4876 -0.0626 -0.8466
 3357TIP3   OH231561   3.640   2.408   0.612 -0.0091  0.1526  0.1645
 3357TIP3    H131562   3.551   2.394   0.644 -0.1015  2.3154  0.8589
 3357TIP3    H231563   3.689   2.332   0.644 -2.1851 -2.5926 -2.6573
 3358TIP3   OH231564   3.752   0.163   4.830  0.1020 -0.1698 -0.1478
 3358TIP3    H131565   3.717   0.124   4.750  1.1896 -1.3261 -0.0895
 3358TIP3    H231566   3.784   0.249   4.802  1.2856 -0.9156 -1.1743
 3359TIP3   OH231567   0.163   2.459   4.601  0.1344  0.2319  0.3775
 3359TIP3    H131568   0.166   2.538   4.656 -1.1491 -0.2259  1.1186
 3359TIP3    H231569   0.240   2.467   4.544 -0.5605  2.5505 -0.2865
 3360TIP3   OH231570   4.988   5.600  13.866  0.2638  0.4611 -0.2031
 3360TIP3    H131571   4.986   5.696  13.868  1.9348  0.5071 -0.1346
 3360TIP3    H231572   4.978   5.573  13.957 -0.5891  0.5598 -0.2660
 3361TIP3   OH231573   1.635   5.320   4.072  0.0641 -0.2053  0.1276
 3361TIP3    H131574   1.723   5.290   4.052  0.0231 -1.2492  1.4258
 3361TIP3    H231575   1.583   5.297   3.995  0.6014 -1.0364  0.0155
 3362TIP3   OH231576   2.098   5.966  12.474  0.0487  0.4866 -0.0289
 3362TIP3    H131577   2.040   5.919  12.534  1.9900  2.4715  3.6688
 3362TIP3    H231578   2.042   6.028  12.429 -1.3555 -0.5085  0.3188
 3363TIP3   OH231579   4.218   0.867   3.909 -0.2419  0.0684 -0.5259
 3363TIP3    H131580   4.188   0.926   3.979 -0.0350 -1.0465  0.5152
 3363TIP3    H231581   4.172   0.898   3.831 -1.7080  0.3435  0.4211
 3364TIP3   OH231582   5.856   2.748  11.736  0.5268 -0.0917  0.2540
 3364TIP3    H131583   5.865   2.842  11.748  1.0341 -0.1010 -0.0236
 3364TIP3    H231584   5.777   2.724  11.784  0.1134  0.5587 -0.1002
 3365TIP3   OH231585   2.520   1.602   5.833 -0.3544  0.7473  0.1069
 3365TIP3    H131586   2.472   1.611   5.916 -0.1764 -1.6903  0.4957
 3365TIP3    H231587   2.574   1.681   5.829 -3.7008  3.1293  0.0788
 3366TIP3   OH231588   5.184   0.633  10.767  0.2340 -0.3932  0.7508
 3366TIP3    H131589   5.195   0.686  10.846 -0.2966  1.1261 -0.1898
 3366TIP3    H231590   5.116   0.570  10.790 -0.8794  0.9121  1.0697
 3367TIP3   OH231591   6.458   5.015   3.449  0.3276 -1.1331  0.5270
 3367TIP3    H131592   6.453   5.073   3.525 -0.6443  0.6811 -0.8661
 3367TIP3    H231593   6.376   4.966   3.450  0.3575 -1.1810  0.6889
 3368TIP3   OH231594   4.175   5.327  11.340  0.2569  0.4779 -0.2142
 3368TIP3    H131595   4.227   5.307  11.262 -2.3040 -2.4088 -1.2538
 3368TIP3    H231596   4.208   5.268  11.407  1.0980  1.5672  0.3502
 3369TIP3   OH231597   3.793   2.456  17.226  0.1493 -0.1474 -0.5529
 3369TIP3    H131598   3.880   2.494  17.226 -0.0015  0.2770  1.8720
 3369TIP3    H231599   3.798   2.383  17.288 -1.8994  1.6507  1.8474
 3370TIP3   OH231600   2.353   2.673   4.298 -0.0782  0.4036 -0.2073
 3370TIP3    H131601   2.364   2.768   4.297  0.0305  0.3924 -0.1120
 3370TIP3    H231602   2.329   2.650   4.209  1.2552  0.3544 -0.5601
 3371TIP3   OH231603   6.000   2.710  15.332  0.4803  0.0187  0.3991
 3371TIP3    H131604   5.906   2.702  15.351  0.5546  1.0691  1.2684
 3371TIP3    H231605   6.042   2.656  15.399  0.4655 -1.3392 -0.6572
 3372TIP3   OH231606   5.470   0.894  12.219 -0.0709 -0.0089  0.3231
 3372TIP3    H131607   5.390   0.909  12.167 -0.0938  2.6824  1.0463
 3372TIP3    H231608   5.466   0.961  12.288  2.1494 -0.7115  1.1604
 3373TIP3   OH231609   6.060   1.724   0.159 -0.0012  0.6010 -0.7327
 3373TIP3    H131610   6.089   1.761   0.243  0.7905 -1.8308  0.0938
 3373TIP3    H231611   6.074   1.795   0.096  0.6643  2.0059  0.9475
 3374TIP3   OH231612   3.668   4.334  11.342  0.2659  0.4418 -0.1228
 3374TIP3    H131613   3.598   4.387  11.380 -0.7764 -1.1167  0.1497
 3374TIP3    H231614   3.633   4.305  11.258  1.5594  1.6986 -1.1440
 3375TIP3   OH231615   5.904   4.804   0.912  0.3475 -0.1731 -0.2320
 3375TIP3    H131616   5.999   4.815   0.902  0.2939  0.1361 -0.4050
 3375TIP3    H231617   5.890   4.710   0.901  0.5951 -0.1763 -0.5492
 3376TIP3   OH231618   1.142   2.402  10.955  0.9042  0.3278 -0.3326
 3376TIP3    H131619   1.146   2.463  10.881  0.2541  0.2413 -0.4441
 3376TIP3    H231620   1.101   2.323  10.918 -0.3066  0.6288  0.3531
 3377TIP3   OH231621   0.918   1.035   6.822 -0.3049  0.2330  0.2509
 3377TIP3    H131622   0.896   1.102   6.758  0.8887 -2.1027 -2.7538
 3377TIP3    H231623   0.842   0.977   6.825 -0.1548  0.0459  0.5654
 3378TIP3   OH231624   0.552   3.770   0.241 -0.9470  0.6758 -0.1554
 3378TIP3    H131625   0.535   3.726   0.324 -0.0478  2.3256  0.9345
 3378TIP3    H231626   0.641   3.744   0.218 -0.2500  2.2014  0.7116
 3379TIP3   OH231627   6.612   1.351  15.286 -0.5325  0.1973 -0.1058
 3379TIP3    H131628   6.525   1.378  15.257 -1.2413  0.4855  2.1613
 3379TIP3    H231629   6.598   1.265  15.325  0.1412  0.3453  0.4713
 3380TIP3   OH231630   6.102   5.641   1.210  0.1757  0.7159 -0.1173
 3380TIP3    H131631   6.147   5.583   1.270 -0.8920  1.6810  1.6499
 3380TIP3    H231632   6.159   5.718   1.204 -0.2712  1.1079  0.5837
 3381TIP3   OH231633   4.537   0.561  10.653  0.0208 -0.1240  0.5362
 3381TIP3    H131634   4.571   0.650  10.659  1.6918 -0.7429  0.6430
 3381TIP3    H231635   4.593   0.510  10.712 -0.7087 -1.2976  0.2281
 3382TIP3   OH231636   3.691   5.928  12.107 -0.0559 -0.3072 -0.3092
 3382TIP3    H131637   3.626   5.997  12.116  0.5933 -0.0271  2.6026
 3382TIP3    H231638   3.641   5.847  12.122 -0.4656 -0.3939 -1.9902
 3383TIP3   OH231639   1.398   3.770  13.060 -0.1028  0.2814 -0.1803
 3383TIP3    H131640   1.456   3.844  13.041  0.0078  0.1402 -0.3855
 3383TIP3    H231641   1.453   3.709  13.109 -0.4244  0.7098  0.7407
 3384TIP3   OH231642   3.164   5.871   0.251  0.0368  0.0956  0.1780
 3384TIP3    H131643   3.221   5.948   0.242  0.7800 -0.3052  1.3623
 3384TIP3    H231644   3.084   5.895   0.205  1.0168  0.8192 -1.1891
 3385TIP3   OH231645   0.056   1.206   5.187  0.0543 -0.4905 -0.5309
 3385TIP3    H131646   0.081   1.297   5.203  1.0964 -1.0671  1.3185
 3385TIP3    H231647  -0.021   1.211   5.130 -0.4625  1.5774  0.3243
 3386TIP3   OH231648   1.418   4.764  11.496 -0.4015 -0.2713  0.2816
 3386TIP3    H131649   1.461   4.826  11.437  1.1214 -0.1932  1.4520
 3386TIP3    H231650   1.442   4.678  11.463 -0.9523 -0.2458 -0.2064
 3387TIP3   OH231651   2.175   2.523   4.067  0.0096  0.1467 -0.1482
 3387TIP3    H131652   2.255   2.474   4.045 -1.1189 -0.8553 -2.0759
 3387TIP3    H231653   2.158   2.577   3.990  0.9209  3.2329  1.7269
 3388TIP3   OH231654   1.003   0.919   3.221  0.3796 -0.0002  0.3563
 3388TIP3    H131655   0.911   0.942   3.203 -0.0087  0.0879  2.3471
 3388TIP3    H231656   1.052   0.964   3.152 -1.0284  0.2615 -0.5128
 3389TIP3   OH231657   6.198   6.044   2.057  0.2503  0.4033 -0.2880
 3389TIP3    H131658   6.243   6.083   2.132  1.0979 -0.5704 -0.2700
 3389TIP3    H231659   6.151   5.969   2.093  0.8945 -0.2392 -0.7608
 3390TIP3   OH231660   0.278   4.588   3.014 -0.2914 -0.1074 -0.2230
 3390TIP3    H131661   0.243   4.509   3.056 -0.1478 -0.0239  0.0496
 3390TIP3    H231662   0.223   4.659   3.048 -0.7725 -0.1542 -0.8811
 3391TIP3   OH231663   6.301   2.161  13.005  0.1364  0.5705  0.1503
 3391TIP3    H131664   6.393   2.164  12.981 -0.0148  1.3915 -0.3828
 3391TIP3    H231665   6.269   2.250  12.987 -0.4522  0.6601  1.5563
 3392TIP3   OH231666   5.252   4.605  13.694 -0.4275 -0.0983  0.3410
 3392TIP3    H131667   5.296   4.527  13.659 -0.7673  1.0067 -2.6385
 3392TIP3    H231668   5.166   4.604  13.653  0.0729  2.5956 -0.8377
 3393TIP3   OH231669   5.675   5.948   3.739  0.1959  0.1301 -0.6395
 3393TIP3    H131670   5.604   6.004   3.771  0.5298  0.6641 -0.8106
 3393TIP3    H231671   5.672   5.957   3.643 -0.2886 -0.8220 -0.7172
 3394TIP3   OH231672   0.254   3.424  15.281 -0.0061 -0.0573 -0.1908
 3394TIP3    H131673   0.172   3.457  15.319  1.0350  0.9467  1.2293
 3394TIP3    H231674   0.260   3.333  15.312 -1.1443 -0.5249 -1.2686
 3395TIP3   OH231675   1.229   4.273   6.315 -0.2822  0.8054  0.0711
 3395TIP3    H131676   1.238   4.367   6.331  3.2980  0.5207  0.1826
 3395TIP3    H231677   1.272   4.231   6.389  1.3385 -0.8223 -1.7172
 3396TIP3   OH231678   6.400   5.957   0.723 -0.2719  0.3825 -0.1032
 3396TIP3    H131679   6.424   6.019   0.654 -0.5171 -0.5986 -1.1000
 3396TIP3    H231680   6.484   5.927   0.759 -0.0962 -0.2531 -1.0303
 3397TIP3   OH231681   6.277   5.170   0.602  0.0516 -0.4561 -0.7358
 3397TIP3    H131682   6.314   5.178   0.690 -0.7047  0.9791 -0.5306
 3397TIP3    H231683   6.206   5.235   0.599 -1.0127 -1.6364 -1.8534
 3398TIP3   OH231684   3.413   4.340  14.011  0.5344  0.0101  0.4939
 3398TIP3    H131685   3.504   4.309  14.007  0.0441 -1.4185  0.2642
 3398TIP3    H231686   3.415   4.424  13.965  1.9655  0.5739  1.4996
 3399TIP3   OH231687   5.649   0.371  13.658 -0.4375  0.0873 -0.3205
 3399TIP3    H131688   5.733   0.326  13.666 -0.4719 -0.2479 -1.7086
 3399TIP3    H231689   5.667   0.447  13.603 -0.8979  0.4037 -0.0424
 3400TIP3   OH231690   3.073   1.365   4.089 -0.2272  0.2399  0.4379
 3400TIP3    H131691   2.981   1.341   4.081 -0.1376  0.1852 -0.5264
 3400TIP3    H231692   3.072   1.461   4.093 -0.2711  0.2944 -0.6052
 3401TIP3   OH231693   4.455   4.781  12.125 -0.4753 -0.2624  0.1732
 3401TIP3    H131694   4.495   4.835  12.057 -0.2955 -0.8666 -0.2034
 3401TIP3    H231695   4.492   4.693  12.111 -0.4583 -0.3928  1.0291
 3402TIP3   OH231696   3.748   2.776  15.660  0.0465 -0.0598 -0.3588
 3402TIP3    H131697   3.685   2.811  15.597 -0.3387  1.3112  0.7592
 3402TIP3    H231698   3.771   2.852  15.714  1.5809 -0.8654  0.1328
 3403TIP3   OH231699   1.242   0.780   3.618  0.3709 -0.3390 -0.0925
 3403TIP3    H131700   1.191   0.758   3.540 -0.0628  0.1734  0.0475
 3403TIP3    H231701   1.288   0.860   3.595 -0.2382  0.1543  0.3912
 3404TIP3   OH231702   6.081   5.631  15.671  0.2949  0.0360  0.1509
 3404TIP3    H131703   6.053   5.544  15.644  1.1298 -0.1301 -0.1832
 3404TIP3    H231704   6.063   5.634  15.765 -0.4929 -0.2021  0.0082
 3405TIP3   OH231705   0.321   1.003  11.960 -0.0700 -0.2437  0.4945
 3405TIP3    H131706   0.283   0.917  11.979 -1.4490 -0.1866 -1.9491
 3405TIP3    H231707   0.262   1.065  12.003 -1.4878 -0.2826 -1.3780
 3406TIP3   OH231708   3.142   2.883  14.857  0.0200  0.0665  0.2246
 3406TIP3    H131709   3.119   2.970  14.823 -0.1277  0.2883  0.8945
 3406TIP3    H231710   3.093   2.875  14.938  1.0188 -0.1356  0.8156
 3407TIP3   OH231711   3.225   6.568   3.699 -0.6343 -0.3106  0.7889
 3407TIP3    H131712   3.143   6.552   3.746 -0.1422 -2.8656  0.8162
 3407TIP3    H231713   3.285   6.601   3.766 -1.1828  0.0824  1.0882
 3408TIP3   OH231714   5.597   2.647  15.121 -0.2457 -0.7989  0.1951
 3408TIP3    H131715   5.542   2.723  15.141  0.0415 -0.1819 -1.2871
 3408TIP3    H231716   5.558   2.610  15.041 -0.4233 -2.2533  0.9436
 3409TIP3   OH231717   4.608   4.431   4.999 -0.0281 -0.0037  0.2660
 3409TIP3    H131718   4.529   4.390   5.034 -0.9087  0.1139 -1.5193
 3409TIP3    H231719   4.606   4.520   5.032  0.9597 -0.8560  2.7125
 3410TIP3   OH231720   4.411   6.138   4.724 -0.3733 -0.3423  0.4070
 3410TIP3    H131721   4.480   6.099   4.669 -1.8786 -2.4152 -0.0642
 3410TIP3    H231722   4.459   6.180   4.795  1.4738 -0.1557 -0.8919
 3411TIP3   OH231723   4.663   4.291  16.331  0.7088 -0.5451 -0.3827
 3411TIP3    H131724   4.675   4.258  16.242  0.3841  1.3309 -1.1336
 3411TIP3    H231725   4.605   4.226  16.372 -0.7669 -0.3866 -2.1510
 3412TIP3   OH231726   6.582   6.540  13.733  0.0720  0.2549 -0.3412
 3412TIP3    H131727   6.595   6.476  13.663 -1.1578 -1.1465  0.6828
 3412TIP3    H231728   6.546   6.617  13.688  0.1098 -0.3172 -1.3727
 3413TIP3   OH231729   3.627   6.273   5.661 -0.9777 -0.2506 -0.4066
 3413TIP3    H131730   3.673   6.190   5.678 -0.3861  0.0373 -0.5810
 3413TIP3    H231731   3.661   6.302   5.576  0.8250  1.5113  0.8829
 3414TIP3   OH231732   4.140   3.988  15.253 -0.1671  0.0221  0.2785
 3414TIP3    H131733   4.129   3.957  15.164 -1.1790 -1.8619  1.0275
 3414TIP3    H231734   4.103   3.919  15.308  1.7388  0.4745  2.2292
 3415TIP3   OH231735   6.302   2.835   0.913  0.2965  0.6472  0.0774
 3415TIP3    H131736   6.308   2.788   0.830  0.0134  0.9419 -0.1076
 3415TIP3    H231737   6.234   2.900   0.899 -0.6449 -0.1287  0.9430
 3416TIP3   OH231738   3.671   1.620  14.965  0.0977  0.1042  0.1551
 3416TIP3    H131739   3.662   1.526  14.981 -0.7147  0.1403 -0.0567
 3416TIP3    H231740   3.749   1.646  15.014 -1.5167 -0.0761  2.9062
 3417TIP3   OH231741   1.662   5.562   5.479 -0.1460  0.4945 -0.0478
 3417TIP3    H131742   1.704   5.518   5.553 -0.3111  2.2888  1.1455
 3417TIP3    H231743   1.569   5.562   5.502 -0.0814  1.9812  0.2623
 3418TIP3   OH231744   6.036   4.500  15.709  0.2746  0.1355 -0.6032
 3418TIP3    H131745   6.036   4.495  15.614 -2.5494 -1.1663 -0.5815
 3418TIP3    H231746   6.011   4.590  15.729  1.2812  0.5239 -1.0658
 3419TIP3   OH231747   6.045   4.344  12.976  0.6896 -0.2381 -0.3026
 3419TIP3    H131748   5.949   4.344  12.974  0.6756 -1.0855  0.0380
 3419TIP3    H231749   6.069   4.434  12.997 -0.0307 -0.0085 -0.4439
 3420TIP3   OH231750   5.623   1.774  12.347 -0.2255 -0.1067 -0.4073
 3420TIP3    H131751   5.604   1.795  12.255  0.1948  1.5262 -0.1300
 3420TIP3    H231752   5.698   1.830  12.369 -0.4687 -0.3364  1.0073
 3421TIP3   OH231753   3.391   4.152   1.674  0.2925 -0.0712 -0.0084
 3421TIP3    H131754   3.470   4.147   1.619  1.0560 -0.9083  1.1416
 3421TIP3    H231755   3.330   4.205   1.623  1.3190 -0.0645 -1.2650
 3422TIP3   OH231756   3.881   1.524   3.456 -0.4252  0.2416 -0.1563
 3422TIP3    H131757   3.803   1.501   3.506 -0.7338  2.3904  0.4080
 3422TIP3    H231758   3.942   1.558   3.521  0.7825 -0.8590 -0.6852
 3423TIP3   OH231759   3.888   1.300  16.182  0.2030  0.4388  0.1722
 3423TIP3    H131760   3.902   1.231  16.117 -0.0328  0.2417  0.3243
 3423TIP3    H231761   3.928   1.266  16.262 -1.8241 -0.4966  0.8325
 3424TIP3   OH231762   4.651   2.851   4.881 -0.3019 -0.1229 -0.0482
 3424TIP3    H131763   4.680   2.809   4.800  0.3816 -0.0866  0.1758
 3424TIP3    H231764   4.668   2.786   4.949  4.2783  1.8471  0.8497
 3425TIP3   OH231765   1.602   1.374   3.575  0.2283  0.3543  0.6593
 3425TIP3    H131766   1.654   1.436   3.626 -1.4168  0.9726  1.5873
 3425TIP3    H231767   1.634   1.287   3.602  1.1061  0.7395  0.8654
 3426TIP3   OH231768   5.809   4.942   1.125  0.0639 -0.0620  0.0167
 3426TIP3    H131769   5.720   4.908   1.125  0.4272 -1.0420  1.3233
 3426TIP3    H231770   5.854   4.893   1.055 -0.0154 -0.6714  0.3888
 3427TIP3   OH231771   6.702   5.526   5.368  0.4150  0.4036  0.7406
 3427TIP3    H131772   6.643   5.542   5.441 -0.4525 -2.0309  0.6344
 3427TIP3    H231773   6.653   5.468   5.310  1.8345  0.6882 -0.7823
 3428TIP3   OH231774   1.033   5.640   0.339  0.1940  0.0230  0.2641
 3428TIP3    H131775   1.101   5.576   0.358  3.1262  1.8608 -3.2974
 3428TIP3    H231776   1.054   5.715   0.394 -1.2541 -0.7508  1.9342
 3429TIP3   OH231777   6.440   0.851   1.902  0.0940  0.0830 -0.2915
 3429TIP3    H131778   6.374   0.892   1.958 -0.2336  0.5247 -0.9945
 3429TIP3    H231779   6.401   0.767   1.877 -0.5936  0.7367 -1.4413
 3430TIP3   OH231780   2.439   2.332   4.666  0.2075  0.4410 -0.1190
 3430TIP3    H131781   2.480   2.418   4.678  1.3235 -0.0556 -0.3226
 3430TIP3    H231782   2.475   2.278   4.737  0.5513 -0.2304 -0.7967
 3431TIP3   OH231783   1.278   5.518   2.298 -0.1455  0.3601 -0.1456
 3431TIP3    H131784   1.230   5.516   2.381  1.9724  0.4266  1.1174
 3431TIP3    H231785   1.270   5.608   2.268 -0.1691  0.5623  0.4504
 3432TIP3   OH231786   6.278   4.516   2.880 -0.1057 -0.1738  0.1241
 3432TIP3    H131787   6.327   4.565   2.946  0.7818 -1.0207  0.1132
 3432TIP3    H231788   6.337   4.511   2.805 -0.6312 -0.2787 -0.2859
 3433TIP3   OH231789   6.507   5.118   4.453 -0.4601  0.4863 -0.3152
 3433TIP3    H131790   6.500   5.132   4.359 -1.3055 -1.6573 -0.6019
 3433TIP3    H231791   6.421   5.085   4.479  0.6056 -1.6395  0.6868
 3434TIP3   OH231792   0.641   0.769  15.558  0.0990  0.3158  0.5631
 3434TIP3    H131793   0.680   0.689  15.592 -2.3307 -0.7079  1.0422
 3434TIP3    H231794   0.650   0.762  15.463  2.2590  0.7400  0.7208
 3435TIP3   OH231795   1.683   2.578  11.821  0.0299 -0.7010  0.3037
 3435TIP3    H131796   1.669   2.670  11.795  3.3298  0.0046  0.8289
 3435TIP3    H231797   1.714   2.584  11.911  0.1426 -2.3499  0.3722
 3436TIP3   OH231798   5.732   1.645  15.536  0.2023 -0.2686  0.6596
 3436TIP3    H131799   5.700   1.729  15.502  2.9158  0.8271  0.7262
 3436TIP3    H231800   5.743   1.590  15.459 -1.4843 -0.5465  0.6051
 3437TIP3   OH231801   1.272   4.315   2.448 -0.3288 -0.4601  0.1953
 3437TIP3    H131802   1.357   4.358   2.461  0.1244 -1.5288  0.7841
 3437TIP3    H231803   1.290   4.222   2.459 -1.4190 -0.7688 -0.5346
 3438TIP3   OH231804   6.620   1.511  11.411 -0.4097 -0.1305  0.2818
 3438TIP3    H131805   6.626   1.513  11.315 -1.1493  0.4409  0.2424
 3438TIP3    H231806   6.683   1.578  11.440 -0.0345 -0.4480  0.2088
 3439TIP3   OH231807   0.052   5.281   2.600  0.1291 -0.9902  0.4398
 3439TIP3    H131808  -0.039   5.310   2.600 -0.0088 -1.4111 -0.3932
 3439TIP3    H231809   0.102   5.361   2.619 -0.4106 -0.7857  1.0342
 3440TIP3   OH231810   3.760   1.381  16.979 -0.1529 -0.3151 -0.3552
 3440TIP3    H131811   3.739   1.335  16.897  0.1025 -0.5922 -0.2694
 3440TIP3    H231812   3.784   1.310  17.040 -1.0795 -0.1653  0.1813
 3441TIP3   OH231813   3.868   1.014  16.569  0.4677 -0.4543 -0.5241
 3441TIP3    H131814   3.791   0.963  16.590  0.8584 -0.7834  0.1252
 3441TIP3    H231815   3.942   0.956  16.587  0.8977  0.1419 -0.3257
 3442TIP3   OH231816   5.153   2.083  11.649 -0.3360  0.0789  0.0718
 3442TIP3    H131817   5.116   1.998  11.625  0.1458  0.4128 -1.9645
 3442TIP3    H231818   5.234   2.061  11.696  0.2495 -0.6169 -1.2158
 3443TIP3   OH231819   2.695   0.798   5.557  0.2325  0.1678  0.3670
 3443TIP3    H131820   2.609   0.785   5.516  0.8546  0.9726 -1.2620
 3443TIP3    H231821   2.719   0.711   5.590 -1.0384 -0.1407  0.5150
 3444TIP3   OH231822   4.981   1.781  13.499 -0.4402  0.0157 -0.2393
 3444TIP3    H131823   5.005   1.869  13.527 -0.6137 -0.0628  0.1715
 3444TIP3    H231824   4.921   1.794  13.426 -1.0089  0.2564  0.2564
 3445TIP3   OH231825   1.446   3.857   3.474 -0.1013  0.2113 -0.4066
 3445TIP3    H131826   1.407   3.842   3.560  0.1467 -0.2866 -0.3816
 3445TIP3    H231827   1.397   3.800   3.415  0.5615 -0.3804 -0.3829
 3446TIP3   OH231828   5.984   3.289  13.146 -0.2906  0.0114 -0.1083
 3446TIP3    H131829   6.040   3.366  13.148  0.7513 -0.6962 -1.3464
 3446TIP3    H231830   5.930   3.296  13.225  2.7076 -0.1641  2.0530
 3447TIP3   OH231831   5.185   4.172  10.921  0.3655 -0.3792 -0.0704
 3447TIP3    H131832   5.273   4.138  10.901 -0.0087 -1.5016  0.1367
 3447TIP3    H231833   5.167   4.233  10.851  1.2404 -0.2850 -0.2275
 3448TIP3   OH231834   4.298   4.745  15.079  0.5441 -0.1671  0.3187
 3448TIP3    H131835   4.284   4.817  15.018  2.1179 -1.0907 -1.1821
 3448TIP3    H231836   4.245   4.673  15.044  1.6125 -0.7633 -0.0869
 3449TIP3   OH231837   6.655   3.062  14.380 -0.0336  0.2946  0.4950
 3449TIP3    H131838   6.698   3.085  14.298 -0.6385  0.3344  0.1842
 3449TIP3    H231839   6.726   3.053  14.443  0.3834  0.8674  0.1089
 3450TIP3   OH231840   6.718   5.279   4.582 -0.5225  0.4909  1.0301
 3450TIP3    H131841   6.756   5.217   4.644  2.3647  0.8444 -0.3143
 3450TIP3    H231842   6.686   5.225   4.510  4.7678  0.6167 -1.6060
 3451TIP3   OH231843   0.724   0.934   3.237 -0.3516  0.2417  0.1132
 3451TIP3    H131844   0.690   0.888   3.314  3.0540 -2.2627  0.2384
 3451TIP3    H231845   0.715   0.871   3.166 -0.3196  1.2840 -0.8165
 3452TIP3   OH231846   5.711   1.572   5.408  0.3849 -0.6147 -0.0863
 3452TIP3    H131847   5.746   1.607   5.490  1.3858  1.4996 -1.3698
 3452TIP3    H231848   5.779   1.512   5.377  1.1525  0.5052 -0.6078
 3453TIP3   OH231849   2.291   6.257   1.148  0.3057  0.0783 -0.3089
 3453TIP3    H131850   2.318   6.295   1.232  1.5663 -0.1465 -0.6037
 3453TIP3    H231851   2.213   6.205   1.169 -1.4483  2.7983  0.0941
 3454TIP3   OH231852   3.882   4.578  16.752  0.4700  0.4933  0.0257
 3454TIP3    H131853   3.929   4.656  16.780 -0.1555  1.0646 -0.4922
 3454TIP3    H231854   3.813   4.566  16.817  0.5988  0.3395  0.1349
 3455TIP3   OH231855   5.450   4.988   3.506  0.5096  0.5854 -0.7137
 3455TIP3    H131856   5.521   5.012   3.566  1.1799  0.8366 -1.6102
 3455TIP3    H231857   5.429   4.898   3.530  0.1653  0.9796  0.5049
 3456TIP3   OH231858   1.725   2.615  14.545 -0.2553  0.1272  0.0999
 3456TIP3    H131859   1.719   2.521  14.559 -0.6878 -0.1164 -1.5747
 3456TIP3    H231860   1.743   2.652  14.631 -1.7719 -1.3487  1.0671
 3457TIP3   OH231861   5.553   1.801   1.301 -0.8233  0.1652  0.2064
 3457TIP3    H131862   5.470   1.766   1.269 -0.2198  1.1033 -2.5271
 3457TIP3    H231863   5.606   1.813   1.223  0.1171  4.1693  1.3258
 3458TIP3   OH231864   2.247   5.009   5.864 -0.8463  0.0759 -0.1151
 3458TIP3    H131865   2.190   4.958   5.805  0.8225 -1.9838 -0.0217
 3458TIP3    H231866   2.206   4.999   5.950 -0.9839 -0.4503 -0.2364
 3459TIP3   OH231867   1.883   1.409  16.902 -0.3279 -0.9487  0.5916
 3459TIP3    H131868   1.931   1.390  16.821 -0.8762  1.0794 -0.2331
 3459TIP3    H231869   1.805   1.456  16.872  0.9261  2.4795  2.5490
 3460TIP3   OH231870   0.926   0.398  14.065  0.2868 -0.0381 -0.0393
 3460TIP3    H131871   0.954   0.360  13.982  1.1323  0.5909 -0.0491
 3460TIP3    H231872   0.998   0.456  14.090  0.1357 -0.3852  1.2361
 3461TIP3   OH231873   5.074   3.644  13.407 -0.1863  0.3566 -0.1975
 3461TIP3    H131874   5.036   3.587  13.341  0.1744 -0.1473  0.0303
 3461TIP3    H231875   5.007   3.711  13.423 -0.5728  0.0451 -0.5231
 3462TIP3   OH231876   4.562   1.899   3.305 -0.8438  0.6569  0.3540
 3462TIP3    H131877   4.501   1.897   3.378 -2.1060 -0.2989 -0.6979
 3462TIP3    H231878   4.521   1.845   3.238  1.5393 -0.6417 -0.1066
 3463TIP3   OH231879   2.780   4.215  12.372 -0.5690  0.0077  0.7101
 3463TIP3    H131880   2.702   4.160  12.370 -0.0322 -0.7523  0.7304
 3463TIP3    H231881   2.747   4.302  12.398 -1.5944  0.0102 -0.5402
 3464TIP3   OH231882   1.924   6.521   2.438 -0.2092 -0.2557 -0.3566
 3464TIP3    H131883   1.992   6.468   2.479 -0.9145 -1.0244 -0.1670
 3464TIP3    H231884   1.842   6.477   2.462 -0.8399  1.2700  0.3189
 3465TIP3   OH231885   5.799   5.581  15.974 -0.3621  0.2196 -0.2360
 3465TIP3    H131886   5.791   5.649  16.041 -1.3106 -0.3922  0.2923
 3465TIP3    H231887   5.718   5.589  15.923 -0.0624  0.0845 -0.7277
 3466TIP3   OH231888   3.560   0.753   2.507  0.0552 -0.4822 -0.4998
 3466TIP3    H131889   3.469   0.752   2.476 -0.8735 -1.0725  2.0850
 3466TIP3    H231890   3.594   0.666   2.487 -0.3124 -0.6304 -0.4825
 3467TIP3   OH231891   2.924   3.409  15.503  0.2010  0.2364  0.1553
 3467TIP3    H131892   2.860   3.379  15.568  0.6845 -2.0048 -0.3360
 3467TIP3    H231893   2.879   3.398  15.419  0.7163  0.0155 -0.0942
 3468TIP3   OH231894   3.071   2.441   3.885  0.0849  0.4107 -0.1445
 3468TIP3    H131895   3.104   2.526   3.912  0.8884  0.3329 -0.8412
 3468TIP3    H231896   3.135   2.410   3.820 -2.3078  1.0691 -2.9168
 3469TIP3   OH231897   5.055   2.753   0.111 -0.0880 -0.2289 -0.0462
 3469TIP3    H131898   5.023   2.830   0.159 -1.1214 -1.1751  0.8190
 3469TIP3    H231899   5.056   2.683   0.176  3.5302 -0.3277 -0.1173
 3470TIP3   OH231900   4.405   3.316  16.582  0.3053 -0.1313 -0.3794
 3470TIP3    H131901   4.498   3.331  16.566  0.6890 -2.2993 -0.3312
 3470TIP3    H231902   4.394   3.222  16.571 -1.4139 -0.2471  2.1276
 3471TIP3   OH231903   0.638   0.299   4.762  0.4519 -0.2378  0.9024
 3471TIP3    H131904   0.674   0.216   4.793 -0.2630 -0.7970  0.2461
 3471TIP3    H231905   0.655   0.298   4.667 -0.8977 -0.3145  0.6503
 3472TIP3   OH231906   2.305   2.278   3.998  0.0831  0.4721  0.0656
 3472TIP3    H131907   2.369   2.320   3.940  0.2997 -0.4272 -0.3740
 3472TIP3    H231908   2.283   2.197   3.952  0.1659 -0.1914  1.1876
 3473TIP3   OH231909   5.659   2.760   1.671  0.0624  0.1648  0.2541
 3473TIP3    H131910   5.651   2.676   1.715 -0.0462  0.6459  1.1826
 3473TIP3    H231911   5.722   2.746   1.601 -1.6068 -1.2390 -0.9958
 3474TIP3   OH231912   5.730   1.151   4.421 -0.2221 -0.4970  0.1025
 3474TIP3    H131913   5.817   1.187   4.403 -0.7643 -0.2885 -2.2644
 3474TIP3    H231914   5.746   1.059   4.442  0.7427  0.0014  1.6403
 3475TIP3   OH231915   6.466   3.501   3.948 -0.2616  0.0317  0.7849
 3475TIP3    H131916   6.443   3.417   3.908  1.7129 -0.5817  0.8774
 3475TIP3    H231917   6.467   3.483   4.042  2.2061 -0.4228  0.7127
 3476TIP3   OH231918   1.833   4.921   4.757  0.4985  0.1727 -0.3940
 3476TIP3    H131919   1.863   5.008   4.784 -1.8160  0.7185  0.5326
 3476TIP3    H231920   1.860   4.863   4.829 -0.7666  0.6959  0.5335
 3477TIP3   OH231921   4.145   4.439  13.609 -0.4939 -0.0836 -0.2606
 3477TIP3    H131922   4.144   4.535  13.604  0.8526  0.0743  1.8205
 3477TIP3    H231923   4.177   4.411  13.524 -2.3273  1.2286 -1.4381
 3478TIP3   OH231924   3.265   4.947  16.576  0.1091 -0.3884 -0.4940
 3478TIP3    H131925   3.249   4.983  16.663 -1.8055  1.9356 -1.7288
 3478TIP3    H231926   3.179   4.917  16.546  0.3275  0.6931 -2.3306
 3479TIP3   OH231927   6.516   0.030  14.612 -0.3267  0.1495 -0.4648
 3479TIP3    H131928   6.515   0.024  14.517 -0.9082  0.1157 -0.4602
 3479TIP3    H231929   6.466   0.110  14.631 -1.3544 -0.5688 -0.1364
 3480TIP3   OH231930   6.221   2.200  16.674  0.3593  0.5826 -0.1709
 3480TIP3    H131931   6.193   2.109  16.670 -1.5466  1.1627 -0.8087
 3480TIP3    H231932   6.249   2.220  16.584 -3.1663  1.7768 -1.0716
 3481TIP3   OH231933   4.401   1.452   4.941  0.2068  0.1823  0.3881
 3481TIP3    H131934   4.372   1.408   4.861  1.3128 -0.5726  0.3959
 3481TIP3    H231935   4.411   1.544   4.916  0.5343 -0.0472 -0.3333
 3482TIP3   OH231936   0.781   2.152  12.025  0.2669 -0.2046  0.1086
 3482TIP3    H131937   0.795   2.078  12.084 -0.4241  1.8747  2.9987
 3482TIP3    H231938   0.724   2.211  12.074 -0.4878  1.5364 -2.7519
 3483TIP3   OH231939   2.268   2.294   0.500 -0.0966 -0.1076  0.4106
 3483TIP3    H131940   2.187   2.252   0.530  0.8922 -0.8462  2.1109
 3483TIP3    H231941   2.328   2.221   0.482  0.1127  0.4183 -1.1489
 3484TIP3   OH231942   0.776   3.339   6.759  0.3402  0.2374 -0.0991
 3484TIP3    H131943   0.768   3.248   6.731  0.4369  0.0447  0.4922
 3484TIP3    H231944   0.859   3.368   6.722  1.1668 -0.4498  1.1540
 3485TIP3   OH231945   4.687   2.982   0.936  0.3469 -0.0227  0.0699
 3485TIP3    H131946   4.688   3.036   0.857  1.0582 -1.0902 -0.6656
 3485TIP3    H231947   4.597   2.986   0.967  0.3787  1.5478  0.0045
 3486TIP3   OH231948   1.612   5.481   4.365  0.3320 -0.1807  0.0529
 3486TIP3    H131949   1.535   5.436   4.331  0.5908 -0.9989  0.5153
 3486TIP3    H231950   1.579   5.540   4.432  0.1114 -0.5613  0.2793
 3487TIP3   OH231951   3.639   2.074   2.055 -0.0261 -0.5279  0.4517
 3487TIP3    H131952   3.550   2.063   2.022  0.1959  0.4221 -0.5132
 3487TIP3    H231953   3.631   2.136   2.127 -0.2878 -1.2742  1.0634
 3488TIP3   OH231954   2.812   4.033   2.828 -0.1224 -0.3947  0.1130
 3488TIP3    H131955   2.717   4.026   2.818  0.0302  0.0004 -1.7232
 3488TIP3    H231956   2.834   3.964   2.891 -1.7438  0.2210  1.4065
 3489TIP3   OH231957   6.387   6.171   0.972 -0.4126  0.2360 -0.0892
 3489TIP3    H131958   6.346   6.104   1.027  0.1124 -0.6314 -0.7175
 3489TIP3    H231959   6.318   6.198   0.911 -0.5086 -0.0622 -0.1144
 3490TIP3   OH231960   1.476   4.809  12.271  0.2795  0.4420 -0.9538
 3490TIP3    H131961   1.463   4.829  12.364  0.6412 -0.6539 -0.6652
 3490TIP3    H231962   1.391   4.774  12.242  0.6652 -0.7788 -0.6227
 3491TIP3   OH231963   2.433   3.744  13.052  0.0239 -0.4497  0.2383
 3491TIP3    H131964   2.529   3.750  13.048 -0.0030 -0.3411 -0.3278
 3491TIP3    H231965   2.414   3.720  13.142  0.6395 -1.3877  0.1334
 3492TIP3   OH231966   0.617   4.004   0.695  0.0468 -0.2561  0.4048
 3492TIP3    H131967   0.703   4.037   0.721 -0.8899  1.7584  1.0738
 3492TIP3    H231968   0.577   3.973   0.777 -0.9909  1.5669  0.6266
 3493TIP3   OH231969   6.361   1.603  15.014 -0.4997 -0.0131 -0.0478
 3493TIP3    H131970   6.331   1.542  14.947  1.8690  0.0314 -1.2161
 3493TIP3    H231971   6.378   1.549  15.090 -1.4845 -0.3374 -0.0569
 3494TIP3   OH231972   4.295   0.652  14.229  0.3460  0.3489  0.1121
 3494TIP3    H131973   4.214   0.606  14.251  0.6159 -1.1706 -1.9001
 3494TIP3    H231974   4.309   0.633  14.136  2.4586  1.4599  0.1655
 3495TIP3   OH231975   1.638   0.799   0.085  0.2724  0.1716 -0.6542
 3495TIP3    H131976   1.599   0.804  -0.003 -1.4810  1.8301  0.1747
 3495TIP3    H231977   1.732   0.809   0.070  0.1637 -1.2207 -2.4748
 3496TIP3   OH231978   0.135   5.455   0.275  0.0321  0.3792  0.2249
 3496TIP3    H131979   0.113   5.376   0.324 -0.2979  0.8952  0.9113
 3496TIP3    H231980   0.202   5.499   0.327  0.7926  0.1503 -0.5558
 3497TIP3   OH231981   4.980   1.068   4.694  0.3875 -0.4591  0.3790
 3497TIP3    H131982   4.928   1.082   4.773 -0.0836  1.2178 -0.1943
 3497TIP3    H231983   4.953   0.982   4.662 -1.3627 -0.0223  0.6119
 3498TIP3   OH231984   6.395   6.627   0.882 -0.4124 -0.7655  0.1279
 3498TIP3    H131985   6.419   6.705   0.932 -1.3214 -1.6038  1.9042
 3498TIP3    H231986   6.308   6.647   0.847 -0.4279 -0.7883  0.1533
 3499TIP3   OH231987   1.137   3.898  15.886 -1.0945 -0.0423 -0.0664
 3499TIP3    H131988   1.214   3.905  15.831 -1.2764 -0.9603 -0.4455
 3499TIP3    H231989   1.171   3.899  15.976 -0.4783 -2.1989 -0.2516
 3500TIP3   OH231990   6.321   6.307   3.351 -0.1817 -0.2338  0.2252
 3500TIP3    H131991   6.382   6.234   3.358 -1.3248 -1.2858 -0.5836
 3500TIP3    H231992   6.377   6.385   3.346  1.0969 -1.2081 -0.8072
 3501TIP3   OH231993   1.540   3.018   4.012  0.0243 -0.7185  0.6474
 3501TIP3    H131994   1.502   3.093   4.058  1.6444  1.0433 -0.7761
 3501TIP3    H231995   1.485   3.006   3.935  0.8420  0.2148 -0.0928
 3502TIP3   OH231996   6.076   4.238   5.340  0.1046 -0.1111  0.1247
 3502TIP3    H131997   6.016   4.241   5.415 -1.3001  1.0356 -1.0229
 3502TIP3    H231998   6.111   4.327   5.333 -0.5914  0.0754 -1.2206
 3503TIP3   OH231999   2.014   6.715  16.327 -0.1286  0.5267  0.3095
 3503TIP3    H132000   1.954   6.746  16.259 -0.5169 -1.0825 -0.1073
 3503TIP3    H232001   2.085   6.673  16.279  0.4267  0.8500  0.8508
 3504TIP3   OH232002   6.184   0.183  15.438 -0.1734 -0.3770  0.0874
 3504TIP3    H132003   6.233   0.203  15.518 -1.3505 -1.3446  1.0900
 3504TIP3    H232004   6.236   0.219  15.367  1.0820  0.1758  1.2779
 3505TIP3   OH232005   1.407   5.330  14.181 -0.2286  0.0882 -0.2265
 3505TIP3    H132006   1.386   5.399  14.117 -0.6103 -0.8150 -1.0751
 3505TIP3    H232007   1.496   5.351  14.210  0.5496 -0.4077 -2.2338
 3506TIP3   OH232008   2.358   6.364  12.026  0.5034  0.4210  0.4236
 3506TIP3    H132009   2.349   6.332  12.116 -1.0134 -0.4115 -0.0042
 3506TIP3    H232010   2.416   6.439  12.033  0.4599  0.3209  2.0981
 3507TIP3   OH232011   0.512   5.048  11.267 -0.0739  0.1102  0.2532
 3507TIP3    H132012   0.450   4.981  11.295 -1.2689  0.9990 -0.2461
 3507TIP3    H232013   0.508   5.046  11.172  0.8900 -0.0254  0.2083
 3508TIP3   OH232014   1.166   4.551  15.129  0.0113 -0.1008 -0.1604
 3508TIP3    H132015   1.103   4.569  15.059  0.0666  0.8382  0.0255
 3508TIP3    H232016   1.143   4.612  15.198  0.7533 -0.1649  0.1455
 3509TIP3   OH232017   0.094   6.035   4.123  0.4312  0.3885  0.3530
 3509TIP3    H132018   0.099   6.056   4.216 -1.1893  0.3523  0.4656
 3509TIP3    H232019   0.177   5.990   4.104  1.2424  1.3654  1.5135
 3510TIP3   OH232020   5.267   5.656  15.751  0.3493  0.0215  0.1805
 3510TIP3    H132021   5.320   5.612  15.684  0.2014  2.2669 -1.4703
 3510TIP3    H232022   5.184   5.675  15.708 -0.0736  0.7031  1.2643
 3511TIP3   OH232023   2.125   3.176   4.504  0.0260 -0.3310  0.2180
 3511TIP3    H132024   2.132   3.265   4.537 -1.2155  0.8097 -2.3998
 3511TIP3    H232025   2.032   3.166   4.482 -0.0049 -2.5542  1.2322
 3512TIP3   OH232026   6.260   5.789  11.576  0.3072 -0.0374 -0.6183
 3512TIP3    H132027   6.243   5.741  11.658 -1.2243  1.1988 -0.1859
 3512TIP3    H232028   6.355   5.783  11.565  0.6007  0.0982  1.4745
 3513TIP3   OH232029   4.336   5.702   5.071 -0.7589  0.4921 -0.7793
 3513TIP3    H132030   4.408   5.716   5.133  0.0006  1.0637 -1.7732
 3513TIP3    H232031   4.284   5.632   5.110 -0.0058  0.4987  0.2553
 3514TIP3   OH232032   1.976   0.763   4.572 -0.3750 -0.8865 -0.9229
 3514TIP3    H132033   1.943   0.715   4.648  1.4580 -0.6571  0.0321
 3514TIP3    H232034   2.026   0.698   4.523  2.0814 -0.0012  0.3534
 3515TIP3   OH232035   5.410   5.630  12.804  0.3318 -0.2262  0.3209
 3515TIP3    H132036   5.499   5.606  12.778  0.8051  1.6158  0.1603
 3515TIP3    H232037   5.372   5.548  12.836  1.5042 -1.4059 -1.1962
 3516TIP3   OH232038   5.141   2.869  13.229 -0.5563 -0.4446  0.4167
 3516TIP3    H132039   5.093   2.831  13.156 -2.0336 -0.0383  1.1411
 3516TIP3    H232040   5.093   2.949  13.250  1.7197  1.1361 -0.2245
 3517TIP3   OH232041   1.645   3.632  11.539  0.3211  0.4598 -0.0746
 3517TIP3    H132042   1.640   3.541  11.568  2.0131 -0.5788 -2.7457
 3517TIP3    H232043   1.723   3.667  11.582  0.2507  0.3184  0.1668
 3518TIP3   OH232044   2.830   3.568   5.097 -0.1592 -0.1269 -0.1394
 3518TIP3    H132045   2.738   3.577   5.072 -0.1411 -1.8115 -0.8669
 3518TIP3    H232046   2.872   3.646   5.060 -1.2825  0.6301  0.1580
 3519TIP3   OH232047   4.012   5.030   5.428 -0.2773 -0.1141  0.1645
 3519TIP3    H132048   3.950   5.098   5.453  1.8207  1.5450  1.0548
 3519TIP3    H232049   3.963   4.948   5.436 -2.3345  1.1404  0.8045
 3520TIP3   OH232050   1.310   2.466   1.874  0.9620 -0.0069  0.6539
 3520TIP3    H132051   1.341   2.554   1.855  1.4186 -0.3725 -0.3123
 3520TIP3    H232052   1.307   2.422   1.789  1.9768 -1.3251  1.2727
 3521TIP3   OH232053   4.845   0.982   3.305 -0.2908  0.1091 -0.3469
 3521TIP3    H132054   4.932   0.995   3.266  1.0186 -1.7074  1.7967
 3521TIP3    H232055   4.801   0.921   3.246 -1.1577  2.9881 -2.8265
 3522TIP3   OH232056   6.186   1.557   3.313 -0.0843 -0.6279  0.2407
 3522TIP3    H132057   6.263   1.614   3.323 -0.5860 -0.0333  0.7967
 3522TIP3    H232058   6.206   1.502   3.238  1.7864 -1.9053  1.6277
 3523TIP3   OH232059   4.026   4.118   1.137  0.0104  0.0913  0.2103
 3523TIP3    H132060   3.997   4.034   1.101  0.3112  0.7662 -1.7001
 3523TIP3    H232061   4.081   4.156   1.068 -0.5040  2.0631  0.8327
 3524TIP3   OH232062   0.999   0.826   1.761 -0.3599 -0.0887 -0.3591
 3524TIP3    H132063   0.963   0.838   1.849  1.1681  1.3806  0.0991
 3524TIP3    H232064   0.923   0.825   1.704 -1.2891  0.1862  0.8493
 3525TIP3   OH232065   2.653   4.946   2.602 -0.1301 -0.0445  0.2935
 3525TIP3    H132066   2.626   4.870   2.551  0.1730  0.6426 -0.9187
 3525TIP3    H232067   2.743   4.927   2.626  0.6342  0.8124 -1.7617
 3526TIP3   OH232068   5.850   5.948   1.702  0.0349 -0.3301 -0.7025
 3526TIP3    H132069   5.770   5.948   1.650 -0.6736 -0.0510  0.3843
 3526TIP3    H232070   5.918   5.979   1.641 -0.9976  1.1507 -1.1114
 3527TIP3   OH232071   3.756   1.083   4.998  0.7077 -0.8193 -0.3885
 3527TIP3    H132072   3.749   1.156   5.060 -2.1552  0.1548 -1.7846
 3527TIP3    H232073   3.777   1.007   5.054  2.0931  0.7317  1.2699
 3528TIP3   OH232074   5.958   5.652   6.040  0.0436  0.1523  0.0315
 3528TIP3    H132075   5.947   5.732   6.092  0.5373 -0.0193  0.3949
 3528TIP3    H232076   5.957   5.581   6.104 -1.0245 -0.1839 -0.3498
 3529TIP3   OH232077   6.001   2.990  17.145  0.2307  0.2696  0.1677
 3529TIP3    H132078   5.912   2.988  17.179 -0.2477 -1.3226 -1.0854
 3529TIP3    H232079   5.992   2.963  17.053  1.5491  3.7911 -1.0584
 3530TIP3   OH232080   1.274   3.064  15.699  0.1712  0.1857 -0.3757
 3530TIP3    H132081   1.284   3.077  15.793  0.1862 -1.5664 -0.1298
 3530TIP3    H232082   1.352   3.016  15.672  0.1562  0.6563 -1.2929
 3531TIP3   OH232083   3.631   4.770   5.861  0.2604  0.4178 -0.4707
 3531TIP3    H132084   3.545   4.763   5.903  0.1970  1.3338 -0.4460
 3531TIP3    H232085   3.680   4.832   5.915  1.0164 -0.2442 -0.3731
 3532TIP3   OH232086   2.271   5.059   2.317 -0.1247  0.2742  0.3932
 3532TIP3    H132087   2.294   5.112   2.241 -0.2904 -1.1351 -0.6595
 3532TIP3    H232088   2.229   5.120   2.377 -0.5926  1.2733 -0.9246
 3533TIP3   OH232089   4.290   5.430  14.934 -0.1753 -0.3393  0.0711
 3533TIP3    H132090   4.318   5.470  15.016  2.1699  1.7405 -1.6611
 3533TIP3    H232091   4.363   5.373  14.910 -0.7654 -0.7851 -0.6732
 3534TIP3   OH232092   0.415   1.657  13.269  0.0335  0.0009 -0.6263
 3534TIP3    H132093   0.329   1.699  13.264  0.2304  0.5582  0.4944
 3534TIP3    H232094   0.416   1.596  13.196 -1.5336 -0.3985 -0.3370
 3535TIP3   OH232095   0.591   1.530   5.610 -0.2315  0.6399 -0.0165
 3535TIP3    H132096   0.625   1.615   5.582  0.1677  1.0191  1.5706
 3535TIP3    H232097   0.613   1.525   5.703  0.3217 -1.4788 -0.2369
 3536TIP3   OH232098   0.699   1.719   5.242  0.1159 -0.3838 -0.0021
 3536TIP3    H132099   0.751   1.643   5.267 -0.9683 -0.9987  0.4167
 3536TIP3    H232100   0.713   1.782   5.314  0.1921 -0.5943  0.1675
 3537TIP3   OH232101   0.269   0.285   3.708  0.1098 -0.0453  0.2279
 3537TIP3    H132102   0.203   0.315   3.770  0.9659  3.1417 -0.3075
 3537TIP3    H232103   0.226   0.289   3.622  0.0498 -0.9464  0.2114
 3538TIP3   OH232104   0.723   5.157   0.028 -0.2230 -0.0468  0.5536
 3538TIP3    H132105   0.642   5.124  -0.009  0.1590 -1.9111  1.2926
 3538TIP3    H232106   0.779   5.174  -0.047  0.3461 -3.2485  0.2021
 3539TIP3   OH232107   1.614   4.040  16.253  0.4765  0.4029  0.7834
 3539TIP3    H132108   1.614   4.086  16.169  2.1083  1.5307  1.3610
 3539TIP3    H232109   1.632   3.949  16.230  0.5078  0.6344 -0.1298
 3540TIP3   OH232110   3.215   0.513   5.341  0.8684 -0.4139  0.0762
 3540TIP3    H132111   3.290   0.571   5.358  1.1016 -1.2644  2.0705
 3540TIP3    H232112   3.188   0.482   5.427 -1.0400 -1.0742 -0.7261
 3541TIP3   OH232113   6.024   5.234  15.804 -0.0497 -0.1372  0.1769
 3541TIP3    H132114   5.970   5.251  15.881 -0.3133 -0.4589  0.0654
 3541TIP3    H232115   5.998   5.303  15.742  0.1100  0.0772  0.3458
 3542TIP3   OH232116   5.998   6.342  11.137 -0.5271 -0.4172  0.4602
 3542TIP3    H132117   6.041   6.410  11.189  1.5989 -0.7599 -0.7866
 3542TIP3    H232118   6.004   6.263  11.191  1.8565 -0.8220 -0.3509
 3543TIP3   OH232119   0.634   2.358   1.833 -0.4749  0.5249  0.6751
 3543TIP3    H132120   0.608   2.425   1.769  1.5369 -1.5654 -2.4963
 3543TIP3    H232121   0.609   2.275   1.792  2.0120 -0.9587  2.0245
 3544TIP3   OH232122   0.253   4.983   1.189  0.0265 -0.1111  0.2539
 3544TIP3    H132123   0.196   4.911   1.217  1.0563 -0.8725  0.4122
 3544TIP3    H232124   0.303   5.006   1.268 -0.3976  0.8851  0.2449
 3545TIP3   OH232125   4.810   1.871   3.395 -0.1475  0.9121  0.4929
 3545TIP3    H132126   4.789   1.800   3.455 -0.9171 -0.0420 -0.8796
 3545TIP3    H232127   4.724   1.901   3.363  0.3163  0.1279 -1.5636
 3546TIP3   OH232128   3.664   3.355  11.698 -0.6757 -0.7938 -0.3793
 3546TIP3    H132129   3.629   3.282  11.748 -0.0547  0.5031  2.0141
 3546TIP3    H232130   3.759   3.342  11.700 -0.5564  0.1486  0.1655
 3547TIP3   OH232131   5.405   3.723  11.399 -0.2250 -0.7516  0.2378
 3547TIP3    H132132   5.434   3.642  11.441 -0.4285 -0.0899  1.6619
 3547TIP3    H232133   5.435   3.793  11.457 -1.7726  0.1031  0.0243
 3548TIP3   OH232134   5.335   2.297   0.510  0.2004 -0.2927  0.8089
 3548TIP3    H132135   5.402   2.363   0.493  0.2743 -0.5284  0.2072
 3548TIP3    H232136   5.259   2.349   0.538  0.6837 -0.0401  1.6734
 3549TIP3   OH232137   6.329   2.752  15.836  0.1176 -0.4817  0.1346
 3549TIP3    H132138   6.335   2.847  15.825  2.4357 -0.5304  0.8587
 3549TIP3    H232139   6.318   2.739  15.930 -3.4149 -0.8263 -0.2577
 3550TIP3   OH232140   3.831   2.688   2.204 -0.4617  0.1477  0.4086
 3550TIP3    H132141   3.784   2.663   2.284  1.7281 -1.1853  1.3144
 3550TIP3    H232142   3.923   2.674   2.225  0.4815  3.5925 -0.9938
 3551TIP3   OH232143   3.242   5.668   1.731 -0.1772  0.2443 -0.2874
 3551TIP3    H132144   3.301   5.593   1.721  1.0105  1.3608 -1.9185
 3551TIP3    H232145   3.210   5.685   1.642  0.2084  2.1655 -0.0813
 3552TIP3   OH232146   2.707   1.642   4.764  0.0137  0.2980 -0.1173
 3552TIP3    H132147   2.715   1.547   4.757 -0.8038  0.2963 -1.0591
 3552TIP3    H232148   2.612   1.658   4.764  0.1398  1.0564  0.7806
 3553TIP3   OH232149   2.286   2.468  13.165  0.0049 -0.0095  0.2175
 3553TIP3    H132150   2.377   2.479  13.194  0.1605 -1.9802  0.5741
 3553TIP3    H232151   2.234   2.512  13.232  0.5855 -1.1494  1.4606
 3554TIP3   OH232152   5.870   5.030   1.366 -0.1015 -0.5135 -0.4442
 3554TIP3    H132153   5.939   4.988   1.416 -0.8601 -1.1477  0.0964
 3554TIP3    H232154   5.866   4.981   1.284 -0.8325 -1.3684  0.0940
 3555TIP3   OH232155   5.842   2.482  11.631  0.0860 -0.2124  0.5126
 3555TIP3    H132156   5.909   2.414  11.627 -1.1841 -1.4506 -0.2271
 3555TIP3    H232157   5.882   2.553  11.680  2.4954 -0.3161 -1.2168
 3556TIP3   OH232158   0.134   2.353  12.506 -0.0621  0.4291 -0.3365
 3556TIP3    H132159   0.172   2.429  12.551  0.4037  1.0588 -1.7524
 3556TIP3    H232160   0.191   2.280  12.528 -1.4420  0.1095  2.3865
 3557TIP3   OH232161   6.410   2.246  15.637  0.2055 -0.3642  0.0454
 3557TIP3    H132162   6.375   2.288  15.715 -2.0420 -0.4099 -0.9036
 3557TIP3    H232163   6.447   2.319  15.586  1.8392 -0.3568  1.1755
 3558TIP3   OH232164   5.189   0.353   6.065 -0.0851  0.4923  0.4585
 3558TIP3    H132165   5.259   0.308   6.113  0.5068 -0.0451 -0.8566
 3558TIP3    H232166   5.201   0.445   6.085  1.1354  0.4239  0.1176
 3559TIP3   OH232167   5.953   4.425   3.384  0.4085 -0.4014 -0.0932
 3559TIP3    H132168   5.891   4.459   3.449  0.7764  0.3521 -0.1339
 3559TIP3    H232169   5.956   4.492   3.316  0.8748 -0.6723 -0.3449
 3560TIP3   OH232170   5.305   3.175  13.244  0.7254 -0.0935  0.4402
 3560TIP3    H132171   5.398   3.156  13.261  0.5668  0.5087  2.1281
 3560TIP3    H232172   5.299   3.182  13.149  2.5709  0.5944  0.3404
 3561TIP3   OH232173   0.427   0.802  13.102  0.0786  0.4834 -0.3993
 3561TIP3    H132174   0.377   0.873  13.143 -1.1613  0.0832 -1.1902
 3561TIP3    H232175   0.424   0.822  13.009  2.0830  0.8736 -0.3902
 3562TIP3   OH232176   6.569   3.956  12.907  0.5724  0.1497  0.1202
 3562TIP3    H132177   6.654   3.950  12.863 -0.0039 -1.6797 -0.8438
 3562TIP3    H232178   6.532   3.868  12.898 -1.5016  0.9679  0.3359
 3563TIP3   OH232179   3.613   6.551   3.941  0.3689 -0.1690 -0.3898
 3563TIP3    H132180   3.542   6.583   3.996  1.3498  0.2024  0.6837
 3563TIP3    H232181   3.572   6.535   3.856 -1.3263 -1.4881  0.6460
 3564TIP3   OH232182   0.298   5.197  11.528 -0.4803 -0.1659 -0.4720
 3564TIP3    H132183   0.275   5.290  11.525  0.2353  0.1110  1.8102
 3564TIP3    H232184   0.383   5.192  11.484  0.5979  0.6505  1.4666
 3565TIP3   OH232185   0.354   0.511   4.952  0.0808 -0.2884 -0.6612
 3565TIP3    H132186   0.413   0.516   4.877 -2.0058 -1.0899 -2.4027
 3565TIP3    H232187   0.304   0.593   4.949 -1.3999 -1.1975 -1.3615
 3566TIP3   OH232188   5.246   1.696   5.077  0.0158 -0.1393  0.1878
 3566TIP3    H132189   5.202   1.691   4.992  0.0516 -1.8162  0.2585
 3566TIP3    H232190   5.312   1.765   5.066  0.0448 -0.3681 -1.1512
 3567TIP3   OH232191   0.198   0.972   2.831 -0.5307 -0.1559  0.0457
 3567TIP3    H132192   0.175   0.887   2.869 -0.0349 -0.0700  0.5452
 3567TIP3    H232193   0.176   1.035   2.899 -1.7166  0.1992 -0.6533
 3568TIP3   OH232194   4.200   3.321  14.566  0.2186 -0.7813  0.1225
 3568TIP3    H132195   4.194   3.244  14.509 -0.5031  0.0047 -0.8667
 3568TIP3    H232196   4.262   3.379  14.522 -1.3708  0.4083 -0.5653
 3569TIP3   OH232197   3.731   1.207  14.672  0.0529 -0.1760  0.1070
 3569TIP3    H132198   3.639   1.183  14.686 -0.0388  0.0243 -0.1322
 3569TIP3    H232199   3.751   1.172  14.585  0.7578 -1.8382  0.9229
 3570TIP3   OH232200   1.830   3.787   5.488 -0.0661  0.3287  0.0986
 3570TIP3    H132201   1.747   3.745   5.463 -0.2247  0.4403  0.4260
 3570TIP3    H232202   1.812   3.824   5.575  0.0886  1.0288 -0.1632
 3571TIP3   OH232203   4.745   2.776   0.234  0.1500 -0.6904 -0.3113
 3571TIP3    H132204   4.680   2.754   0.300 -0.0464 -2.0018 -0.9106
 3571TIP3    H232205   4.717   2.860   0.199 -0.4692 -0.6105  0.3663
 3572TIP3   OH232206   3.878   3.033   4.343 -0.6738 -0.1595 -0.2411
 3572TIP3    H132207   3.841   3.059   4.427 -0.2941 -0.1061 -0.0898
 3572TIP3    H232208   3.889   3.116   4.295  0.5828 -0.0304  0.2585
 3573TIP3   OH232209   5.415   1.996  11.615  0.7011  0.8553  0.1821
 3573TIP3    H132210   5.500   2.039  11.600  1.5214 -0.8215 -0.1022
 3573TIP3    H232211   5.438   1.911  11.653 -0.7793 -0.1904 -1.1979
 3574TIP3   OH232212   0.246   4.989   1.483 -0.6282 -0.1461  0.0706
 3574TIP3    H132213   0.264   4.895   1.480 -0.8209 -0.2119  0.9128
 3574TIP3    H232214   0.155   4.997   1.456 -0.6773 -0.2183  0.2178
 3575TIP3   OH232215   0.926   4.017  15.587 -0.4000  0.9182  0.5262
 3575TIP3    H132216   0.849   3.962  15.572 -0.9810  2.2137 -1.2721
 3575TIP3    H232217   0.951   4.048  15.501  2.2054  0.4790  1.0762
 3576TIP3   OH232218   0.887   6.365  15.523 -0.4308  0.1941  0.0123
 3576TIP3    H132219   0.946   6.316  15.580 -0.3617  1.6177  1.1934
 3576TIP3    H232220   0.860   6.302  15.456  2.3911 -0.5097 -0.5344
 3577TIP3   OH232221   0.483   6.638   0.598  0.0509  0.1177 -0.1491
 3577TIP3    H132222   0.488   6.724   0.641  3.1410 -0.0400 -0.1060
 3577TIP3    H232223   0.495   6.575   0.669 -0.5422 -0.3321 -0.4375
 3578TIP3   OH232224   0.585   6.414   0.799  0.3428  0.4172  0.6552
 3578TIP3    H132225   0.575   6.320   0.813 -2.2301  0.5989  0.4108
 3578TIP3    H232226   0.614   6.423   0.709 -1.8901 -0.0883 -0.1516
 3579TIP3   OH232227   0.222   3.452  14.689  0.4203 -0.2930  0.3506
 3579TIP3    H132228   0.168   3.481  14.616 -0.1901  2.0178  1.6689
 3579TIP3    H232229   0.220   3.356  14.684  0.2800 -0.1879 -2.5490
 3580TIP3   OH232230   2.981   5.632  14.519 -0.8970 -0.4528  0.6261
 3580TIP3    H132231   2.940   5.607  14.601 -1.9235  2.5604  1.0680
 3580TIP3    H232232   2.914   5.615  14.452 -1.4024  0.5392  0.8667
 3581TIP3   OH232233   6.574   1.787  16.300 -0.6274 -0.0603 -0.4970
 3581TIP3    H132234   6.549   1.857  16.360  1.1030  1.1127 -1.1026
 3581TIP3    H232235   6.593   1.712  16.356 -0.7084  0.4977  0.2763
 3582TIP3   OH232236   0.705   5.421  15.342 -0.2562  0.0225 -0.5240
 3582TIP3    H132237   0.761   5.385  15.274  0.5544  0.1842  0.0479
 3582TIP3    H232238   0.760   5.423  15.420 -0.9921  0.3894 -0.0040
 3583TIP3   OH232239   3.487   2.601  15.106  0.0743 -0.0400 -0.1045
 3583TIP3    H132240   3.439   2.571  15.184 -1.9360  2.2994 -0.4073
 3583TIP3    H232241   3.577   2.609  15.136 -0.9699  2.5965  2.5426
 3584TIP3   OH232242   5.318   4.127   0.313  0.0153 -0.6544 -0.0790
 3584TIP3    H132243   5.260   4.202   0.331 -1.6398 -2.4120  2.3386
 3584TIP3    H232244   5.313   4.115   0.218  1.2932  3.0214 -0.6866
 3585TIP3   OH232245   3.062   6.791  11.065 -0.1866 -0.2905  0.2932
 3585TIP3    H132246   3.125   6.863  11.073  0.3199 -0.9112  2.1879
 3585TIP3    H232247   3.073   6.759  10.976  0.8802  0.8033  0.0197
 3586TIP3   OH232248   5.275   2.022   2.852 -0.0969  0.0162 -0.3626
 3586TIP3    H132249   5.296   1.977   2.933  2.1795 -0.9171 -1.4312
 3586TIP3    H232250   5.188   2.060   2.867 -0.1727 -1.0635  2.0854
 3587TIP3   OH232251   3.576   3.595   4.190 -0.1748 -0.0908 -0.4207
 3587TIP3    H132252   3.523   3.547   4.126 -0.2766  1.0154 -1.1820
 3587TIP3    H232253   3.515   3.615   4.261 -0.3181 -0.4390 -0.4433
 3588TIP3   OH232254   1.177   4.419  16.329 -0.4555  0.2405  0.1817
 3588TIP3    H132255   1.099   4.444  16.378 -0.6733 -1.2834  0.6220
 3588TIP3    H232256   1.151   4.426  16.237 -0.7386  0.8959  0.3131
 3589TIP3   OH232257   5.033   5.556   0.493 -0.7107 -0.1514  0.1940
 3589TIP3    H132258   5.093   5.549   0.567 -0.5997 -0.5759  0.0687
 3589TIP3    H232259   5.071   5.624   0.437  0.5511 -1.5530 -0.6978
 3590TIP3   OH232260   3.117   1.326   3.638  0.1085  0.0908 -0.0672
 3590TIP3    H132261   3.210   1.312   3.652  0.0233  1.5553  2.4031
 3590TIP3    H232262   3.113   1.397   3.573  0.7475  0.7547  0.6011
 3591TIP3   OH232263   6.224   1.128  16.137  0.0157 -0.0534 -0.2499
 3591TIP3    H132264   6.173   1.138  16.056 -0.9861 -1.0389  0.2427
 3591TIP3    H232265   6.193   1.045  16.174  1.1734 -0.0896  0.6416
 3592TIP3   OH232266   5.119   2.969  16.589  0.4407 -0.0540 -0.1158
 3592TIP3    H132267   5.109   2.882  16.550  0.4814  0.5808 -1.5712
 3592TIP3    H232268   5.081   2.961  16.676 -0.7130 -1.2023 -0.7136
 3593TIP3   OH232269   5.715   6.137  14.722  0.3153 -0.0652  0.3195
 3593TIP3    H132270   5.712   6.078  14.798 -1.3881 -0.9229 -0.3924
 3593TIP3    H232271   5.774   6.093  14.660 -0.0158 -0.4598  0.2756
 3594TIP3   OH232272   6.327   3.482   6.489 -0.2138  0.2445 -0.2140
 3594TIP3    H132273   6.372   3.439   6.416  0.7490  2.2059 -0.8083
 3594TIP3    H232274   6.246   3.432   6.500 -0.0263 -0.5150 -2.1357
 3595TIP3   OH232275   5.561   3.187  12.330  0.6024 -0.5601 -0.1524
 3595TIP3    H132276   5.627   3.252  12.354 -0.9979  1.8221 -1.9297
 3595TIP3    H232277   5.511   3.174  12.410  0.4092  1.0903  0.0233
 3596TIP3   OH232278   3.557   2.425  16.232  0.2324  0.2942 -0.0181
 3596TIP3    H132279   3.555   2.390  16.143  1.0844 -0.0131  0.0801
 3596TIP3    H232280   3.618   2.368  16.279 -1.0225 -0.1852  1.0433
 3597TIP3   OH232281   2.681   2.660  14.980 -0.3318 -0.7551  0.0262
 3597TIP3    H132282   2.657   2.749  14.953  2.2980 -0.0570 -0.1642
 3597TIP3    H232283   2.631   2.645  15.060  1.8009  2.2755  2.0452
 3598TIP3   OH232284   6.346   4.166   6.320  0.5244 -0.0927  0.4008
 3598TIP3    H132285   6.362   4.257   6.299  2.1637 -0.8737 -1.8826
 3598TIP3    H232286   6.251   4.155   6.313  0.1877  1.7079  1.9450
 3599TIP3   OH232287   2.429   0.599  14.301 -0.4578 -0.3458 -0.0715
 3599TIP3    H132288   2.406   0.511  14.273 -0.2638 -0.8489  1.2791
 3599TIP3    H232289   2.492   0.585  14.373 -0.5266  0.8812  0.2389
 3600TIP3   OH232290   0.758   3.413  17.171 -0.0495 -0.0836  0.2981
 3600TIP3    H132291   0.703   3.482  17.134 -0.7208 -1.4440 -1.2834
 3600TIP3    H232292   0.699   3.363  17.226  0.8917  1.7928  3.1684
 3601TIP3   OH232293   1.614   2.060  12.246  0.3355  0.3448 -0.5638
 3601TIP3    H132294   1.598   2.131  12.184  0.2967 -0.4881 -1.5256
 3601TIP3    H232295   1.569   1.984  12.208 -1.0503  0.2017  1.3035
 3602TIP3   OH232296   2.023   4.121   0.599  0.1640  0.1320  0.3950
 3602TIP3    H132297   1.959   4.191   0.587  0.9135  0.8230  0.3842
 3602TIP3    H232298   1.982   4.044   0.559 -0.3136  0.7558 -0.3312
 3603TIP3   OH232299   4.853   4.511  11.343 -0.3206  0.3705 -0.1577
 3603TIP3    H132300   4.841   4.596  11.300  1.7251  0.8438  0.1596
 3603TIP3    H232301   4.901   4.458  11.279 -1.0324 -0.3599 -0.1080
 3604TIP3   OH232302   6.272   2.896  16.711 -0.1745 -0.7702 -0.3773
 3604TIP3    H132303   6.292   2.808  16.741  2.3263 -0.0197  0.2954
 3604TIP3    H232304   6.318   2.953  16.772 -0.5248  0.9754 -1.6978
 3605TIP3   OH232305   3.757   2.034  16.892  0.4381  0.1814 -0.4477
 3605TIP3    H132306   3.753   1.995  16.805 -0.1683  1.1756 -0.8852
 3605TIP3    H232307   3.845   2.073  16.897  0.0061  1.2803 -1.1480
 3606TIP3   OH232308   3.413   6.732  14.926 -0.1660 -0.2943  0.1968
 3606TIP3    H132309   3.506   6.708  14.923  0.9173  3.7180 -1.6384
 3606TIP3    H232310   3.372   6.674  14.863  1.5186 -0.5635 -0.6926
 3607TIP3   OH232311   5.278   0.584  15.463  0.2438 -0.5852 -0.0979
 3607TIP3    H132312   5.244   0.656  15.410  1.0748  0.1999  0.4210
 3607TIP3    H232313   5.200   0.535  15.490 -0.1502 -1.3448 -2.5305
 3608TIP3   OH232314   1.097   1.711  13.889 -0.0589  0.5777 -0.0122
 3608TIP3    H132315   1.160   1.643  13.910 -0.4205  0.2011 -0.1438
 3608TIP3    H232316   1.011   1.671  13.902 -0.2750  1.0492  0.0537
 3609TIP3   OH232317   0.098   4.955  11.974  0.0044  0.2340 -0.1959
 3609TIP3    H132318   0.084   5.022  11.907 -2.0207  0.4784  0.4524
 3609TIP3    H232319   0.080   4.999  12.057  0.3963 -0.6426  0.3691
 3610TIP3   OH232320   0.623   0.353   0.532  0.0454  0.9519  0.8469
 3610TIP3    H132321   0.709   0.330   0.566 -0.2077 -2.0114 -0.3664
 3610TIP3    H232322   0.637   0.369   0.439 -0.9237 -0.8531  0.3789
 3611TIP3   OH232323   2.835   6.129  17.032  0.3028 -0.3772 -0.0506
 3611TIP3    H132324   2.908   6.161  16.980  0.7028 -1.9081 -0.4350
 3611TIP3    H232325   2.757   6.162  16.986  0.6999 -0.0390 -0.4886
 3612TIP3   OH232326   5.954   5.109   4.111  0.0566 -0.1599 -0.9282
 3612TIP3    H132327   5.953   5.017   4.084  0.0887 -0.4619  0.0731
 3612TIP3    H232328   5.867   5.124   4.149  0.2431  0.0753 -0.5908
 3613TIP3   OH232329   4.174   3.331  13.485  0.0069  0.1741 -0.3297
 3613TIP3    H132330   4.164   3.311  13.578 -0.4694 -0.6928 -0.5622
 3613TIP3    H232331   4.169   3.427  13.480  3.2712  0.4703  0.9253
 3614TIP3   OH232332   2.162   3.634   2.995 -0.1968  0.1690  0.0930
 3614TIP3    H132333   2.121   3.571   2.936  2.5843 -0.9980 -0.7130
 3614TIP3    H232334   2.205   3.580   3.061  0.7118  1.2849  0.4299
 3615TIP3   OH232335   2.620   5.766  14.055 -0.3419  0.1600  0.0782
 3615TIP3    H132336   2.614   5.675  14.082 -0.8379  0.3943  0.7601
 3615TIP3    H232337   2.593   5.816  14.132 -2.9074  0.8036 -1.2094
 3616TIP3   OH232338   6.153   4.172  13.948  0.3549  0.1658  0.0743
 3616TIP3    H132339   6.155   4.265  13.971  2.2087  0.4400 -1.0754
 3616TIP3    H232340   6.064   4.145  13.966 -0.1552  2.1207  0.6452
 3617TIP3   OH232341   1.817   0.403  12.238 -0.3477  0.0713 -0.3237
 3617TIP3    H132342   1.899   0.423  12.193  0.1917  1.1553  1.1238
 3617TIP3    H232343   1.751   0.409  12.170  0.3939  2.2056 -0.9070
 3618TIP3   OH232344   6.099   3.168   3.860  0.4765 -0.0633 -0.6784
 3618TIP3    H132345   6.076   3.155   3.768  1.0691 -0.4623 -0.7681
 3618TIP3    H232346   6.137   3.256   3.863 -2.3363  1.1952 -0.2873
 3619TIP3   OH232347   0.970   0.757   0.239  0.2486  0.2157  0.0814
 3619TIP3    H132348   0.964   0.843   0.280 -0.1597  0.2665 -0.0789
 3619TIP3    H232349   1.027   0.707   0.297  0.9769  0.7751 -0.1472
 3620TIP3   OH232350   4.441   2.687  15.614  0.7975 -0.3581 -0.2947
 3620TIP3    H132351   4.401   2.621  15.559  0.5118  0.2028 -0.7591
 3620TIP3    H232352   4.474   2.638  15.690 -0.2536 -0.8953 -0.1737
 3621TIP3   OH232353   4.807   0.143   3.783  0.4845  0.4326  0.5457
 3621TIP3    H132354   4.851   0.125   3.866 -0.6812 -0.0122  1.0745
 3621TIP3    H232355   4.766   0.229   3.795 -0.8929 -0.2721  0.9452
 3622TIP3   OH232356   2.313   3.053  14.138 -0.2811  0.0757 -0.4935
 3622TIP3    H132357   2.244   2.989  14.153 -0.9204  0.4826 -1.6047
 3622TIP3    H232358   2.273   3.137  14.160  0.5747  0.0863  1.0220
 3623TIP3   OH232359   1.278   6.405   1.488 -0.3260 -0.7993 -0.0006
 3623TIP3    H132360   1.186   6.395   1.513  0.7208 -0.1477  4.4838
 3623TIP3    H232361   1.305   6.318   1.462 -1.8937 -1.2322 -0.2645
 3624TIP3   OH232362   6.189   3.760  16.773  0.1466 -0.2423 -0.4693
 3624TIP3    H132363   6.106   3.744  16.817  0.4006 -1.2476 -0.3540
 3624TIP3    H232364   6.187   3.854  16.753 -1.5395 -0.4743 -1.5349
 3625TIP3   OH232365   2.813   5.486  16.313 -0.0893 -0.0166 -0.0474
 3625TIP3    H132366   2.720   5.483  16.335 -0.0739  1.4986  0.2744
 3625TIP3    H232367   2.841   5.575  16.335  1.5677 -0.6126  0.3889
 3626TIP3   OH232368   5.675   0.022  14.303 -0.1560 -0.6388  0.4824
 3626TIP3    H132369   5.653  -0.061  14.346 -0.1059 -0.3452  1.0766
 3626TIP3    H232370   5.668   0.087  14.372 -1.3436  0.0258 -0.2499
 3627TIP3   OH232371   3.171   1.380  12.597 -0.0240  0.2728  0.4687
 3627TIP3    H132372   3.181   1.285  12.589 -0.9380  0.1609  0.6711
 3627TIP3    H232373   3.170   1.412  12.506  0.6892  0.1367  0.4093
 3628TIP3   OH232374   1.047   0.249  16.729 -0.2456 -0.0359  0.3933
 3628TIP3    H132375   1.029   0.312  16.799  2.7381  0.2976  0.9309
 3628TIP3    H232376   1.056   0.304  16.651 -0.6836 -0.1140  0.2888
 3629TIP3   OH232377   2.646   5.384   1.146 -0.4719 -0.3674  0.0307
 3629TIP3    H132378   2.597   5.388   1.064  0.9346  0.7594 -0.7749
 3629TIP3    H232379   2.713   5.452   1.138 -1.0395  0.5696  2.5994
 3630TIP3   OH232380   1.334   3.205   0.771 -0.1229 -0.0485 -0.1108
 3630TIP3    H132381   1.264   3.232   0.712 -0.1623  1.1383  0.4700
 3630TIP3    H232382   1.398   3.161   0.714 -0.2424  0.9209 -1.0008
 3631TIP3   OH232383   3.041   4.119  15.006 -0.4600  0.5606  0.3202
 3631TIP3    H132384   3.128   4.079  15.012  0.4202  2.5396  0.9927
 3631TIP3    H232385   3.002   4.080  14.928 -0.4737 -3.1906  2.0903
 3632TIP3   OH232386   5.329   5.674   4.941  0.3247 -0.2312 -0.2397
 3632TIP3    H132387   5.292   5.674   4.852  2.3807  0.9423 -1.1242
 3632TIP3    H232388   5.378   5.757   4.946  1.9509 -1.2611  1.2616
 3633TIP3   OH232389   4.045   1.979   2.325 -0.6556  0.6431 -0.2228
 3633TIP3    H132390   4.086   1.906   2.371  1.0287  0.8477 -1.3211
 3633TIP3    H232391   4.031   1.946   2.236 -0.4501  1.4584 -0.5597
 3634TIP3   OH232392   1.686   6.726  13.714 -0.3232 -0.3027 -0.6133
 3634TIP3    H132393   1.712   6.638  13.684  0.5833 -0.5492  0.8582
 3634TIP3    H232394   1.704   6.725  13.808 -4.0656  0.1342  0.1497
 3635TIP3   OH232395   1.845   1.909   4.065  0.0489 -0.1958  0.0612
 3635TIP3    H132396   1.812   1.826   4.100 -0.6519  0.1796  0.2967
 3635TIP3    H232397   1.937   1.910   4.091 -0.6634  0.5013  2.7792
 3636TIP3   OH232398   5.323   1.689   6.290  0.1133  0.4638  0.6315
 3636TIP3    H132399   5.283   1.606   6.313  1.2013 -0.1387  0.3819
 3636TIP3    H232400   5.372   1.715   6.368  0.8570  0.1985  0.2657
 3637TIP3   OH232401   4.270   5.278   1.681  0.2908  1.3536  0.0798
 3637TIP3    H132402   4.277   5.182   1.680 -0.0854  1.3354 -1.5088
 3637TIP3    H232403   4.278   5.304   1.589 -0.2943  2.8075  0.4233
 3638TIP3   OH232404   3.835   3.741  11.695  0.2935 -0.4625 -0.1869
 3638TIP3    H132405   3.822   3.698  11.611  0.2796 -0.9620  0.0679
 3638TIP3    H232406   3.747   3.753  11.730  0.2581  0.3550 -0.5436
 3639TIP3   OH232407   2.390   3.291   4.472  0.4024 -0.1243 -0.7296
 3639TIP3    H132408   2.337   3.220   4.507  1.1395 -0.4996 -0.3576
 3639TIP3    H232409   2.352   3.370   4.511  1.4649 -0.5640  1.3015
 3640TIP3   OH232410   4.613   0.347  16.282 -0.1737 -0.1714 -0.1124
 3640TIP3    H132411   4.672   0.277  16.254 -0.1923  0.2204 -1.1594
 3640TIP3    H232412   4.533   0.332  16.232 -0.5617 -0.0200  0.4557
 3641TIP3   OH232413   6.144   6.415  12.640 -0.7346  0.0791 -0.0258
 3641TIP3    H132414   6.098   6.458  12.712 -2.9607 -0.1681 -1.2515
 3641TIP3    H232415   6.077   6.364  12.595  0.9849 -1.2363 -1.1982
 3642TIP3   OH232416   3.124   6.356   2.767  0.6329 -0.1944  0.5410
 3642TIP3    H132417   3.142   6.419   2.698  2.6913 -1.0206  0.2785
 3642TIP3    H232418   3.087   6.280   2.722 -0.1750  0.1279  0.6459
 3643TIP3   OH232419   1.120   1.185   5.602  0.4110  0.4979  0.1546
 3643TIP3    H132420   1.031   1.215   5.585  0.0413  0.1397  1.3947
 3643TIP3    H232421   1.163   1.187   5.517 -1.0845 -0.2813 -0.6345
 3644TIP3   OH232422   1.028   2.298  15.814  0.1995 -0.0364  0.1861
 3644TIP3    H132423   1.000   2.388  15.831  0.0226 -0.4122  2.0380
 3644TIP3    H232424   1.114   2.291  15.856  0.7276 -0.4012 -0.9500
 3645TIP3   OH232425   6.313   0.953  14.286  0.6598  0.0508 -0.1882
 3645TIP3    H132426   6.383   0.895  14.257  1.7116 -0.0632  2.4529
 3645TIP3    H232427   6.306   1.020  14.218  0.3707 -2.3588 -2.5815
 3646TIP3   OH232428   6.413   6.203   1.255 -0.2200 -0.3381  0.3133
 3646TIP3    H132429   6.361   6.123   1.249  1.0364 -1.1690  0.1730
 3646TIP3    H232430   6.487   6.187   1.197  1.8344 -0.4858  2.8662
 3647TIP3   OH232431   4.770   3.733  13.518  0.1964 -0.2269 -0.0804
 3647TIP3    H132432   4.683   3.694  13.527 -0.1975  0.3614 -1.2685
 3647TIP3    H232433   4.777   3.755  13.426  0.8567  1.4768  0.3592
 3648TIP3   OH232434   3.211   2.420   0.090 -0.6375 -0.5846 -0.1303
 3648TIP3    H132435   3.206   2.363   0.013  1.1949 -1.7850  0.6149
 3648TIP3    H232436   3.285   2.477   0.072 -1.7390  0.7976 -0.3405
 3649TIP3   OH232437   4.149   0.524  13.411  0.5594  0.1620 -0.0417
 3649TIP3    H132438   4.065   0.516  13.366 -1.2217 -1.8991  3.4166
 3649TIP3    H232439   4.204   0.457  13.370 -0.1848  0.0486 -0.8789
 3650TIP3   OH232440   1.954   3.883  16.840  0.2535  0.2032  0.1059
 3650TIP3    H132441   1.865   3.915  16.856 -0.1189 -0.1941 -1.1052
 3650TIP3    H232442   1.959   3.873  16.745  1.4794 -0.1144  0.1978
 3651TIP3   OH232443   4.514   2.258  16.181 -0.2618  0.5099  0.2213
 3651TIP3    H132444   4.425   2.286  16.203 -1.2908 -1.5999 -1.0689
 3651TIP3    H232445   4.523   2.172  16.223  0.5180 -0.0764 -1.1136
 3652TIP3   OH232446   4.089   3.152  12.324 -0.1163  0.0448 -0.0911
 3652TIP3    H132447   3.998   3.184  12.329 -0.1761 -0.2719  1.0882
 3652TIP3    H232448   4.133   3.215  12.267 -0.5908  1.4000  0.9910
 3653TIP3   OH232449   2.241   4.441  14.218  0.3934 -0.1943  0.2765
 3653TIP3    H132450   2.152   4.427  14.186 -0.2160 -0.0562  1.8631
 3653TIP3    H232451   2.269   4.355  14.249  0.7784 -0.2147 -0.1253
 3654TIP3   OH232452   1.381   6.662  10.736 -0.1067  0.8560 -0.2598
 3654TIP3    H132453   1.405   6.675  10.645  2.1097 -1.2546 -0.0174
 3654TIP3    H232454   1.453   6.698  10.786 -0.2431 -0.0334  0.6024
 3655TIP3   OH232455   3.640   4.419   2.650 -0.3292  0.5146  0.3883
 3655TIP3    H132456   3.545   4.411   2.659 -0.2383  1.1391  1.9691
 3655TIP3    H232457   3.670   4.455   2.734  1.3582 -0.1138  0.0780
 3656TIP3   OH232458   0.820   6.052  13.001 -0.0284 -0.1822 -0.2169
 3656TIP3    H132459   0.766   6.080  12.927 -1.7189 -1.5413  0.4528
 3656TIP3    H232460   0.907   6.085  12.981 -0.6952  0.4220 -2.2778
 3657TIP3   OH232461   0.235   0.618   3.609 -0.0024 -0.2050 -0.2025
 3657TIP3    H132462   0.325   0.590   3.593  0.1509  1.4386 -2.4594
 3657TIP3    H232463   0.244   0.707   3.644 -0.6740 -1.0568  2.2807
 3658TIP3   OH232464   5.058   1.582   0.633  0.4733  0.2591  0.4788
 3658TIP3    H132465   5.024   1.608   0.718 -0.9626 -0.5232  0.1678
 3658TIP3    H232466   5.133   1.640   0.618  0.6024  0.5578  2.1560
 3659TIP3   OH232467   3.963   6.211   3.403  0.2183  0.3505 -0.0822
 3659TIP3    H132468   3.994   6.163   3.327  0.1904  1.0828 -0.5615
 3659TIP3    H232469   4.041   6.255   3.438  0.1489  0.3696  0.0513
 3660TIP3   OH232470   6.266   3.090  17.162 -0.1660 -0.2903 -0.2859
 3660TIP3    H132471   6.303   3.023  17.219 -0.4127 -0.7222 -0.6262
 3660TIP3    H232472   6.182   3.054  17.134 -1.1880  0.9801  1.0599
 3661TIP3   OH232473   3.982   5.964  14.683  0.1601 -0.4634 -0.4094
 3661TIP3    H132474   4.069   5.993  14.710  0.5930 -2.7776  0.8194
 3661TIP3    H232475   3.938   5.940  14.764 -1.5024  0.2811 -1.0600
 3662TIP3   OH232476   4.767   6.147  11.125  0.1202 -0.4434 -0.4223
 3662TIP3    H132477   4.675   6.175  11.129  0.4446  0.6540 -0.3643
 3662TIP3    H232478   4.801   6.189  11.046  0.1607 -2.1619 -1.3342
 3663TIP3   OH232479   2.698   4.232  14.801 -0.2061 -0.3087  0.0503
 3663TIP3    H132480   2.734   4.236  14.712 -0.5690  1.1604 -0.0519
 3663TIP3    H232481   2.633   4.302  14.803  0.3771  0.2122  1.7357
 3664TIP3   OH232482   1.961   4.022   6.578  0.4678 -0.3362 -0.3508
 3664TIP3    H132483   2.005   4.106   6.594 -0.2260  0.1680 -0.9868
 3664TIP3    H232484   1.980   3.969   6.655 -2.0268  1.6802  1.7811
 3665TIP3   OH232485   0.164   4.689  14.714  0.6683  0.1536 -0.2712
 3665TIP3    H132486   0.098   4.620  14.720 -0.2450  1.0061 -0.4629
 3665TIP3    H232487   0.246   4.642  14.694  0.3061 -0.9894  0.9048
 3666TIP3   OH232488   5.287   1.515   2.029  0.1232 -0.5270 -0.2284
 3666TIP3    H132489   5.351   1.583   2.054 -0.6987  0.1538  0.0411
 3666TIP3    H232490   5.204   1.562   2.023 -0.5635 -1.6201  0.5381
 3667TIP3   OH232491   1.824   4.637   3.001  0.1687  0.0207  0.7301
 3667TIP3    H132492   1.738   4.627   3.042  0.8261 -0.7023  1.9508
 3667TIP3    H232493   1.828   4.566   2.937 -0.7250  0.9468 -0.3679
 3668TIP3   OH232494   0.980   5.741  15.313 -0.7461  0.5697  0.1426
 3668TIP3    H132495   0.915   5.783  15.369  0.1258  1.6154  0.3845
 3668TIP3    H232496   1.000   5.805  15.245 -0.4768 -0.0062 -0.3304
 3669TIP3   OH232497   5.243   5.684   3.030  0.1572  0.6403  0.2145
 3669TIP3    H132498   5.171   5.622   3.041  0.3599  0.5667  1.1792
 3669TIP3    H232499   5.258   5.686   2.936 -2.3490  2.1152 -0.1829
 3670TIP3   OH232500   1.377   1.657   1.998 -0.2216 -0.1331  0.0451
 3670TIP3    H132501   1.378   1.576   2.049 -1.1595  0.6181  1.2668
 3670TIP3    H232502   1.469   1.685   1.996 -0.0965 -0.4751  0.8113
 3671TIP3   OH232503   6.479   5.763  11.709  0.5517 -0.0099 -0.4021
 3671TIP3    H132504   6.565   5.742  11.745 -0.1824 -1.4385  0.5816
 3671TIP3    H232505   6.489   5.850  11.670  2.0702  0.4294  0.9434
 3672TIP3   OH232506   3.091   4.358   5.120  0.9261 -0.1846 -0.4097
 3672TIP3    H132507   3.124   4.408   5.046  1.5389  0.5812  0.3786
 3672TIP3    H232508   3.128   4.270   5.108  1.1234 -0.0286 -0.9392
 3673TIP3   OH232509   4.603   4.381  11.347  0.2195 -0.4260 -0.2705
 3673TIP3    H132510   4.695   4.401  11.335  0.0990  0.8189  0.8184
 3673TIP3    H232511   4.602   4.300  11.399  0.7083  0.3777  1.0192
 3674TIP3   OH232512   1.071   4.831   3.593  0.3210  0.8342  0.1525
 3674TIP3    H132513   1.162   4.809   3.575  0.0679 -0.9668  0.9515
 3674TIP3    H232514   1.073   4.874   3.678  0.1720 -1.4380  1.3381
 3675TIP3   OH232515   3.366   4.455   2.633  0.0080 -0.2859 -1.1356
 3675TIP3    H132516   3.370   4.545   2.663  0.8355 -0.3327 -1.0774
 3675TIP3    H232517   3.275   4.441   2.608 -0.2817  0.3215 -0.4107
 3676TIP3   OH232518   5.346   5.435  12.966  0.1264  0.5090  0.2218
 3676TIP3    H132519   5.271   5.414  13.022  1.4188  0.9593  2.1807
 3676TIP3    H232520   5.418   5.451  13.028  1.5432  1.2157 -1.5727
 3677TIP3   OH232521   1.896   3.054  10.633  0.6655  0.5256 -0.3841
 3677TIP3    H132522   1.990   3.068  10.640  0.7331 -0.3010  0.5681
 3677TIP3    H232523   1.885   2.960  10.643 -0.1768  0.4885 -1.5978
 3678TIP3   OH232524   6.045   4.074  12.233 -0.1844  0.0022  0.6073
 3678TIP3    H132525   5.960   4.100  12.198  1.0122  0.5067 -2.0239
 3678TIP3    H232526   6.072   4.000  12.179  1.7788  0.9044  0.2983
 3679TIP3   OH232527   6.113   3.063  13.845  0.1067  0.5276 -0.5553
 3679TIP3    H132528   6.138   3.006  13.918 -0.0873  0.1453 -0.7864
 3679TIP3    H232529   6.196   3.081  13.799  0.0146 -0.4278 -1.0970
 3680TIP3   OH232530   1.959   3.170   6.139  0.3016 -0.4111 -0.2065
 3680TIP3    H132531   1.915   3.085   6.148  2.4903 -1.4578  1.0852
 3680TIP3    H232532   1.909   3.229   6.196 -0.1808 -1.2724  0.2730
 3681TIP3   OH232533   1.314   4.125  13.725 -0.1382  0.0691  0.0642
 3681TIP3    H132534   1.386   4.071  13.693  0.1118  0.3643  0.1224
 3681TIP3    H232535   1.325   4.208  13.680 -0.7319 -0.0459 -0.2956
 3682TIP3   OH232536   4.490   6.339   1.450 -0.4818  0.4394  0.1484
 3682TIP3    H132537   4.512   6.263   1.503 -0.6641 -1.0192 -1.8050
 3682TIP3    H232538   4.470   6.408   1.513  0.7623 -0.8082  1.9481
 3683TIP3   OH232539   0.439   6.357  13.077  0.3299 -0.0540  0.1037
 3683TIP3    H132540   0.512   6.295  13.077  0.4221  0.0527 -0.1496
 3683TIP3    H232541   0.480   6.442  13.059  0.2156  0.0939  0.5442
 3684TIP3   OH232542   4.901   2.154   4.166  0.0232 -0.0836  0.4413
 3684TIP3    H132543   4.987   2.117   4.149  0.6977  0.9282  1.5711
 3684TIP3    H232544   4.872   2.112   4.247 -1.5129 -2.0330 -1.0540
 3685TIP3   OH232545   2.635   1.367   4.683  0.4986  0.3641  0.0256
 3685TIP3    H132546   2.661   1.287   4.729 -0.2455 -0.3019 -0.7149
 3685TIP3    H232547   2.543   1.380   4.706  0.3175  0.4096 -0.7315
 3686TIP3   OH232548   5.170   5.443  15.889 -0.6902 -0.1666 -0.5381
 3686TIP3    H132549   5.214   5.508  15.835  0.6223 -0.5276  0.0808
 3686TIP3    H232550   5.124   5.386  15.826 -0.1899  0.1554 -1.1923
 3687TIP3   OH232551   5.417   3.484  11.548 -0.2975 -0.3610 -0.3652
 3687TIP3    H132552   5.502   3.454  11.580  0.0866 -0.6494 -1.6339
 3687TIP3    H232553   5.405   3.438  11.465 -1.5808 -0.1229 -0.3209
 3688TIP3   OH232554   2.818   4.351   5.579  0.0614 -0.6581  0.0857
 3688TIP3    H132555   2.823   4.439   5.614  2.1650 -0.4439 -0.7075
 3688TIP3    H232556   2.742   4.353   5.520 -0.2865  0.4192  0.5633
 3689TIP3   OH232557   5.178   0.184   5.512  0.2477  0.4919  0.4789
 3689TIP3    H132558   5.188   0.279   5.509 -0.8511  0.5722 -0.8338
 3689TIP3    H232559   5.263   0.150   5.484 -0.4442  1.1165 -2.5285
 3690TIP3   OH232560   6.122   3.208  15.496 -0.1791 -0.6158  0.4702
 3690TIP3    H132561   6.215   3.189  15.491 -0.1471 -0.2536 -0.4256
 3690TIP3    H232562   6.083   3.128  15.531  0.1080 -1.8958 -2.0325
 3691TIP3   OH232563   3.832   3.045  11.515  0.0979  0.0884  0.1077
 3691TIP3    H132564   3.924   3.032  11.492 -0.0226 -3.5320  1.4025
 3691TIP3    H232565   3.783   3.002  11.446 -0.4848 -1.5448  1.4952
 3692TIP3   OH232566   0.598   1.714  16.304  0.4006  0.1840 -0.0610
 3692TIP3    H132567   0.585   1.689  16.396 -1.0954 -0.9849 -0.5607
 3692TIP3    H232568   0.677   1.668  16.277 -0.1814 -0.9469  0.1309
 3693TIP3   OH232569   0.896   3.246   3.589 -1.0997  0.0694 -0.4629
 3693TIP3    H132570   0.809   3.268   3.556 -0.9131 -0.1012 -1.0661
 3693TIP3    H232571   0.903   3.151   3.575 -1.4582 -0.1991  1.0836
 3694TIP3   OH232572   1.756   4.234   0.527 -0.1926 -0.3269  0.7015
 3694TIP3    H132573   1.724   4.144   0.515  0.0953 -0.2835 -0.4500
 3694TIP3    H232574   1.699   4.271   0.594 -0.5172 -1.2690  0.9548
 3695TIP3   OH232575   5.685   3.998   6.613  0.1051  0.0223 -0.2411
 3695TIP3    H132576   5.723   3.928   6.666  0.1419  0.8694  0.8685
 3695TIP3    H232577   5.614   3.955   6.565  0.1433 -0.7871  0.4086
 3696TIP3   OH232578   1.000   6.254  11.652  0.2765  0.5587 -0.5185
 3696TIP3    H132579   0.984   6.188  11.720 -1.1084  0.3197 -1.0609
 3696TIP3    H232580   1.029   6.203  11.577  1.0676  0.7570 -0.3566
 3697TIP3   OH232581   5.588   2.165   1.149 -0.4658  0.0403 -0.3936
 3697TIP3    H132582   5.504   2.145   1.190 -0.5766  0.7322 -0.2696
 3697TIP3    H232583   5.641   2.202   1.220 -0.6346  1.1712 -0.8450
 3698TIP3   OH232584   3.252   4.764  14.598 -0.0542  0.0181 -0.2693
 3698TIP3    H132585   3.166   4.730  14.574 -0.2881  0.0084  0.5504
 3698TIP3    H232586   3.292   4.791  14.516 -1.6790  1.9972 -0.4344
 3699TIP3   OH232587   4.598   1.365  10.480 -0.3263 -1.0716 -0.8372
 3699TIP3    H132588   4.596   1.419  10.402 -0.8587 -1.7809 -1.3166
 3699TIP3    H232589   4.666   1.300  10.463  0.0217 -0.8186 -0.4332
 3700TIP3   OH232590   1.848   3.445  15.439  0.5314  0.1016  0.3483
 3700TIP3    H132591   1.895   3.443  15.355 -1.3049  0.9842 -0.7349
 3700TIP3    H232592   1.870   3.363  15.481  2.3450  0.1266 -0.5301
 3701TIP3   OH232593   5.749   6.192  13.342  0.0563  0.0491 -0.1290
 3701TIP3    H132594   5.717   6.107  13.312  0.3342  0.1578 -0.7212
 3701TIP3    H232595   5.782   6.235  13.264 -1.3019  1.2477 -0.0468
 3702TIP3   OH232596   3.877   5.056   5.877  0.0786 -0.1815  0.1574
 3702TIP3    H132597   3.855   5.020   5.963 -1.4174  0.1197 -0.0816
 3702TIP3    H232598   3.935   4.991   5.838 -0.1541 -0.8766  0.9397
 3703TIP3   OH232599   6.571   3.043  12.936  0.0698  0.1761 -0.5883
 3703TIP3    H132600   6.616   3.120  12.970  2.4237 -1.8722  1.1544
 3703TIP3    H232601   6.516   3.013  13.009  1.8774 -1.7783  0.0296
 3704TIP3   OH232602   1.748   0.541   5.891 -0.7921  0.4337 -0.3835
 3704TIP3    H132603   1.724   0.530   5.799 -3.4061  1.5861  0.1164
 3704TIP3    H232604   1.728   0.633   5.910 -0.1839  0.2324  1.3130
 3705TIP3   OH232605   2.702   0.476   3.626 -0.3973 -0.1840  0.6090
 3705TIP3    H132606   2.669   0.557   3.663 -2.6973 -1.6836  1.9901
 3705TIP3    H232607   2.747   0.502   3.546  0.0577  2.5587  1.7356
 3706TIP3   OH232608   5.035   4.713   2.113 -0.7542  0.2900  0.2580
 3706TIP3    H132609   5.002   4.741   2.027  1.4866 -0.5741 -0.9069
 3706TIP3    H232610   4.961   4.667   2.152 -0.7493 -2.4185 -2.6862
 3707TIP3   OH232611   6.638   3.780   0.042 -0.1784 -0.0729 -0.4220
 3707TIP3    H132612   6.600   3.745   0.123 -2.4843  1.7809 -0.6587
 3707TIP3    H232613   6.650   3.873   0.059  1.2250 -0.0324 -1.5331
 3708TIP3   OH232614   4.379   3.782  11.185  0.2035  0.3395  0.2056
 3708TIP3    H132615   4.467   3.780  11.221  0.6717 -1.1323 -0.9852
 3708TIP3    H232616   4.391   3.801  11.092 -0.8503  1.7419  0.3343
 3709TIP3   OH232617   5.785   3.526   2.242  0.2067 -1.0726  0.1979
 3709TIP3    H132618   5.746   3.598   2.291  0.8174  1.0656 -2.3623
 3709TIP3    H232619   5.763   3.448   2.293 -1.8058  0.7355  2.2041
 3710TIP3   OH232620   3.221   0.101   5.206 -0.3298  0.1290  0.6673
 3710TIP3    H132621   3.198   0.190   5.234 -0.4801 -1.0098  4.3947
 3710TIP3    H232622   3.137   0.058   5.191 -0.2942  0.0963  0.5596
 3711TIP3   OH232623   4.365   6.243   0.783  0.3028 -0.0097 -0.1037
 3711TIP3    H132624   4.333   6.153   0.787 -1.8893  0.8212  1.9535
 3711TIP3    H232625   4.383   6.258   0.690 -0.2400 -2.2345 -0.5913
 3712TIP3   OH232626   3.807   1.961   2.767 -0.3266 -0.4491  0.2371
 3712TIP3    H132627   3.873   1.938   2.832  0.2113 -1.3215 -0.5985
 3712TIP3    H232628   3.840   2.040   2.726 -0.9906  0.4783  1.4653
 3713TIP3   OH232629   4.806   6.052  15.822 -0.3325 -0.2964 -0.2886
 3713TIP3    H132630   4.719   6.063  15.859 -0.2306 -0.2720 -0.0550
 3713TIP3    H232631   4.825   6.134  15.778  0.7359  0.7902  2.0900
 3714TIP3   OH232632   6.055   1.959  15.339  0.5906  0.2009 -0.2511
 3714TIP3    H132633   6.061   2.043  15.292  2.7516  0.7220  0.9102
 3714TIP3    H232634   6.145   1.939  15.363 -0.2311 -1.2077  1.6950
 3715TIP3   OH232635   2.502   1.778  17.208 -0.8409  0.3039  0.2336
 3715TIP3    H132636   2.526   1.851  17.152 -1.5734  0.9123  0.7011
 3715TIP3    H232637   2.447   1.722  17.152  0.0697 -0.1158 -0.2551
 3716TIP3   OH232638   0.696   2.497   0.142  0.2939  0.0918 -0.3764
 3716TIP3    H132639   0.696   2.511   0.237  0.7964  0.1232 -0.3759
 3716TIP3    H232640   0.612   2.532   0.112  0.0596 -0.0829  0.0814
 3717TIP3   OH232641   3.718   0.968  11.028 -0.1921  0.0887  0.1471
 3717TIP3    H132642   3.656   0.899  11.050  0.3307  0.1208  1.7944
 3717TIP3    H232643   3.743   0.949  10.937 -0.8987 -1.2325  0.2097
 3718TIP3   OH232644   0.382   2.648  15.976  0.4118  0.0691 -0.0920
 3718TIP3    H132645   0.377   2.555  15.955  1.1996 -0.0743  0.3291
 3718TIP3    H232646   0.443   2.653  16.049  1.0602  1.0055 -0.6820
 3719TIP3   OH232647   0.831   0.194  14.903 -0.0120  0.9074  0.1406
 3719TIP3    H132648   0.837   0.280  14.945 -1.0986 -0.1502  2.5427
 3719TIP3    H232649   0.744   0.163  14.925  1.2405 -1.8720  1.4076
 3720TIP3   OH232650   0.480   6.204  14.418  0.1016 -0.3201  0.0796
 3720TIP3    H132651   0.516   6.291  14.431 -0.2482 -0.0634 -0.6201
 3720TIP3    H232652   0.434   6.184  14.500  0.9230 -0.2106  0.5635
 3721TIP3   OH232653   6.244   4.413  10.315  0.1529  0.7986  0.0994
 3721TIP3    H132654   6.220   4.357  10.241  2.4291  1.0573 -0.8686
 3721TIP3    H232655   6.204   4.370  10.391 -0.4264 -0.6360 -1.0002
 3722TIP3   OH232656   3.190   5.195  12.162 -0.6484  0.0486  0.1275
 3722TIP3    H132657   3.153   5.224  12.246 -3.2707  0.3347 -1.0894
 3722TIP3    H232658   3.115   5.189  12.103  1.1364 -0.2802 -2.1907
 3723TIP3   OH232659   2.626   5.402   2.835  0.1717  0.2108 -0.3701
 3723TIP3    H132660   2.619   5.311   2.866  0.2512 -0.1267 -1.3203
 3723TIP3    H232661   2.598   5.398   2.744  1.9450  0.8129 -0.9623
 3724TIP3   OH232662   1.456   5.158  11.598 -0.0035 -0.1254 -0.3414
 3724TIP3    H132663   1.478   5.210  11.521 -1.0253 -0.8323 -1.1288
 3724TIP3    H232664   1.464   5.067  11.569  0.6926 -0.4051  0.7035
 3725TIP3   OH232665   0.513   1.027   6.299  0.2012  0.1138 -0.0445
 3725TIP3    H132666   0.456   0.965   6.345  0.3282  0.9318  1.2625
 3725TIP3    H232667   0.571   1.061   6.368  2.0029 -0.4161 -1.2791
 3726TIP3   OH232668   4.280   3.886   0.996 -0.0957 -0.9867 -0.0469
 3726TIP3    H132669   4.258   3.839   0.916 -0.6148  0.4313 -0.7520
 3726TIP3    H232670   4.196   3.904   1.038  0.2232 -2.5067  1.2892
 3727TIP3   OH232671   3.670   3.917  13.027 -0.4623 -0.1037  1.1166
 3727TIP3    H132672   3.593   3.864  13.047 -1.4109  1.8104  2.8111
 3727TIP3    H232673   3.634   4.004  13.007  1.1725  0.4466  0.4969
 3728TIP3   OH232674   6.547   1.074  12.111  0.0309 -0.6300 -0.0797
 3728TIP3    H132675   6.480   1.053  12.045  0.0959 -0.8259 -0.0843
 3728TIP3    H232676   6.537   1.005  12.177  1.8208 -2.0684 -1.2538
 3729TIP3   OH232677   1.192   5.448  15.646 -0.1983 -0.4926  0.1904
 3729TIP3    H132678   1.219   5.369  15.599  1.9280  0.2206  0.1523
 3729TIP3    H232679   1.189   5.516  15.578  0.1656 -0.0598  0.6083
 3730TIP3   OH232680   2.467   6.333  13.308 -0.1889  0.5335  0.5563
 3730TIP3    H132681   2.441   6.360  13.396 -1.4645  0.7600  0.1068
 3730TIP3    H232682   2.463   6.413  13.256  1.0739  0.5097  0.3904
 3731TIP3   OH232683   5.661   5.425   1.911  0.3642  0.0936 -0.3275
 3731TIP3    H132684   5.693   5.338   1.889  1.7779  0.6336 -0.4315
 3731TIP3    H232685   5.733   5.483   1.891 -1.0212  1.4567 -1.4954
 3732TIP3   OH232686   0.081   5.502   4.176 -0.0605  0.0078  0.2378
 3732TIP3    H132687   0.047   5.461   4.097 -1.0959  0.2130  0.5604
 3732TIP3    H232688   0.008   5.497   4.238  0.0571  1.6249  0.5317
 3733TIP3   OH232689   4.880   0.830   5.796  0.0667 -0.1922  0.1436
 3733TIP3    H132690   4.822   0.757   5.772 -2.1764  1.8936 -1.0002
 3733TIP3    H232691   4.842   0.865   5.877  0.9774 -0.1348  0.5462
 3734TIP3   OH232692   5.068   5.384  13.038 -0.0824  0.4911 -0.1738
 3734TIP3    H132693   5.055   5.464  13.089 -1.7379 -0.1977  0.5031
 3734TIP3    H232694   4.992   5.329  13.058 -0.9900  0.3439 -3.6829
 3735TIP3   OH232695   5.828   5.958   5.896  0.0930 -0.0504  0.0856
 3735TIP3    H132696   5.744   5.988   5.863 -0.9828 -0.7720  2.1003
 3735TIP3    H232697   5.818   5.863   5.904  1.5263 -0.3012 -0.7826
 3736TIP3   OH232698   5.603   2.772  12.488 -0.7636  0.3979  0.1488
 3736TIP3    H132699   5.539   2.780  12.559  0.4742 -0.5093  1.4001
 3736TIP3    H232700   5.550   2.769  12.408 -2.2308  0.5849  1.0944
 3737TIP3   OH232701   0.480   2.488   4.006 -0.1915 -0.1704  0.2758
 3737TIP3    H132702   0.531   2.448   3.935 -1.1843 -0.1926 -0.4482
 3737TIP3    H232703   0.527   2.568   4.028 -0.3417  0.2906 -1.0275
 3738TIP3   OH232704   1.069   6.810   4.471  0.0756  0.1316  0.2246
 3738TIP3    H132705   1.155   6.843   4.446  0.6591 -2.6158 -1.5869
 3738TIP3    H232706   1.014   6.827   4.394 -0.7353  0.8695  0.9578
 3739TIP3   OH232707   3.840   6.632  17.112  0.6057 -0.1187  0.4276
 3739TIP3    H132708   3.892   6.675  17.044  0.5465 -0.1716  0.3472
 3739TIP3    H232709   3.886   6.652  17.193  1.3712 -1.0920  0.2411
 3740TIP3   OH232710   1.188   2.336   3.493 -0.1701 -0.5371 -0.2418
 3740TIP3    H132711   1.166   2.421   3.454  0.2441  0.3946  1.5044
 3740TIP3    H232712   1.284   2.337   3.498 -0.2006 -0.8062  0.4311
 3741TIP3   OH232713   5.391   4.198   3.371  0.0767  0.1001 -0.0042
 3741TIP3    H132714   5.396   4.103   3.378  0.9506  0.2147  1.1949
 3741TIP3    H232715   5.481   4.225   3.352  0.0417  0.7583  0.7300
 3742TIP3   OH232716   2.265   5.316  15.124 -0.3006  0.0625 -0.2087
 3742TIP3    H132717   2.217   5.356  15.196 -1.3895  1.2616 -1.5713
 3742TIP3    H232718   2.357   5.325  15.147 -0.6649 -2.5277  2.5906
 3743TIP3   OH232719   4.410   5.224  13.692  0.4248 -0.4753 -0.4180
 3743TIP3    H132720   4.415   5.318  13.676 -2.6484 -0.2857 -0.5918
 3743TIP3    H232721   4.479   5.207  13.756  0.2518  2.1247  0.5331
 3744TIP3   OH232722   1.053   2.238  15.547  0.2969 -0.2195  0.1655
 3744TIP3    H132723   1.119   2.296  15.510  1.5270 -2.1484 -0.7736
 3744TIP3    H232724   1.037   2.272  15.635  2.2131  0.5502  0.2369
 3745TIP3   OH232725   4.089   2.477  16.136  0.0250  0.3045  0.2790
 3745TIP3    H132726   4.041   2.394  16.128  0.5264 -0.1185  1.3784
 3745TIP3    H232727   4.170   2.453  16.182  1.0363  1.0989 -1.0552
 3746TIP3   OH232728   5.442   2.296   4.979  0.6914 -0.4638 -0.1376
 3746TIP3    H132729   5.370   2.255   4.931  1.0132 -0.9694 -0.1954
 3746TIP3    H232730   5.519   2.278   4.925  0.8207  0.2954 -0.2054
 3747TIP3   OH232731   1.464   2.255  10.654 -0.1336  0.1690  0.6459
 3747TIP3    H132732   1.484   2.254  10.747  0.2037  0.7424  0.5805
 3747TIP3    H232733   1.550   2.248  10.611 -0.1785  1.2436  0.3720
 3748TIP3   OH232734   3.310   1.296   3.970 -0.3698  0.0353 -0.3460
 3748TIP3    H132735   3.372   1.368   3.983 -0.1323 -0.3645  0.7873
 3748TIP3    H232736   3.247   1.306   4.042 -0.7279 -0.4817 -0.5874
 3749TIP3   OH232737   3.393   3.766  12.422  0.2661  0.4913 -0.3701
 3749TIP3    H132738   3.337   3.844  12.427 -1.3441 -0.6529 -0.0287
 3749TIP3    H232739   3.355   3.714  12.350 -1.4722 -2.0526  2.2686
 3750TIP3   OH232740   5.332   1.926   4.727 -0.2490 -0.4269  0.0880
 3750TIP3    H132741   5.304   1.856   4.785  2.0535 -0.0968  1.6444
 3750TIP3    H232742   5.412   1.960   4.766  0.5714  0.7769 -2.5092
 3751TIP3   OH232743   1.160   2.821   3.960  0.0943  0.7738  0.1799
 3751TIP3    H132744   1.129   2.893   3.904 -0.5133  0.8266  0.5809
 3751TIP3    H232745   1.248   2.803   3.928 -0.6102  0.1126 -1.4909
 3752TIP3   OH232746   2.413   2.717   0.957 -0.2116  0.0816 -0.4246
 3752TIP3    H132747   2.380   2.627   0.967 -0.2225  0.0282 -0.9258
 3752TIP3    H232748   2.355   2.770   1.012 -0.1901 -0.2223 -0.1054
 3753TIP3   OH232749   0.071   2.464  14.295  0.0230  0.3073 -0.1714
 3753TIP3    H132750  -0.022   2.466  14.316  0.4778  1.3814  1.8644
 3753TIP3    H232751   0.085   2.378  14.255 -1.6065 -0.3648  0.6535
 3754TIP3   OH232752   3.809   3.176  16.428  0.2559 -0.0725  0.0963
 3754TIP3    H132753   3.756   3.237  16.480  1.3823  0.2593  0.8678
 3754TIP3    H232754   3.875   3.231  16.387 -1.0233 -0.2286 -2.2701
 3755TIP3   OH232755   3.450   1.576  16.904  0.1537 -0.3681 -0.5419
 3755TIP3    H132756   3.498   1.536  16.976 -0.3187 -0.0402 -0.0395
 3755TIP3    H232757   3.502   1.653  16.881  0.1832 -0.3428 -0.3924
 3756TIP3   OH232758   3.013   0.125  12.097  0.1726 -0.2082  0.4492
 3756TIP3    H132759   3.011   0.220  12.098  0.3834 -0.2050  2.3090
 3756TIP3    H232760   3.039   0.102  12.008 -2.4810  1.4036 -0.7932
 3757TIP3   OH232761   2.323   6.063  16.059 -0.1851 -0.0218 -0.3463
 3757TIP3    H132762   2.398   6.122  16.062 -0.2797  0.1142 -0.6077
 3757TIP3    H232763   2.316   6.038  15.967 -1.4434  1.2451 -0.6084
 3758TIP3   OH232764   0.225   1.794   2.587 -0.8144  0.1067 -0.6938
 3758TIP3    H132765   0.319   1.812   2.580 -0.7924  0.2580 -0.0468
 3758TIP3    H232766   0.215   1.704   2.554 -0.0664 -0.8520  1.5834
 3759TIP3   OH232767   5.476   0.330   3.188 -0.0103  0.1910  0.2643
 3759TIP3    H132768   5.474   0.236   3.174 -1.6254  0.3395 -0.5855
 3759TIP3    H232769   5.520   0.341   3.273  0.5753 -1.2864  0.1584
 3760TIP3   OH232770   5.106   0.792   3.186  0.0557 -0.0393  0.3810
 3760TIP3    H132771   5.104   0.755   3.098  0.5128  0.5683  0.1120
 3760TIP3    H232772   5.082   0.884   3.174  1.9096  0.4968  0.6433
 3761TIP3   OH232773   4.789   5.938   4.058 -0.6379 -0.2147  0.1198
 3761TIP3    H132774   4.828   5.944   3.971 -0.0044 -1.2289  0.3235
 3761TIP3    H232775   4.703   5.898   4.043 -0.7003 -0.0125 -0.0772
 3762TIP3   OH232776   2.444   1.871  11.875  0.3564  0.0792  0.1416
 3762TIP3    H132777   2.441   1.779  11.850 -0.3092  0.8141 -2.6730
 3762TIP3    H232778   2.409   1.873  11.964 -0.6260 -2.2495 -0.1594
 3763TIP3   OH232779   6.695   2.457  12.119  0.3327  0.1385  0.1437
 3763TIP3    H132780   6.756   2.396  12.160  2.9942  2.7373  0.3110
 3763TIP3    H232781   6.704   2.538  12.171 -4.5416  0.1737  1.1951
 3764TIP3   OH232782   2.702   1.602   2.903 -0.1609 -0.6669 -0.5862
 3764TIP3    H132783   2.741   1.543   2.839 -1.4574 -1.5951 -0.5317
 3764TIP3    H232784   2.618   1.563   2.925  0.1856 -0.2982  1.5783
 3765TIP3   OH232785   4.405   1.645   5.186 -0.2281 -0.4558 -0.4707
 3765TIP3    H132786   4.368   1.557   5.198  2.3356 -1.1430  3.3114
 3765TIP3    H232787   4.482   1.631   5.132  1.7124 -1.0403  2.3374
 3766TIP3   OH232788   6.356   3.838   1.761 -0.2809 -0.5982  0.3224
 3766TIP3    H132789   6.438   3.792   1.744  0.6766  1.7574 -1.5575
 3766TIP3    H232790   6.291   3.789   1.710  0.4218 -0.8806 -0.3114
 3767TIP3   OH232791   3.697   2.586  16.622 -0.5825  0.0083  0.0436
 3767TIP3    H132792   3.644   2.596  16.543 -1.8688  1.0949  1.0241
 3767TIP3    H232793   3.668   2.656  16.679  1.5016  0.2477  0.8532
 3768TIP3   OH232794   1.469   4.013   4.564 -0.7753 -0.8498  0.3807
 3768TIP3    H132795   1.431   3.927   4.544 -0.8765 -0.5823 -0.5510
 3768TIP3    H232796   1.396   4.074   4.558 -0.6148 -0.6300  0.6222
 3769TIP3   OH232797   0.109   1.478  11.671  0.1499 -0.2528 -0.2420
 3769TIP3    H132798   0.041   1.415  11.647  0.4476 -1.0992  1.1496
 3769TIP3    H232799   0.182   1.425  11.701  0.8534  0.7141 -0.2257
 3770TIP3   OH232800   5.297   5.664   3.651 -0.1181 -0.0751 -0.1919
 3770TIP3    H132801   5.317   5.650   3.559  2.3962 -0.5425  0.3871
 3770TIP3    H232802   5.381   5.685   3.692 -1.0978 -0.3003  2.0666
 3771TIP3   OH232803   3.043   6.816  11.849  0.3087  0.1208 -0.0766
 3771TIP3    H132804   3.072   6.857  11.768  1.5034  1.4090  0.9924
 3771TIP3    H232805   3.099   6.739  11.859 -0.8652 -0.9031 -1.2526
 3772TIP3   OH232806   4.582   1.850   6.032 -0.1044 -0.4704  0.7501
 3772TIP3    H132807   4.670   1.875   6.060  0.3587  1.2695 -2.0299
 3772TIP3    H232808   4.589   1.755   6.016  0.5679 -0.8027  2.9173
 3773TIP3   OH232809   1.388   2.840   2.540 -0.5472  0.5161 -0.5047
 3773TIP3    H132810   1.330   2.770   2.569  0.3328 -0.5410 -1.2748
 3773TIP3    H232811   1.341   2.881   2.467 -1.2326  0.9863  0.1923
 3774TIP3   OH232812   3.959   0.471  15.327 -0.2440 -0.3012  0.2859
 3774TIP3    H132813   3.992   0.473  15.417  0.7410 -0.7645 -0.0677
 3774TIP3    H232814   3.921   0.558  15.313 -0.3728 -0.2199  1.1315
 3775TIP3   OH232815   6.228   0.174  12.394 -0.2669  0.3472  1.0779
 3775TIP3    H132816   6.212   0.090  12.438  0.4910  1.6382  3.9206
 3775TIP3    H232817   6.143   0.218  12.397 -1.4694 -1.4480 -3.1227
 3776TIP3   OH232818   1.157   2.327  16.594  0.0937 -0.0120 -0.7375
 3776TIP3    H132819   1.116   2.412  16.579 -0.3383 -0.3951 -1.7310
 3776TIP3    H232820   1.237   2.329  16.542  1.8723  1.0974  1.9372
 3777TIP3   OH232821   5.456   1.747  11.384  0.8777  0.0998 -0.1426
 3777TIP3    H132822   5.495   1.767  11.469  1.4501  1.6210 -0.7372
 3777TIP3    H232823   5.404   1.668  11.399  2.6337 -0.8517  1.1372
 3778TIP3   OH232824   4.133   1.450  16.519  0.2983 -0.0136  0.0235
 3778TIP3    H132825   4.127   1.433  16.613  2.6482  0.7959  0.3514
 3778TIP3    H232826   4.066   1.516  16.502  0.4543  0.4901  1.2999
 3779TIP3   OH232827   6.774   6.469  16.244 -0.4694 -0.3636  0.6014
 3779TIP3    H132828   6.806   6.417  16.171 -1.1094  0.4311 -0.2694
 3779TIP3    H232829   6.722   6.408  16.296  2.5050 -1.6932  2.1175
 3780TIP3   OH232830   4.958   6.217  13.007  0.2106 -0.2492  0.2683
 3780TIP3    H132831   4.964   6.312  13.019 -2.6797 -0.3523  3.0638
 3780TIP3    H232832   5.043   6.184  13.036  0.1353  1.2610  2.3269
 3781TIP3   OH232833   3.976   5.304   1.462 -0.4236  0.0503 -0.2122
 3781TIP3    H132834   4.061   5.320   1.420  1.6729  1.4181  4.3080
 3781TIP3    H232835   3.980   5.212   1.489 -0.1284  0.2813  0.5332
 3782TIP3   OH232836   4.182   3.899  16.792 -0.3766 -0.2258  0.0198
 3782TIP3    H132837   4.187   3.962  16.720  4.1198  0.1151  0.4913
 3782TIP3    H232838   4.177   3.952  16.871 -2.8905 -0.5748  0.1219
 3783TIP3   OH232839   1.446   6.163  12.958  0.0735 -0.5496 -0.1545
 3783TIP3    H132840   1.377   6.225  12.937  0.1445 -0.3707  0.1379
 3783TIP3    H232841   1.455   6.109  12.879  1.2783  0.9791 -1.0798
 3784TIP3   OH232842   4.447   5.307  14.139 -0.0856 -0.6353 -0.0406
 3784TIP3    H132843   4.372   5.283  14.193 -0.9953 -1.2480 -1.5493
 3784TIP3    H232844   4.480   5.224  14.106 -0.3473 -0.1864 -1.4784
 3785TIP3   OH232845   2.262   6.817  15.081  0.1872  0.6904 -0.2806
 3785TIP3    H132846   2.221   6.879  15.020  0.8692  1.2595 -0.1654
 3785TIP3    H232847   2.211   6.737  15.070  0.1027  0.8781 -1.3755
 3786TIP3   OH232848   2.542   3.895  11.188  0.4575  0.0154 -0.4845
 3786TIP3    H132849   2.461   3.888  11.139  0.5339 -0.5463 -0.5385
 3786TIP3    H232850   2.522   3.857  11.274  0.8108 -0.6281 -0.6815
 3787TIP3   OH232851   5.885   0.722  15.573  0.6687 -0.4426 -0.3051
 3787TIP3    H132852   5.903   0.789  15.639  1.3731 -0.3813 -0.5591
 3787TIP3    H232853   5.937   0.749  15.497 -0.0889 -0.5454 -0.8644
 3788TIP3   OH232854   0.329   1.486  15.668  0.2092  0.2098  0.0550
 3788TIP3    H132855   0.406   1.543  15.677 -0.1090  0.4986  1.0424
 3788TIP3    H232856   0.281   1.499  15.750 -0.2510 -0.9098 -0.0398
 3789TIP3   OH232857   2.500   0.924   6.921  0.4087 -0.4862 -0.4072
 3789TIP3    H132858   2.450   0.942   7.000 -1.3882 -0.3446 -1.5593
 3789TIP3    H232859   2.449   0.964   6.850  2.2064 -0.2347 -1.5981
 3790TIP3   OH232860   6.649   3.746   5.731  0.5322 -0.0487 -0.0035
 3790TIP3    H132861   6.679   3.826   5.775 -0.2487  0.2369  0.0229
 3790TIP3    H232862   6.689   3.675   5.781  1.5382  0.3372 -0.2615
 3791TIP3   OH232863   4.259   6.728   4.592  0.3384 -0.1124 -0.2603
 3791TIP3    H132864   4.283   6.636   4.580 -1.4503 -0.6207 -0.1422
 3791TIP3    H232865   4.292   6.750   4.679  1.8249 -0.2792 -0.7700
 3792TIP3   OH232866   2.487   2.485  11.120 -0.2890  0.5081  0.3869
 3792TIP3    H132867   2.444   2.486  11.034 -1.1900 -0.9660  0.8073
 3792TIP3    H232868   2.557   2.420  11.110 -0.2637  0.4881  0.7140
 3793TIP3   OH232869   6.094   2.347  12.928 -0.0466 -0.1819 -0.1082
 3793TIP3    H132870   6.150   2.344  12.851  0.6518 -0.5669  0.4023
 3793TIP3    H232871   6.038   2.424  12.915 -0.1538 -0.4320 -1.1407
 3794TIP3   OH232872   1.710   3.426  15.776 -0.5233 -0.2275  0.0472
 3794TIP3    H132873   1.806   3.419  15.779 -0.5588 -0.2447  1.5855
 3794TIP3    H232874   1.694   3.518  15.756 -0.1733  0.1852  1.5586
 3795TIP3   OH232875   6.292   5.740   1.734 -0.1118 -0.2237  0.3625
 3795TIP3    H132876   6.322   5.828   1.757  1.4799 -0.9383  1.0861
 3795TIP3    H232877   6.303   5.734   1.639 -0.9700  0.6194  0.2025
 3796TIP3   OH232878   3.492   1.403  17.109  0.2669 -0.0845  0.2814
 3796TIP3    H132879   3.455   1.375  17.193  0.9576 -0.6278  0.4021
 3796TIP3    H232880   3.586   1.389  17.118  0.3654  0.0756 -0.4984
 3797TIP3   OH232881   5.068   2.871   4.985  0.2823  0.1571  0.1251
 3797TIP3    H132882   5.064   2.932   5.058  0.0793  0.1152  0.1504
 3797TIP3    H232883   5.026   2.792   5.017  0.9028 -0.1345  0.2208
 3798TIP3   OH232884   0.412   6.394   1.506  0.2792  0.3815  0.2791
 3798TIP3    H132885   0.328   6.427   1.539 -0.6453 -1.2345 -0.3577
 3798TIP3    H232886   0.431   6.450   1.430 -0.1178  0.8891  0.5495
 3799TIP3   OH232887   2.094   3.305   4.003 -0.7516  0.3664 -0.5125
 3799TIP3    H132888   2.179   3.302   4.049 -0.5525  1.5160 -0.7831
 3799TIP3    H232889   2.098   3.233   3.940 -0.6221 -0.5970  0.5726
 3800TIP3   OH232890   1.884   5.051   5.359  0.2194  0.0595 -0.7855
 3800TIP3    H132891   1.950   5.053   5.429 -0.0796 -0.0647 -0.4963
 3800TIP3    H232892   1.934   5.031   5.280  0.7707  1.6876 -0.8600
 3801TIP3   OH232893   0.114   1.869   5.562  0.0033 -0.4725 -0.4043
 3801TIP3    H132894   0.183   1.882   5.627  0.8162  0.4777 -1.4465
 3801TIP3    H232895   0.079   1.782   5.582  1.1260 -0.7394  0.4801
 3802TIP3   OH232896   2.288   6.620   5.629 -0.4273  0.3931  0.4557
 3802TIP3    H132897   2.214   6.676   5.653  0.6803  2.0411  0.1278
 3802TIP3    H232898   2.329   6.598   5.713  0.1213  1.4606  0.4660
 3803TIP3   OH232899   5.494   3.658   4.576 -0.3182 -0.3175 -0.5560
 3803TIP3    H132900   5.503   3.753   4.580  1.1001 -0.4040 -1.5056
 3803TIP3    H232901   5.521   3.628   4.663 -0.5808  0.1181 -0.3191
 3804TIP3   OH232902   6.092   1.970   6.279  0.4318 -0.5471  0.2908
 3804TIP3    H132903   6.037   1.927   6.345 -0.0047  0.3948  0.5472
 3804TIP3    H232904   6.151   1.901   6.249 -1.4588 -1.7995 -0.6224
 3805TIP3   OH232905   0.816   2.440   3.957  0.2305 -0.1094 -0.5470
 3805TIP3    H132906   0.774   2.390   3.887 -0.4978 -1.2000  0.6562
 3805TIP3    H232907   0.801   2.532   3.932 -0.7413 -0.4872 -1.3975
 3806TIP3   OH232908   2.638   5.345  13.420  0.2069 -0.1647  0.3568
 3806TIP3    H132909   2.693   5.417  13.452  0.2921  0.9443 -2.1187
 3806TIP3    H232910   2.648   5.349  13.324 -0.9799 -2.5327  0.1020
 3807TIP3   OH232911   6.511   6.126   0.528  0.0059  0.3107  0.2331
 3807TIP3    H132912   6.602   6.108   0.506 -0.1278 -0.3181  0.1802
 3807TIP3    H232913   6.496   6.216   0.498 -0.0109 -0.3371 -1.7348
 3808TIP3   OH232914   0.188   0.353  14.503  0.4415 -0.1243  0.4163
 3808TIP3    H132915   0.149   0.332  14.587 -1.4119 -0.4375 -0.4902
 3808TIP3    H232916   0.211   0.268  14.465  1.0899  0.0040  0.5072
 3809TIP3   OH232917   4.293   5.679  11.467  0.3996  0.4254 -0.1865
 3809TIP3    H132918   4.264   5.768  11.485 -1.4279 -0.5668  2.1664
 3809TIP3    H232919   4.334   5.683  11.381  1.3632  3.7398  0.3539
 3810TIP3   OH232920   5.387   1.188   3.092  0.2000 -0.3808 -0.2863
 3810TIP3    H132921   5.421   1.228   3.012  1.9605 -0.8141  0.2263
 3810TIP3    H232922   5.354   1.103   3.064 -1.1760  0.3473 -0.9202
 3811TIP3   OH232923   4.283   6.127  13.645  0.2231  0.6390  0.5256
 3811TIP3    H132924   4.242   6.159  13.725 -0.1130 -0.3108  0.7332
 3811TIP3    H232925   4.234   6.168  13.574 -1.0881 -0.4980  0.7699
 3812TIP3   OH232926   3.077   5.612   4.194  0.4281  0.3886  0.2737
 3812TIP3    H132927   3.073   5.534   4.139 -3.2787 -0.4867  1.6866
 3812TIP3    H232928   3.140   5.590   4.263  1.3523 -0.3335 -0.7880
 3813TIP3   OH232929   1.034   5.190   1.083 -0.4510  0.0164  0.2202
 3813TIP3    H132930   0.975   5.128   1.041 -0.6435  0.7241 -0.5616
 3813TIP3    H232931   1.122   5.158   1.062 -0.5499 -0.0248 -0.1277
 3814TIP3   OH232932   6.703   5.387   3.423 -0.1279  0.1733  0.2054
 3814TIP3    H132933   6.691   5.429   3.508 -1.2404  1.3176 -0.4923
 3814TIP3    H232934   6.617   5.390   3.382  0.1115 -1.5355 -0.4493
 3815TIP3   OH232935   5.137   0.483  13.719  0.1902  0.2186  0.7282
 3815TIP3    H132936   5.079   0.539  13.769 -0.4677 -0.3528  0.6167
 3815TIP3    H232937   5.130   0.515  13.629 -1.3136 -0.9566  0.4102
 3816TIP3   OH232938   3.988   5.977   6.512  0.3291 -0.2324 -0.2748
 3816TIP3    H132939   4.066   5.970   6.456  1.2393 -1.6546  1.1221
 3816TIP3    H232940   4.014   6.039   6.580 -0.4093  0.6793 -0.8116
 3817TIP3   OH232941   2.112   0.145  12.003  0.3007 -0.2805  0.2413
 3817TIP3    H132942   2.204   0.129  11.984  0.7282  0.7883  1.3373
 3817TIP3    H232943   2.079   0.061  12.036  1.1312 -0.4012  0.7820
 3818TIP3   OH232944   3.471   3.768   0.836  0.1921  0.4393 -0.2696
 3818TIP3    H132945   3.536   3.745   0.902  0.6238 -0.2258 -0.9132
 3818TIP3    H232946   3.501   3.723   0.756  1.0059  3.1273 -1.5499
 3819TIP3   OH232947   4.023   4.553  14.229  0.2385 -0.5758  0.6130
 3819TIP3    H132948   4.042   4.460  14.230 -0.6033 -0.7472  0.7051
 3819TIP3    H232949   4.026   4.579  14.322 -1.9133 -1.0063  0.8261
 3820TIP3   OH232950   5.743   2.360   5.228 -0.2304 -0.2156  0.0081
 3820TIP3    H132951   5.653   2.343   5.201 -0.3264  1.5013 -0.7750
 3820TIP3    H232952   5.736   2.395   5.317 -0.2890 -0.5818  0.1494
 3821TIP3   OH232953   2.682   6.175   2.907 -0.3799 -0.9868 -0.4446
 3821TIP3    H132954   2.699   6.092   2.952 -0.3746 -0.9819 -0.4369
 3821TIP3    H232955   2.745   6.177   2.836  0.9203 -0.1159  0.7031
 3822TIP3   OH232956   6.453   6.555  12.996  0.2394 -0.6646 -0.1538
 3822TIP3    H132957   6.541   6.517  13.001  0.2655 -0.8961 -1.9592
 3822TIP3    H232958   6.398   6.484  12.963 -0.0090  0.3412 -2.0009
 3823TIP3   OH232959   1.653   3.102   5.881  0.1217  0.1262  0.1488
 3823TIP3    H132960   1.692   3.122   5.796  1.0689  1.5154  0.8981
 3823TIP3    H232961   1.650   3.185   5.927 -2.3152 -0.2380  0.7231
 3824TIP3   OH232962   0.601   3.653  15.916  0.3785  0.2400 -0.1454
 3824TIP3    H132963   0.522   3.625  15.963 -0.4318  0.7011 -1.2227
 3824TIP3    H232964   0.667   3.587  15.940 -1.0659 -1.7021 -1.3451
 3825TIP3   OH232965   1.461   5.010  13.998 -0.0187 -0.1878  0.6174
 3825TIP3    H132966   1.391   5.055  13.951 -0.6351 -2.0911 -0.3183
 3825TIP3    H232967   1.448   5.035  14.090 -0.5128  1.2876  0.1634
 3826TIP3   OH232968   2.270   5.087   4.310  0.4172  0.5308 -0.6830
 3826TIP3    H132969   2.211   5.151   4.351 -1.5622 -2.5681  1.4905
 3826TIP3    H232970   2.215   5.041   4.247  1.0525 -1.0034 -0.1270
 3827TIP3   OH232971   5.480   4.026  16.101  0.0808  0.1925 -0.4084
 3827TIP3    H132972   5.401   4.041  16.049  0.2475  1.2112 -0.3817
 3827TIP3    H232973   5.525   4.110  16.101  1.3164 -0.4643 -0.6604
 3828TIP3   OH232974   4.235   3.505  14.094 -0.3533 -0.1050  0.3183
 3828TIP3    H132975   4.286   3.430  14.122  0.9729  0.8698  0.5342
 3828TIP3    H232976   4.213   3.485  14.002  0.0831 -0.6983  0.3360
 3829TIP3   OH232977   4.356   0.018  12.416 -0.1890  0.6319 -0.3113
 3829TIP3    H132978   4.319   0.104  12.399 -0.5774  0.7844  1.2962
 3829TIP3    H232979   4.310  -0.014  12.494 -0.0600 -1.0333 -0.8909
 3830TIP3   OH232980   2.708   1.709   0.556  0.3454  0.3352  0.5581
 3830TIP3    H132981   2.670   1.788   0.595 -1.1809  0.3635 -0.9439
 3830TIP3    H232982   2.779   1.742   0.501 -1.1726  0.7906 -1.1461
 3831TIP3   OH232983   3.809   1.806  11.581  0.1767 -0.0603 -0.3009
 3831TIP3    H132984   3.756   1.772  11.653 -0.8048 -0.2664 -1.1129
 3831TIP3    H232985   3.817   1.733  11.520 -0.3372  0.5806 -1.1492
 3832TIP3   OH232986   0.390   4.202   1.846 -0.0860  0.2551 -0.2931
 3832TIP3    H132987   0.386   4.213   1.941  3.7943 -1.6146  0.2016
 3832TIP3    H232988   0.458   4.136   1.833  0.8275  1.8758 -4.4600
 3833TIP3   OH232989   4.387   5.350   6.345  0.2073  0.0985  0.5540
 3833TIP3    H132990   4.330   5.377   6.417 -0.8783  0.2783 -0.3575
 3833TIP3    H232991   4.441   5.427   6.326 -0.5486  0.5411  0.1824
 3834TIP3   OH232992   4.631   3.571  15.931 -0.1804  0.0217  0.1311
 3834TIP3    H132993   4.720   3.556  15.899 -0.7615 -0.0829 -1.4543
 3834TIP3    H232994   4.632   3.537  16.020  1.0501 -1.0421 -0.2705
 3835TIP3   OH232995   0.218   2.615   1.229  0.2166  0.1342  0.0165
 3835TIP3    H132996   0.170   2.646   1.306  0.4877  0.7589 -0.0624
 3835TIP3    H232997   0.212   2.519   1.234 -1.7785  0.2029 -0.4443
 3836TIP3   OH232998   2.643   2.598   6.683  0.3293  0.3714  0.1834
 3836TIP3    H132999   2.630   2.670   6.622 -1.2684  0.0313  0.1074
 3836TIP3    H233000   2.710   2.544   6.642 -0.0910  0.6182 -0.8464
 3837TIP3   OH233001   3.665   2.204  13.618 -0.2064 -0.0035  0.1709
 3837TIP3    H133002   3.614   2.188  13.538 -1.2134  0.2146  0.7538
 3837TIP3    H233003   3.722   2.128  13.626 -2.5898 -1.7437  1.1309
 3838TIP3   OH233004   2.044   3.584   5.787 -0.2443 -0.3896  0.1041
 3838TIP3    H133005   2.101   3.522   5.834  1.7701  0.4195 -1.1685
 3838TIP3    H233006   2.102   3.624   5.723 -1.4438  3.0121  1.0614
 3839TIP3   OH233007   1.720   1.968   0.044  0.0617 -0.1540  0.0280
 3839TIP3    H133008   1.766   1.983  -0.039  1.2699  1.0838  0.8861
 3839TIP3    H233009   1.685   2.054   0.067  1.1622 -0.1130  1.6228
 3840TIP3   OH233010   0.600   1.524  12.849 -0.1793  0.7084 -0.0972
 3840TIP3    H133011   0.536   1.455  12.865 -0.3244  0.5674 -1.2848
 3840TIP3    H233012   0.619   1.559  12.936  0.0504 -0.9596  0.5483
 3841TIP3   OH233013   0.533   5.512  16.276 -0.1507  0.4958  0.2019
 3841TIP3    H133014   0.515   5.566  16.199 -1.1053 -0.6093 -0.3543
 3841TIP3    H233015   0.453   5.518  16.328  0.3108  0.8397  0.8862
 3842TIP3   OH233016   0.270   0.070   0.434 -0.1469 -0.2849 -0.0825
 3842TIP3    H133017   0.339   0.049   0.372  0.9483 -0.7473  1.2709
 3842TIP3    H233018   0.222   0.143   0.393  1.8169  0.7890 -0.5174
 3843TIP3   OH233019   5.537   2.055  17.258 -0.0203  0.2216 -0.0605
 3843TIP3    H133020   5.601   2.115  17.296  0.8735 -0.6316 -0.1832
 3843TIP3    H233021   5.502   2.007  17.332  0.1559  0.0445 -0.0912
 3844TIP3   OH233022   5.962   5.090  15.081  0.4963  0.3736  0.4244
 3844TIP3    H133023   5.942   5.109  15.172 -0.7687 -0.5578  0.3483
 3844TIP3    H233024   5.884   5.046  15.047  1.7021 -1.0919 -0.5620
 3845TIP3   OH233025   2.302   1.775  15.185 -0.0808  0.0202 -0.2134
 3845TIP3    H133026   2.327   1.860  15.221  0.3831 -0.7314  1.3207
 3845TIP3    H233027   2.385   1.726  15.181 -0.7110 -1.2697  1.5309
 3846TIP3   OH233028   5.613   3.596  17.157 -0.7555  0.1713  0.0160
 3846TIP3    H133029   5.614   3.535  17.084  0.0458  1.0298 -0.7028
 3846TIP3    H233030   5.532   3.645  17.148 -0.1775  0.9742 -0.8919
 3847TIP3   OH233031   3.815   6.369   3.714  0.4143  0.2076  0.5275
 3847TIP3    H133032   3.777   6.379   3.801  1.1420 -0.5629  0.9420
 3847TIP3    H233033   3.907   6.395   3.724  0.7991 -0.9939  0.2663
 3848TIP3   OH233034   5.634   0.638  12.485 -0.5722  0.6259 -0.6460
 3848TIP3    H133035   5.678   0.559  12.517 -0.9534  0.5159 -0.3960
 3848TIP3    H233036   5.692   0.672  12.417 -0.2714  0.2848 -0.5591
 3849TIP3   OH233037   0.035   6.429   5.105  0.1601  0.0858  0.0670
 3849TIP3    H133038  -0.016   6.510   5.106 -0.3597 -0.2222 -0.8131
 3849TIP3    H233039   0.030   6.398   5.015  0.2001 -1.0171  0.4265
 3850TIP3   OH233040   0.906   0.424   5.662  0.3359 -0.2561 -0.3706
 3850TIP3    H133041   0.818   0.412   5.697  1.3449 -0.2158  2.2700
 3850TIP3    H233042   0.939   0.335   5.650 -0.6323 -0.3289 -3.0542
 3851TIP3   OH233043   6.103   4.708  16.458  1.0626  0.1755  0.3856
 3851TIP3    H133044   6.148   4.791  16.441  1.2778  0.2587  1.3016
 3851TIP3    H233045   6.155   4.666  16.527  0.6332 -0.4593  0.3303
 3852TIP3   OH233046   5.647   0.687  15.467 -0.1106 -0.4996  0.2014
 3852TIP3    H133047   5.735   0.697  15.505  0.9831 -2.5103 -1.6463
 3852TIP3    H233048   5.614   0.605  15.503 -0.3810 -0.7878 -0.6931
 3853TIP3   OH233049   6.522   3.253   4.115  0.3916 -0.0878 -0.1604
 3853TIP3    H133050   6.504   3.183   4.052  1.7458 -0.4918 -0.1307
 3853TIP3    H233051   6.436   3.279   4.148 -0.1292 -1.7908 -0.1204
 3854TIP3   OH233052   6.790   3.696   5.058 -0.1528 -0.6647  0.4291
 3854TIP3    H133053   6.842   3.670   4.982  0.6221 -0.3286  0.8374
 3854TIP3    H233054   6.818   3.786   5.076 -1.1931 -0.3306  0.3814
 3855TIP3   OH233055   2.355   4.212  15.665 -0.5643 -0.1974 -0.0656
 3855TIP3    H133056   2.343   4.117  15.668 -0.6106 -0.1919 -0.0911
 3855TIP3    H233057   2.415   4.226  15.592  0.1005 -0.2745  0.4526
 3856TIP3   OH233058   0.014   2.714   0.584 -0.0012 -0.1752  0.3057
 3856TIP3    H133059   0.023   2.806   0.606 -0.4093 -0.3305  1.1334
 3856TIP3    H233060   0.104   2.679   0.587 -0.0573 -0.2095  1.7966
 3857TIP3   OH233061   0.629   6.566  11.337  0.8389  0.1167 -0.4613
 3857TIP3    H133062   0.576   6.506  11.390  2.0904 -0.7775 -0.2052
 3857TIP3    H233063   0.654   6.515  11.260 -0.7901  1.3389 -1.8688
 3858TIP3   OH233064   6.010   2.694   4.840  0.9273  0.1995  0.9227
 3858TIP3    H133065   5.954   2.744   4.901  0.3173  0.4621  0.1546
 3858TIP3    H233066   6.078   2.756   4.814 -1.1033  1.3618 -1.7650
 3859TIP3   OH233067   2.093   5.005   5.541  0.7532 -0.2644 -0.3739
 3859TIP3    H133068   2.088   5.086   5.592 -0.6044 -0.4144 -0.2318
 3859TIP3    H233069   2.051   4.940   5.598  0.6400 -0.7639 -1.0356
 3860TIP3   OH233070   5.898   6.510   4.601  0.2365  0.1502 -0.0722
 3860TIP3    H133071   5.870   6.564   4.674 -0.4251 -0.4787  0.1506
 3860TIP3    H233072   5.892   6.567   4.524  0.2519  0.6006  0.2622
 3861TIP3   OH233073   6.549   5.729  12.715  0.1078  0.2479  1.1359
 3861TIP3    H133074   6.590   5.698  12.634  1.3063  2.0337  1.0162
 3861TIP3    H233075   6.558   5.655  12.776  1.6249 -0.1738  0.4456
 3862TIP3   OH233076   2.495   0.973   1.720  0.5014 -0.8920 -0.0682
 3862TIP3    H133077   2.421   0.942   1.669  0.5599 -0.7531 -0.2371
 3862TIP3    H233078   2.546   0.894   1.740  2.3715 -0.5598 -3.2085
 3863TIP3   OH233079   0.361   2.328  16.029  0.0839  0.4789  0.0858
 3863TIP3    H133080   0.393   2.308  15.941  1.3175 -0.4931  0.7299
 3863TIP3    H233081   0.269   2.301  16.027  0.7898 -2.0903 -0.1401
 3864TIP3   OH233082   2.523   0.611  11.896 -0.8346 -0.2491 -0.4390
 3864TIP3    H133083   2.506   0.696  11.938  0.9317  0.2513 -0.6936
 3864TIP3    H233084   2.484   0.547  11.955  0.6266  0.5332  1.4387
 3865TIP3   OH233085   3.349   4.983  16.297  0.6454  0.2961 -0.2300
 3865TIP3    H133086   3.332   4.997  16.390  0.0616 -1.3532 -0.0552
 3865TIP3    H233087   3.266   5.005  16.254  0.4503 -0.3509 -0.1934
 3866TIP3   OH233088   1.534   5.627  14.117  0.0849 -0.2186 -0.3401
 3866TIP3    H133089   1.472   5.676  14.171 -0.5203 -0.3189 -0.9366
 3866TIP3    H233090   1.583   5.694  14.069  0.4792 -0.1376  0.1632
 3867TIP3   OH233091   4.884   3.560  15.841  0.3370  0.3989  0.1023
 3867TIP3    H133092   4.937   3.503  15.896  0.2195  0.9151  0.7589
 3867TIP3    H233093   4.928   3.560  15.756  0.3032 -0.7068  0.0882
 3868TIP3   OH233094   5.102   3.957  17.142 -0.1649 -0.0217 -0.0479
 3868TIP3    H133095   5.089   4.030  17.081  0.1313  0.0367 -0.0437
 3868TIP3    H233096   5.189   3.923  17.119  0.1617  0.3197  0.6706
 3869TIP3   OH233097   4.427   1.173  11.671 -0.4802 -0.2315 -0.1048
 3869TIP3    H133098   4.443   1.193  11.763  4.1443 -0.7987 -0.6813
 3869TIP3    H233099   4.508   1.198  11.626 -1.9442 -1.6822 -3.7416
 3870TIP3   OH233100   2.834   6.627   3.452 -0.2956  0.1914 -0.4315
 3870TIP3    H133101   2.892   6.563   3.411 -1.2377  0.3716 -2.0787
 3870TIP3    H233102   2.826   6.697   3.388 -0.6808  1.1459  0.6384
 3871TIP3   OH233103   3.558   4.815  10.324 -0.2788 -0.0786 -0.2702
 3871TIP3    H133104   3.491   4.828  10.257 -0.2173  0.9359 -0.1474
 3871TIP3    H233105   3.534   4.876  10.394  0.3682 -0.2313  0.0911
 3872TIP3   OH233106   3.974   4.914  10.157  0.2215  0.0497  0.1419
 3872TIP3    H133107   3.961   5.008  10.171  0.9477  0.3510 -1.1280
 3872TIP3    H233108   4.062   4.907  10.120  1.0731 -1.3514  2.3278
 3873TIP3   OH233109   4.369   2.016  13.702  0.0891  0.2024 -0.0898
 3873TIP3    H133110   4.367   2.070  13.781  1.8237 -0.4307  0.4092
 3873TIP3    H233111   4.431   2.060  13.644 -0.0556 -0.1440 -0.5124
 3874TIP3   OH233112   0.497   3.052   2.979 -0.0598  0.0709  0.0607
 3874TIP3    H133113   0.493   2.976   2.922 -1.1821 -0.0389  0.2629
 3874TIP3    H233114   0.426   3.108   2.949  1.9553  1.9447 -1.3247
 3875TIP3   OH233115   1.575   2.133   2.928 -0.2882  0.1460  0.6144
 3875TIP3    H133116   1.496   2.182   2.906 -0.0497  0.5405  0.6471
 3875TIP3    H233117   1.617   2.116   2.844 -0.9023 -0.8965  0.5082
 3876TIP3   OH233118   3.259   0.741  13.270  0.0003 -0.3340 -0.0011
 3876TIP3    H133119   3.343   0.776  13.298 -0.6694  2.5936 -1.4485
 3876TIP3    H233120   3.276   0.703  13.184 -0.0768 -0.1316 -0.1047
 3877TIP3   OH233121   3.504   2.724   3.459  0.4022  0.2203  0.0074
 3877TIP3    H133122   3.470   2.654   3.515  0.8299 -0.0456 -0.0600
 3877TIP3    H233123   3.586   2.750   3.500 -0.0457  1.0948  0.3596
 3878TIP3   OH233124   1.900   0.989   6.095  0.1959 -0.8348  0.2388
 3878TIP3    H133125   1.954   1.048   6.147  0.8419 -0.9932 -0.2425
 3878TIP3    H233126   1.874   0.920   6.156  0.4313 -0.6867  0.5054
 3879TIP3   OH233127   5.416   6.401   1.660 -0.0111  0.6678 -0.0598
 3879TIP3    H133128   5.411   6.495   1.643 -1.9641  0.3385 -1.5871
 3879TIP3    H233129   5.325   6.374   1.671  0.4929 -1.1199 -0.0898
 3880TIP3   OH233130   0.823   2.104  13.504  0.0282 -0.3757 -0.3944
 3880TIP3    H133131   0.860   2.016  13.506  0.1756 -0.3325 -1.1547
 3880TIP3    H233132   0.838   2.138  13.592  0.0244 -1.0885 -0.1157
 3881TIP3   OH233133   1.176   2.535  11.908 -0.2800 -0.8973 -0.1509
 3881TIP3    H133134   1.264   2.505  11.884 -0.5186 -1.5591 -0.2079
 3881TIP3    H233135   1.125   2.455  11.918 -0.0535 -0.7040  3.1535
 3882TIP3   OH233136   1.451   4.810  13.819 -0.0311 -0.1112  0.2928
 3882TIP3    H133137   1.463   4.896  13.858 -3.7575 -0.2815  1.9854
 3882TIP3    H233138   1.414   4.827  13.733 -0.9847 -0.0284  0.7209
 3883TIP3   OH233139   1.029   4.488  12.692  0.3829  0.2479 -0.1675
 3883TIP3    H133140   0.987   4.435  12.761  1.4246 -2.6036 -1.6347
 3883TIP3    H233141   0.958   4.511  12.633  0.4550 -2.9548 -1.6245
 3884TIP3   OH233142   5.807   4.584   2.029 -0.1318 -0.1347  0.0209
 3884TIP3    H133143   5.737   4.636   2.069 -1.1315 -1.9596  0.6623
 3884TIP3    H233144   5.763   4.511   1.987  1.2128 -0.0963 -1.5343
 3885TIP3   OH233145   5.452   2.108  14.292  0.0713  0.0304  0.2201
 3885TIP3    H133146   5.375   2.144  14.334  0.1922 -0.4549  0.8670
 3885TIP3    H233147   5.482   2.039  14.352  1.2147  0.4645  0.1532
 3886TIP3   OH233148   3.048   3.324  14.056 -0.1520  0.3422 -1.0009
 3886TIP3    H133149   3.020   3.238  14.025 -1.3699  0.1320  0.5550
 3886TIP3    H233150   3.051   3.314  14.152  0.1263  1.8925 -0.8418
 3887TIP3   OH233151   1.116   6.169  16.118  0.0934  1.0458  0.6105
 3887TIP3    H133152   1.090   6.179  16.027 -2.0069 -1.2810  0.8977
 3887TIP3    H233153   1.126   6.075  16.130  1.2941  1.3996  2.5317
 3888TIP3   OH233154   4.086   4.948  15.166  0.9828 -0.0404  0.3136
 3888TIP3    H133155   4.112   4.958  15.074 -0.1353  1.5428  0.1386
 3888TIP3    H233156   3.990   4.940  15.163  1.1407 -2.7816  1.1604
 3889TIP3   OH233157   6.747   6.588  12.813 -1.0092  0.0378 -0.4442
 3889TIP3    H133158   6.712   6.676  12.796 -0.8482  0.1291 -0.3073
 3889TIP3    H233159   6.810   6.601  12.885 -1.5698 -0.3151  0.1112
 3890TIP3   OH233160   3.115   4.118   0.610  1.0802  0.2877 -0.0096
 3890TIP3    H133161   3.198   4.076   0.633  1.4228  0.5489 -0.7401
 3890TIP3    H233162   3.075   4.060   0.546  0.0683 -0.5050  1.3088
 3891TIP3   OH233163   5.545   5.253  15.815 -0.2244 -0.0955 -0.5523
 3891TIP3    H133164   5.536   5.345  15.839 -0.5073 -0.0131 -0.9640
 3891TIP3    H233165   5.458   5.215  15.831 -0.1466 -0.2595 -0.5161
 3892TIP3   OH233166   1.374   5.023  14.347  0.0431  0.1194  0.2085
 3892TIP3    H133167   1.440   5.065  14.402  0.4882  0.1028 -0.3166
 3892TIP3    H233168   1.345   5.092  14.287 -0.6564  0.2185  0.6433
 3893TIP3   OH233169   0.146   4.552  13.878  0.4001 -0.1580  0.2287
 3893TIP3    H133170   0.116   4.643  13.878  0.4327 -0.1123  2.2191
 3893TIP3    H233171   0.224   4.553  13.935 -0.2602 -1.6187  1.1781
 3894TIP3   OH233172   5.368   6.787  15.679 -0.6115 -0.5651 -0.2818
 3894TIP3    H133173   5.344   6.856  15.618 -2.5993 -1.4455 -0.5445
 3894TIP3    H233174   5.344   6.822  15.765  2.1618  0.6632  0.0496
 3895TIP3   OH233175   4.095   6.126   5.338  0.1845  0.1545 -0.4036
 3895TIP3    H133176   4.061   6.186   5.405 -1.5565  0.9681 -1.9611
 3895TIP3    H233177   4.170   6.083   5.380  1.0875  2.9400  0.9891
 3896TIP3   OH233178   3.928   3.116   0.100  0.4824  0.1740  0.0148
 3896TIP3    H133179   3.862   3.146   0.038 -1.3803 -1.2547  1.2450
 3896TIP3    H233180   3.910   3.165   0.180  1.5854  0.5315  0.0544
 3897TIP3   OH233181   3.670   5.129  12.629  0.4640  0.4748  0.1154
 3897TIP3    H133182   3.731   5.107  12.559 -0.0079  1.2418 -0.5496
 3897TIP3    H233183   3.606   5.057  12.629  3.3485 -2.2413  3.2182
 3898TIP3   OH233184   6.295   3.376   0.504 -0.2504 -0.4769  0.0134
 3898TIP3    H133185   6.239   3.307   0.470  0.1218 -1.3175  1.0902
 3898TIP3    H233186   6.341   3.336   0.577  0.2512  0.7974  0.4096
 3899TIP3   OH233187   1.132   6.227   4.166 -0.0238 -0.4438  0.1170
 3899TIP3    H133188   1.168   6.313   4.146  1.1483 -0.7891  0.6873
 3899TIP3    H233189   1.172   6.203   4.250  0.7850 -2.1655 -0.7259
 3900TIP3   OH233190   0.907   1.884   2.763 -0.0987  0.7596  0.0009
 3900TIP3    H133191   0.942   1.813   2.710 -0.6109  0.9129 -0.5463
 3900TIP3    H233192   0.943   1.964   2.724  1.3804  0.7527  1.2991
 3901TIP3   OH233193   6.689   2.432  12.841 -0.4684  0.1921  0.3813
 3901TIP3    H133194   6.769   2.484  12.832  0.0695 -0.6515  0.2505
 3901TIP3    H233195   6.618   2.496  12.838  0.2182  0.9738  0.8000
 3902TIP3   OH233196   1.397   5.066  11.922  0.2728 -0.2480 -0.1889
 3902TIP3    H133197   1.316   5.106  11.893  0.1544 -1.2523 -1.2698
 3902TIP3    H233198   1.410   4.992  11.863  2.2060  0.1726 -0.3219
 3903TIP3   OH233199   3.220   6.574  11.840 -0.0571 -0.2040 -0.4960
 3903TIP3    H133200   3.290   6.576  11.775 -0.2272  0.5820 -0.6560
 3903TIP3    H233201   3.215   6.482  11.866  1.1128 -0.2513 -0.3905
 3904TIP3   OH233202   3.061   1.908  13.803  0.4477  0.3141 -0.1752
 3904TIP3    H133203   3.147   1.948  13.808  0.4098  0.5408 -1.2366
 3904TIP3    H233204   3.052   1.858  13.884  2.0143 -0.6132 -0.5648
 3905TIP3   OH233205   0.832   2.604  15.400 -0.0245  0.0994 -0.2538
 3905TIP3    H133206   0.926   2.616  15.396  0.0868  0.3449  2.2711
 3905TIP3    H233207   0.820   2.510  15.413 -0.1196  0.0945 -0.3727
 3906TIP3   OH233208   5.151   4.999   4.223 -0.1505 -0.2629 -0.6126
 3906TIP3    H133209   5.143   4.905   4.243  1.0450 -0.7672 -2.4372
 3906TIP3    H233210   5.103   5.010   4.142 -0.9952  0.8830  0.0375
 3907TIP3   OH233211   1.730   0.822   5.934 -0.3205  0.7979 -0.2170
 3907TIP3    H133212   1.694   0.766   6.003 -0.4179  0.0001 -0.9091
 3907TIP3    H233213   1.785   0.885   5.981 -1.8998  1.4834  0.7684
 3908TIP3   OH233214   2.739   3.923   4.118  0.4621  0.6681  0.3485
 3908TIP3    H133215   2.680   3.904   4.044  0.1657  4.1840 -0.4075
 3908TIP3    H233216   2.696   3.884   4.194  0.0574 -1.7848 -1.0957
 3909TIP3   OH233217   3.804   4.575  13.386 -0.1493 -0.1367  0.2985
 3909TIP3    H133218   3.850   4.556  13.304 -0.0714 -0.9778  0.5285
 3909TIP3    H233219   3.852   4.649  13.424 -0.6503  0.7366 -0.7797
 3910TIP3   OH233220   0.876   4.984   5.124 -0.2495  0.0230  0.2341
 3910TIP3    H133221   0.855   5.062   5.176 -0.0112  0.0337  0.3178
 3910TIP3    H233222   0.883   4.914   5.189 -1.0896 -0.1956  0.0915
 3911TIP3   OH233223   4.557   6.227   3.463  0.1937 -0.3208 -0.3700
 3911TIP3    H133224   4.625   6.192   3.405 -0.4228  1.2603 -2.0902
 3911TIP3    H233225   4.574   6.321   3.465 -0.8639 -0.1455  0.6252
 3912TIP3   OH233226   5.524   5.672   5.252  0.2973 -0.4240  0.0936
 3912TIP3    H133227   5.496   5.593   5.206  1.3627 -1.0148  0.4528
 3912TIP3    H233228   5.460   5.683   5.323  0.5271 -1.3313  0.4390
 3913TIP3   OH233229   2.457   1.640  16.518 -0.0624  0.5758  0.3185
 3913TIP3    H133230   2.490   1.611  16.433 -0.7581  1.7564 -0.3632
 3913TIP3    H233231   2.457   1.735  16.513 -0.6627  0.6447  1.4307
 3914TIP3   OH233232   2.156   0.982  12.750  0.4171  0.3357 -0.2502
 3914TIP3    H133233   2.080   1.004  12.696 -0.7823 -0.5747  1.0408
 3914TIP3    H233234   2.230   1.018  12.702 -0.6857  0.0672 -2.2083
 3915TIP3   OH233235   3.436   0.950  11.576  0.1158  0.3176  0.0514
 3915TIP3    H133236   3.529   0.926  11.574  0.5281  1.6173  1.9509
 3915TIP3    H233237   3.437   1.046  11.582 -1.2898  0.2007  2.6376
 3916TIP3   OH233238   6.278   6.759  14.414 -0.4003  0.2498  0.2691
 3916TIP3    H133239   6.226   6.836  14.391 -0.4737  0.2490  0.4309
 3916TIP3    H233240   6.363   6.773  14.372  0.4625  1.6183  2.3775
 3917TIP3   OH233241   2.552   3.598   2.213 -0.4418  0.6574 -0.2866
 3917TIP3    H133242   2.457   3.602   2.224 -0.5850  1.9681 -1.7826
 3917TIP3    H233243   2.565   3.603   2.118  1.0863 -0.5801 -0.1535
 3918TIP3   OH233244   3.715   3.200  16.894 -0.4465 -0.3975 -0.1902
 3918TIP3    H133245   3.807   3.182  16.909 -0.2602 -0.6366 -1.5355
 3918TIP3    H233246   3.701   3.288  16.927  0.8006  0.5208 -2.0602
 3919TIP3   OH233247   5.802   2.675   1.437  0.1177 -0.0950  0.1678
 3919TIP3    H133248   5.858   2.605   1.402  0.6685 -0.1186  1.0539
 3919TIP3    H233249   5.864   2.736   1.477 -0.4378  0.3655  0.3215
 3920TIP3   OH233250   2.290   3.355  14.164 -0.0309 -0.0755  0.1687
 3920TIP3    H133251   2.221   3.415  14.192 -0.6037 -0.3637 -0.6224
 3920TIP3    H233252   2.309   3.382  14.074 -0.1719 -0.9746 -0.1305
 3921TIP3   OH233253   2.398   1.082  16.284 -0.2268 -0.3135  0.2005
 3921TIP3    H133254   2.388   1.165  16.332  0.7403 -0.4976  0.7209
 3921TIP3    H233255   2.401   1.015  16.352 -2.1314 -0.9062 -0.2632
 3922TIP3   OH233256   5.635   3.006   3.088 -1.1370 -0.1954 -0.2573
 3922TIP3    H133257   5.699   3.077   3.088  0.6028 -1.7443  0.3449
 3922TIP3    H233258   5.551   3.050   3.074 -0.0348  1.9276 -0.3683
 3923TIP3   OH233259   4.174   5.235   3.304 -0.2935  0.2133  0.2401
 3923TIP3    H133260   4.139   5.283   3.229 -0.6668  1.5907  1.2766
 3923TIP3    H233261   4.132   5.276   3.380 -0.2647 -1.4586  1.1737
 3924TIP3   OH233262   0.364   1.450  13.091  0.3517 -0.2912 -0.0603
 3924TIP3    H133263   0.319   1.396  13.025 -0.3369  0.0827  0.0985
 3924TIP3    H233264   0.440   1.398  13.115  1.0084 -0.1151 -1.6879
 3925TIP3   OH233265   2.357   3.933   0.277  0.2287 -0.0760 -0.1332
 3925TIP3    H133266   2.269   3.901   0.260 -0.1028 -0.4328  2.0819
 3925TIP3    H233267   2.415   3.865   0.242 -0.4404 -1.6431  1.7030
 3926TIP3   OH233268   6.582   6.333   1.717  0.3242 -0.3779 -0.0304
 3926TIP3    H133269   6.519   6.355   1.648  1.6700  0.6412 -0.9765
 3926TIP3    H233270   6.586   6.238   1.716 -0.2814 -0.4026 -0.7975
 3927TIP3   OH233271   0.522   0.853  13.444 -0.8638 -0.0173 -0.3854
 3927TIP3    H133272   0.578   0.872  13.519 -0.5122 -0.8615 -0.4314
 3927TIP3    H233273   0.433   0.864  13.478 -0.6887  0.8799 -0.1974
 3928TIP3   OH233274   2.639   6.494  11.349  0.3238  0.6464 -0.4829
 3928TIP3    H133275   2.725   6.521  11.316  1.2346  0.3900  1.5800
 3928TIP3    H233276   2.650   6.402  11.371 -0.2204  0.8254  0.5668
 3929TIP3   OH233277   3.211   6.215   4.963  0.3161 -0.0388  0.1994
 3929TIP3    H133278   3.196   6.227   5.057  2.7356 -1.8108  0.8585
 3929TIP3    H233279   3.199   6.303   4.926 -0.8412  0.6411  2.1233
 3930TIP3   OH233280   5.469   5.301   4.103  0.1019  0.1104 -0.3768
 3930TIP3    H133281   5.393   5.348   4.068 -0.2007  0.4645  0.7470
 3930TIP3    H233282   5.509   5.362   4.165  1.0541 -0.2401 -0.6437
 3931TIP3   OH233283   3.901   1.190  12.951 -0.6044 -0.0530  0.1443
 3931TIP3    H133284   3.955   1.147  12.884 -1.5595 -2.0059  0.5861
 3931TIP3    H233285   3.811   1.172  12.924 -1.0111  0.2267  1.2838
 3932TIP3   OH233286   4.229   4.895  16.102 -0.0139 -0.1638  0.0770
 3932TIP3    H133287   4.207   4.948  16.026 -0.8614 -0.7625 -0.1005
 3932TIP3    H233288   4.169   4.821  16.099  1.2328 -1.2112  0.2595
 3933TIP3   OH233289   5.238   3.547   0.343  0.6163  0.3100 -0.0031
 3933TIP3    H133290   5.277   3.623   0.387 -2.0614  1.7054  0.0645
 3933TIP3    H233291   5.246   3.567   0.250 -1.5688  1.5181  0.0295
 3934TIP3   OH233292   4.706   3.381  10.676 -0.2176 -0.4346  0.7777
 3934TIP3    H133293   4.679   3.291  10.660 -0.1693 -0.8549  2.9193
 3934TIP3    H233294   4.790   3.374  10.720 -0.2103  0.6727  0.9624
 3935TIP3   OH233295   6.347   2.785  15.431  0.3611 -0.2427 -0.8070
 3935TIP3    H133296   6.276   2.759  15.490 -0.3061  0.4528 -1.2866
 3935TIP3    H233297   6.360   2.878  15.450  1.3513 -0.4382 -0.5125
 3936TIP3   OH233298   0.025   6.523   2.260  0.7129 -0.0123  0.0475
 3936TIP3    H133299   0.058   6.526   2.350  1.2622  0.6199 -0.1725
 3936TIP3    H233300  -0.069   6.508   2.270  0.2658  3.0070  0.8419
 3937TIP3   OH233301   5.081   4.376   5.704  0.0964 -0.3376 -0.3722
 3937TIP3    H133302   5.158   4.321   5.686  1.1802  1.3810 -1.1825
 3937TIP3    H233303   5.103   4.421   5.786 -0.5139 -0.6425 -0.0416
 3938TIP3   OH233304   1.052   3.806  10.605 -0.6045  0.8621  0.3981
 3938TIP3    H133305   1.115   3.736  10.625  0.8649  2.1591  0.3862
 3938TIP3    H233306   1.027   3.790  10.514 -0.2525  0.3628  0.3819
 3939TIP3   OH233307   2.355   2.109  14.054 -0.4421  0.0501 -0.0947
 3939TIP3    H133308   2.443   2.147  14.064 -0.4439  0.0795 -0.1888
 3939TIP3    H233309   2.366   2.017  14.080 -0.3407  0.0048 -0.2962
 3940TIP3   OH233310   5.081   2.705   6.491 -0.0829 -0.2570  0.2170
 3940TIP3    H133311   5.042   2.792   6.493 -0.7124 -0.4671 -1.5346
 3940TIP3    H233312   5.175   2.720   6.501 -0.3326  0.4801  1.5590
 3941TIP3   OH233313   1.709   5.966  13.150  0.4695 -0.2362  0.1879
 3941TIP3    H133314   1.623   5.959  13.192  0.5970  0.7673  0.6224
 3941TIP3    H233315   1.736   6.056  13.165  0.1239  0.4441 -2.7964
 3942TIP3   OH233316   3.948   3.270  11.399  0.0376 -0.3001  0.0380
 3942TIP3    H133317   3.917   3.251  11.488  0.0824  1.7078  0.5175
 3942TIP3    H233318   3.995   3.191  11.373  1.5641 -0.2739  2.4983
 3943TIP3   OH233319   1.375   2.726  12.235 -0.9378  0.8005 -0.6896
 3943TIP3    H133320   1.304   2.787  12.256 -0.1316  2.6132 -3.0643
 3943TIP3    H233321   1.375   2.721  12.139  0.9197 -0.6459 -0.6420
 3944TIP3   OH233322   1.781   0.526  11.447  0.3084  0.5703 -0.1977
 3944TIP3    H133323   1.790   0.518  11.352  0.7512  2.5759 -0.3507
 3944TIP3    H233324   1.702   0.579  11.459 -0.4490 -0.7206  0.6008
 3945TIP3   OH233325   3.855   5.511  17.040 -0.2511  0.1436 -0.3107
 3945TIP3    H133326   3.835   5.508  16.946 -1.3114 -1.5353 -0.0694
 3945TIP3    H233327   3.944   5.479  17.047 -0.9051 -1.8073 -0.5907
 3946TIP3   OH233328   2.424   0.284   3.702 -0.7341 -0.2660 -0.3098
 3946TIP3    H133329   2.352   0.222   3.714 -0.2863 -0.4690  1.5557
 3946TIP3    H233330   2.475   0.249   3.629 -0.5304 -2.0800  0.6729
 3947TIP3   OH233331   1.266   4.727  16.264 -0.0205 -0.7544 -0.2323
 3947TIP3    H133332   1.180   4.711  16.225 -1.3561  1.5314  1.6170
 3947TIP3    H233333   1.261   4.683  16.349  0.8523 -1.0491 -0.3348
 3948TIP3   OH233334   6.409   2.626   5.170  0.6785 -0.3251  0.0106
 3948TIP3    H133335   6.450   2.579   5.098 -0.2957 -0.7250 -0.2828
 3948TIP3    H233336   6.380   2.558   5.230  2.8048  0.0398  1.5251
 3949TIP3   OH233337   5.812   1.587   3.664  0.6935 -0.2641  0.0106
 3949TIP3    H133338   5.814   1.647   3.738 -1.5383  1.3896 -1.2237
 3949TIP3    H233339   5.727   1.601   3.624  1.5644 -1.6780 -2.4246
 3950TIP3   OH233340   1.508   2.850  16.683  0.4016  0.6523 -0.1526
 3950TIP3    H133341   1.489   2.944  16.676  0.4947  0.6827  0.0110
 3950TIP3    H233342   1.602   2.845  16.700  0.4865  0.5094 -0.6581
 3951TIP3   OH233343   6.581   2.777   4.533 -0.3355 -0.0338  0.2101
 3951TIP3    H133344   6.519   2.751   4.464  0.0289 -1.7777  0.5011
 3951TIP3    H233345   6.653   2.818   4.486 -0.4141 -0.5673 -0.3881
 3952TIP3   OH233346   4.102   3.658  15.074  0.0303  0.0788  0.4288
 3952TIP3    H133347   4.037   3.597  15.107  0.7699 -0.7628  0.3655
 3952TIP3    H233348   4.055   3.741  15.062 -0.5992 -0.0364  2.0698
 3953TIP3   OH233349   1.350   2.230   2.798  0.2514  0.6309  0.2495
 3953TIP3    H133350   1.327   2.142   2.828  1.0907 -0.2404 -1.5506
 3953TIP3    H233351   1.266   2.272   2.782 -0.1630  0.2193  1.3232
 3954TIP3   OH233352   3.110   1.987   1.724 -0.3406 -0.3889 -0.0649
 3954TIP3    H133353   3.181   2.037   1.765  0.5888 -0.6991 -1.2893
 3954TIP3    H233354   3.032   2.042   1.737 -0.4502 -1.2901  3.7171
 3955TIP3   OH233355   4.660   6.425  12.695  0.2648  0.3060 -0.3619
 3955TIP3    H133356   4.661   6.339  12.737 -0.4054 -1.2849 -3.4185
 3955TIP3    H233357   4.703   6.410  12.610 -1.3653  2.5921 -1.6306
 3956TIP3   OH233358   3.765   1.960  12.686  0.4527 -0.3634 -0.6781
 3956TIP3    H133359   3.859   1.962  12.666  0.6148 -1.6270 -0.1287
 3956TIP3    H233360   3.726   1.916  12.610  0.3540 -0.1575 -0.7449
 3957TIP3   OH233361   0.812   1.690  14.319 -0.5606 -0.3158 -0.4974
 3957TIP3    H133362   0.760   1.610  14.314 -0.4032 -0.6199  2.1631
 3957TIP3    H233363   0.781   1.743  14.245 -2.2656 -1.8794 -0.9415
 3958TIP3   OH233364   1.395   6.603   4.984  0.3719 -0.2601 -0.4156
 3958TIP3    H133365   1.461   6.653   4.936  1.0983 -0.5728  0.2572
 3958TIP3    H233366   1.364   6.537   4.922  1.3325 -0.6880 -0.4427
 3959TIP3   OH233367   6.813   1.458  15.433 -0.6773  0.0180 -0.6113
 3959TIP3    H133368   6.771   1.453  15.347 -3.0740  0.2531  0.5001
 3959TIP3    H233369   6.745   1.492  15.491  0.5353 -1.2064  1.6200
 3960TIP3   OH233370   3.794   2.650  15.930 -0.7107  0.5750 -0.2974
 3960TIP3    H133371   3.783   2.556  15.916 -0.3485  0.4570  0.1828
 3960TIP3    H233372   3.885   2.667  15.905  0.0310  0.3161  2.0426
 3961TIP3   OH233373   1.999   3.080  13.970 -0.1714  0.3665 -0.5393
 3961TIP3    H133374   1.981   3.168  14.004 -2.9445 -0.8658  1.3525
 3961TIP3    H233375   1.912   3.040  13.959  1.0836 -2.4928 -0.4260
 3962TIP3   OH233376   2.497   1.311   3.462 -0.0019  0.7235 -0.2378
 3962TIP3    H133377   2.505   1.403   3.437 -1.2781  0.8989 -0.0379
 3962TIP3    H233378   2.442   1.272   3.394 -1.0975  0.5569  0.7398
 3963TIP3   OH233379   6.755   4.706  13.240  0.0661  0.1802  0.5849
 3963TIP3    H133380   6.746   4.719  13.334 -2.0439  2.4392  0.1488
 3963TIP3    H233381   6.799   4.622  13.230  0.4601  0.0062  3.5773
 3964TIP3   OH233382   5.094   2.291   1.254  0.1060  0.0349  0.3061
 3964TIP3    H133383   5.065   2.230   1.321 -0.8102  0.6123  0.4482
 3964TIP3    H233384   5.041   2.269   1.177  0.2557  0.2083  0.1533
 3965TIP3   OH233385   4.740   4.161   1.913 -0.7277  0.0388 -0.2823
 3965TIP3    H133386   4.785   4.096   1.967  0.3036 -0.1192 -1.3137
 3965TIP3    H233387   4.692   4.109   1.848  0.1537  0.3030 -1.1510
 3966TIP3   OH233388   1.803   3.277   1.207 -0.0104 -0.0775 -0.2614
 3966TIP3    H133389   1.814   3.343   1.138 -0.4187  0.2244 -0.0444
 3966TIP3    H233390   1.806   3.328   1.289  1.5855 -0.5699  0.0011
 3967TIP3   OH233391   6.090   3.159  16.756  0.0706  0.5039  0.2340
 3967TIP3    H133392   6.133   3.073  16.750 -0.9547  0.1612 -3.1393
 3967TIP3    H233393   6.010   3.149  16.704 -1.0842  2.9284  1.4740
 3968TIP3   OH233394   1.999   2.851   5.049 -0.1283 -0.1847  0.3732
 3968TIP3    H133395   2.042   2.770   5.021 -0.5961  0.1663 -1.3961
 3968TIP3    H233396   1.914   2.851   5.005  0.0703  1.5020 -0.0659
 3969TIP3   OH233397   5.068   0.246   2.611  0.2315  0.4163 -0.0134
 3969TIP3    H133398   5.000   0.233   2.677  0.3979  0.3018  0.1369
 3969TIP3    H233399   5.030   0.211   2.530  0.1862  0.1704  0.1115
 3970TIP3   OH233400   5.575   3.203   4.083  0.2088  0.0427  0.1059
 3970TIP3    H133401   5.492   3.156   4.074  0.2172  0.1074 -0.3547
 3970TIP3    H233402   5.629   3.146   4.139 -1.1136  1.3410  2.7661
 3971TIP3   OH233403   5.797   3.968  10.822  0.3817  0.0010 -0.1350
 3971TIP3    H133404   5.737   3.956  10.748  0.0296  0.0675  0.1351
 3971TIP3    H233405   5.751   3.928  10.896  0.3634  0.6525  0.2193
 3972TIP3   OH233406   0.627   1.839  16.847  0.2554  0.0784  0.3740
 3972TIP3    H133407   0.717   1.862  16.869  0.8868 -1.0551 -0.9251
 3972TIP3    H233408   0.600   1.778  16.916  0.6450  0.0690  0.5174
 3973TIP3   OH233409   1.867   1.671   4.204 -0.0080  0.0386  0.0993
 3973TIP3    H133410   1.802   1.665   4.274 -1.9587  0.7630 -1.5934
 3973TIP3    H233411   1.899   1.581   4.194 -0.9516 -0.3885  0.7776
 3974TIP3   OH233412   0.897   1.714  14.578 -0.5718 -0.0438  0.3131
 3974TIP3    H133413   0.844   1.698  14.501 -0.9349 -1.3375  0.8202
 3974TIP3    H233414   0.835   1.746  14.644  0.0031  2.6749 -0.4189
 3975TIP3   OH233415   5.984   2.192  13.829 -0.0927 -0.2121 -0.3777
 3975TIP3    H133416   6.069   2.162  13.860  0.6275 -0.0756 -2.1443
 3975TIP3    H233417   5.976   2.282  13.860  0.3575 -0.2696 -0.1025
 3976TIP3   OH233418   2.738   1.445  13.698 -0.4511  0.1761  0.4371
 3976TIP3    H133419   2.711   1.361  13.736  0.1844  0.1235  0.7742
 3976TIP3    H233420   2.680   1.509  13.738 -0.9645 -0.1083  0.1508
 3977TIP3   OH233421   0.638   5.886  17.224 -0.2195 -0.2921 -0.1404
 3977TIP3    H133422   0.712   5.827  17.242 -0.3120 -0.8284 -1.4136
 3977TIP3    H233423   0.649   5.958  17.286  1.5813 -0.1979 -0.5192
 3978TIP3   OH233424   4.835   4.356  15.161 -0.0996  0.3289  0.5038
 3978TIP3    H133425   4.895   4.294  15.119 -0.6018  0.2208 -0.0696
 3978TIP3    H233426   4.858   4.441  15.124 -1.1712  0.0982 -0.7201
 3979TIP3   OH233427   5.933   4.344   5.939  0.6794  0.1670 -0.4180
 3979TIP3    H133428   6.017   4.352   5.894  2.1164 -1.7045  1.7689
 3979TIP3    H233429   5.946   4.271   6.001 -2.4488  0.0635  0.2061
 3980TIP3   OH233430   3.539   4.648   0.343  0.3263  0.0333  0.0883
 3980TIP3    H133431   3.560   4.736   0.374  1.1728 -0.3955  0.7344
 3980TIP3    H233432   3.548   4.592   0.420 -3.3449 -0.1759  0.4755
 3981TIP3   OH233433   2.607   2.924   6.446 -0.1961 -0.2575 -0.1587
 3981TIP3    H133434   2.631   3.009   6.409  0.4674 -0.1249  0.5552
 3981TIP3    H233435   2.524   2.902   6.404  0.6052 -0.1849 -1.8448
 3982TIP3   OH233436   2.173   2.607   0.530 -0.0175  0.6028 -0.0218
 3982TIP3    H133437   2.146   2.560   0.451  0.4707  0.3644 -0.0495
 3982TIP3    H233438   2.227   2.545   0.578  2.0784  1.6981 -0.8928
 3983TIP3   OH233439   0.849   2.787   1.725 -0.3198  0.5676 -0.3910
 3983TIP3    H133440   0.834   2.715   1.664  1.6302  0.1385 -0.4111
 3983TIP3    H233441   0.821   2.753   1.810 -3.4815  1.3302 -1.0731
 3984TIP3   OH233442   3.366   5.496  16.339 -0.1267 -0.0868  0.3004
 3984TIP3    H133443   3.323   5.418  16.306  0.0817  0.4974 -1.4401
 3984TIP3    H233444   3.419   5.527  16.265  1.5982  0.3941  1.7098
 3985TIP3   OH233445   1.661   4.058   5.922  0.0917 -0.3030  0.1068
 3985TIP3    H133446   1.682   4.135   5.870  0.2812 -0.5320 -0.1600
 3985TIP3    H233447   1.728   4.055   5.990 -1.5584  1.3568  1.8425
 3986TIP3   OH233448   3.747   1.778  13.359  0.3355 -0.0397 -0.7322
 3986TIP3    H133449   3.824   1.762  13.415  0.1127  0.2421 -0.3394
 3986TIP3    H233450   3.673   1.751  13.413  0.1656 -0.4224 -1.1556
 3987TIP3   OH233451   0.081   3.871   1.849 -0.0493  0.1536 -0.0862
 3987TIP3    H133452   0.111   3.911   1.930  0.1165 -0.3294  0.0907
 3987TIP3    H233453   0.160   3.860   1.796 -0.1251  0.2606 -0.2242
 3988TIP3   OH233454   1.095   3.561  15.078 -0.4259 -0.0188  0.0648
 3988TIP3    H133455   1.049   3.477  15.082 -0.3694 -0.0335  0.4413
 3988TIP3    H233456   1.096   3.584  14.985 -0.3982 -0.4581 -0.0434
 3989TIP3   OH233457   1.678   2.680   3.739  0.4551  0.6191  0.2085
 3989TIP3    H133458   1.666   2.597   3.784  0.5771 -0.1348 -1.1011
 3989TIP3    H233459   1.674   2.657   3.646  1.8139  1.8693 -0.1873
 3990TIP3   OH233460   0.938   2.775   5.027 -0.2063  0.3479  0.2468
 3990TIP3    H133461   0.903   2.846   4.973 -0.7740 -0.5410 -0.5926
 3990TIP3    H233462   1.018   2.748   4.982 -0.5131 -0.1849  0.0081
 3991TIP3   OH233463   5.984   3.418   0.532  0.3104  0.6447 -0.5221
 3991TIP3    H133464   5.900   3.385   0.564  0.3543 -0.6122 -1.6727
 3991TIP3    H233465   6.015   3.350   0.472  1.0429  2.1736 -1.8981
 3992TIP3   OH233466   5.410   2.425   3.506 -0.8182  0.1577 -0.0055
 3992TIP3    H133467   5.437   2.448   3.417 -0.2772  2.1924  0.6609
 3992TIP3    H233468   5.464   2.349   3.529  1.0005  1.2824 -0.4299
 3993TIP3   OH233469   2.487   6.467   5.483 -0.6206 -0.1323  0.3468
 3993TIP3    H133470   2.422   6.537   5.488 -1.7213 -1.1315  0.4215
 3993TIP3    H233471   2.439   6.388   5.510  0.3416 -1.0753 -0.6490
 3994TIP3   OH233472   0.570   4.592  13.302  0.1864 -0.6565 -0.3575
 3994TIP3    H133473   0.606   4.542  13.229  0.6046  0.2520 -0.7772
 3994TIP3    H233474   0.621   4.673  13.303  0.4479 -0.8301  1.1856
 3995TIP3   OH233475   4.153   4.010  12.916 -0.3310  0.3345  0.3869
 3995TIP3    H133476   4.130   4.057  12.836 -1.0019 -3.0476 -1.4878
 3995TIP3    H233477   4.083   3.946  12.927  2.1575 -2.3751  1.0699
 3996TIP3   OH233478   0.424   3.998  12.382 -0.2421  0.1832 -0.0263
 3996TIP3    H133479   0.441   3.904  12.394 -0.7169  0.0237 -0.6023
 3996TIP3    H233480   0.342   4.001  12.333 -1.1681  0.9407  1.5357
 3997TIP3   OH233481   4.785   6.077   3.318  0.5162  0.2977 -0.3591
 3997TIP3    H133482   4.791   6.072   3.223  0.1853  1.6221 -0.4526
 3997TIP3    H233483   4.828   6.160   3.341  0.8660 -0.1547  0.6724
 3998TIP3   OH233484   4.522   2.682  11.718 -0.3260 -0.5640 -0.4206
 3998TIP3    H133485   4.575   2.720  11.788 -0.8651 -3.0930  1.4082
 3998TIP3    H233486   4.582   2.626  11.669 -0.9778 -2.3194  0.7824
 3999TIP3   OH233487   4.508   0.734   0.512 -0.3271 -0.1669 -0.6100
 3999TIP3    H133488   4.498   0.639   0.510  1.2772 -0.3496 -0.9036
 3999TIP3    H233489   4.589   0.748   0.561 -0.7655  1.0724 -0.2347
 4000TIP3   OH233490   1.738   4.225  14.350 -0.2628  0.3010 -0.5096
 4000TIP3    H133491   1.698   4.266  14.274 -0.3658  2.3334  0.6073
 4000TIP3    H233492   1.762   4.137  14.320 -1.7554  0.4979 -2.4063
 4001TIP3   OH233493   6.746   3.774   5.469  0.3800  0.1178 -0.1533
 4001TIP3    H133494   6.738   3.701   5.408 -1.8825  1.2943 -1.3105
 4001TIP3    H233495   6.723   3.738   5.555 -1.7508 -0.2823 -0.8898
 4002TIP3   OH233496   3.699   4.330  15.512 -0.2996 -0.0791  0.6070
 4002TIP3    H133497   3.767   4.269  15.541  3.1105  2.2167 -2.1733
 4002TIP3    H233498   3.692   4.394  15.582  0.3983 -0.3724  0.9513
 4003TIP3   OH233499   0.616   5.531   6.860 -0.2085  0.2964  0.5352
 4003TIP3    H133500   0.698   5.570   6.831  0.0621  0.6591  1.7266
 4003TIP3    H233501   0.640   5.481   6.939 -1.2508  1.0377  1.3368
 4004TIP3   OH233502   3.346   5.446   0.671 -0.0920  0.2921  0.1510
 4004TIP3    H133503   3.359   5.397   0.589 -0.4582 -0.4193  0.5189
 4004TIP3    H233504   3.417   5.417   0.728 -0.0581  0.5060  0.2162
 4005TIP3   OH233505   2.401   1.562   2.827  0.3587  0.9976  0.1529
 4005TIP3    H133506   2.319   1.586   2.783  0.4901 -0.7310 -1.1068
 4005TIP3    H233507   2.385   1.582   2.920 -1.8283 -0.1254  0.0642
 4006TIP3   OH233508   3.322   3.330  12.884 -0.0584 -0.0589 -0.3360
 4006TIP3    H133509   3.233   3.301  12.905  0.4319 -0.3217  1.4321
 4006TIP3    H233510   3.379   3.274  12.936  1.1509  0.1401 -1.4276
 4007TIP3   OH233511   3.067   0.864  11.861 -0.3270  0.2870 -0.1657
 4007TIP3    H133512   3.093   0.933  11.923 -1.3499 -0.2831  0.9266
 4007TIP3    H233513   2.994   0.901  11.812 -0.4371  0.2342 -0.0427
 4008TIP3   OH233514   3.563   1.898  17.031  0.6844  0.2114  0.9896
 4008TIP3    H133515   3.643   1.939  16.997  1.3221 -2.0190 -0.2879
 4008TIP3    H233516   3.593   1.836  17.097 -0.0421 -0.0791  1.0557
 4009TIP3   OH233517   2.180   0.285  15.204 -0.6293 -0.1696 -0.0666
 4009TIP3    H133518   2.246   0.216  15.198  0.4553  0.7885  0.6015
 4009TIP3    H233519   2.111   0.247  15.258  0.4042 -0.4205  1.1341
 4010TIP3   OH233520   1.607   0.902   1.358 -0.4717 -0.6824 -0.7350
 4010TIP3    H133521   1.678   0.958   1.390 -1.2622 -0.2022  0.2287
 4010TIP3    H233522   1.648   0.817   1.343  0.6772  0.0670 -1.9028
 4011TIP3   OH233523   4.932   6.081  17.002  0.0502  0.1331 -0.1679
 4011TIP3    H133524   4.944   5.989  17.027 -0.3594  0.4567  1.2427
 4011TIP3    H233525   4.868   6.079  16.931 -1.1380 -0.5542  0.9112
 4012TIP3   OH233526   0.461   0.871  11.263  0.6115 -0.0120  0.3587
 4012TIP3    H133527   0.491   0.941  11.205  1.6557 -0.8175 -0.0849
 4012TIP3    H233528   0.506   0.792  11.231 -0.3230 -0.8299  1.0307
 4013TIP3   OH233529   3.690   5.209  15.672  0.0257 -0.2107 -0.0241
 4013TIP3    H133530   3.765   5.251  15.715  0.1577  0.2153 -0.6607
 4013TIP3    H233531   3.706   5.115  15.682 -0.5475 -0.1365  1.9037
 4014TIP3   OH233532   2.859   2.962   1.145  0.2999 -0.1777  0.0217
 4014TIP3    H133533   2.801   3.018   1.195  0.8587  0.9959 -0.6349
 4014TIP3    H233534   2.802   2.913   1.086 -0.2328 -0.6529  0.9357
 4015TIP3   OH233535   5.327   5.621   6.472  0.5830  0.0781 -0.2893
 4015TIP3    H133536   5.302   5.708   6.503 -0.7501 -0.6539  0.7368
 4015TIP3    H233537   5.408   5.635   6.424  0.5129  1.8514  0.0806
 4016TIP3   OH233538   0.281   0.124  13.233  0.4186  0.1181 -0.1975
 4016TIP3    H133539   0.332   0.172  13.298 -2.3902  3.0827 -0.0486
 4016TIP3    H233540   0.220   0.071  13.284  0.3266  0.0281 -0.3997
 4017TIP3   OH233541   5.368   2.054  13.507  0.1785  0.6237  0.1956
 4017TIP3    H133542   5.406   2.010  13.583  0.5989 -0.7571 -0.7783
 4017TIP3    H233543   5.355   1.983  13.443  0.9595  1.9317 -1.4555
 4018TIP3   OH233544   6.231   2.669  13.277  0.6486  0.5399 -0.1530
 4018TIP3    H133545   6.148   2.713  13.259  0.8806  1.0507  0.0198
 4018TIP3    H233546   6.211   2.576  13.268  0.6210  0.7371 -2.4843
 4019TIP3   OH233547   1.134   0.178  11.118 -0.2299  0.4560  0.1369
 4019TIP3    H133548   1.192   0.214  11.185 -0.0066  0.7260 -0.1975
 4019TIP3    H233549   1.192   0.163  11.043  0.6689 -4.9216  1.6992
 4020TIP3   OH233550   6.338   2.198  13.704  0.3275  0.3334  0.0561
 4020TIP3    H133551   6.292   2.277  13.675  1.7984  1.3074  0.2590
 4020TIP3    H233552   6.384   2.167  13.625  0.7121  0.3888  0.2538
 4021TIP3   OH233553   5.531   0.651  14.978  0.1417 -0.0699  0.2547
 4021TIP3    H133554   5.546   0.694  15.062 -1.8731  0.3355  0.4311
 4021TIP3    H233555   5.528   0.557  14.999  0.7680 -0.0468  0.4530
 4022TIP3   OH233556   5.034   0.683  13.897 -0.7895  0.3404  0.2918
 4022TIP3    H133557   4.969   0.737  13.851  0.3264  2.5726  1.2380
 4022TIP3    H233558   5.027   0.711  13.988  1.9089  1.1024  0.3080
 4023TIP3   OH233559   3.979   3.970  12.104 -0.3067 -0.1636  0.0831
 4023TIP3    H133560   3.982   3.941  12.195 -1.6068 -4.8166 -1.2473
 4023TIP3    H233561   4.071   3.987  12.081  0.0155  1.0968  2.2361
 4024TIP3   OH233562   6.034   2.570   3.659  0.3116 -0.2250 -0.1312
 4024TIP3    H133563   5.989   2.490   3.687 -1.6203  0.0611 -2.2944
 4024TIP3    H233564   6.102   2.539   3.599 -0.9395 -0.2295 -1.5837
 4025TIP3   OH233565   2.631   4.450  14.240  0.1137 -0.1179 -0.1284
 4025TIP3    H133566   2.587   4.471  14.157 -2.1483 -1.9180  0.5743
 4025TIP3    H233567   2.709   4.401  14.214  1.8979  3.1731 -1.3946
 4026TIP3   OH233568   5.519   5.654  11.012  0.3085  0.3967  0.0631
 4026TIP3    H133569   5.492   5.606  10.934 -0.5416 -0.3337  0.7949
 4026TIP3    H233570   5.443   5.650  11.071  0.6842  1.5211  0.6595
 4027TIP3   OH233571   4.693   2.402   4.248  0.5407  0.5848  0.7196
 4027TIP3    H133572   4.653   2.439   4.326  0.7801  1.0236  0.6346
 4027TIP3    H233573   4.788   2.411   4.262  0.5804  0.9405  0.2513
 4028TIP3   OH233574   4.461   6.601   5.314  0.4165  0.5113  0.0620
 4028TIP3    H133575   4.485   6.523   5.264 -0.6888 -1.4848  2.5347
 4028TIP3    H233576   4.523   6.604   5.386 -2.8067 -1.2741  3.0854
 4029TIP3   OH233577   4.234   3.721  12.961  0.3635  0.2028 -0.4210
 4029TIP3    H133578   4.227   3.746  12.869 -1.6451 -0.5060 -0.4725
 4029TIP3    H233579   4.157   3.758  13.003  0.2255 -1.1609  0.5795
 4030TIP3   OH233580   0.436   1.778   4.439 -0.1329  0.2486 -0.6712
 4030TIP3    H133581   0.520   1.820   4.422 -0.6158  0.9309 -1.3996
 4030TIP3    H233582   0.371   1.842   4.412 -0.8840 -0.8007 -1.3923
 4031TIP3   OH233583   0.961   2.199   1.297  0.1783 -0.0220 -0.0786
 4031TIP3    H133584   0.928   2.184   1.386  0.0233  0.0368 -0.1254
 4031TIP3    H233585   0.981   2.293   1.295 -3.0175  0.7034 -1.1549
 4032TIP3   OH233586   0.576   6.226   1.692  0.0067  0.0254 -0.3217
 4032TIP3    H133587   0.590   6.292   1.760  2.0618 -1.3224  0.6344
 4032TIP3    H233588   0.506   6.262   1.637 -0.5572  1.8909  1.5440
 4033TIP3   OH233589   1.690   6.307   1.598 -0.8618 -0.5133  0.0567
 4033TIP3    H133590   1.772   6.341   1.632 -0.9855  0.8502 -0.9630
 4033TIP3    H233591   1.632   6.383   1.592 -1.2593 -0.9207 -1.9297
 4034TIP3   OH233592   1.540   5.767   4.437  0.0767 -0.0524 -0.1905
 4034TIP3    H133593   1.510   5.839   4.382  0.9375  0.8689  0.5268
 4034TIP3    H233594   1.623   5.797   4.472 -0.6235 -0.4708  1.8946
 4035TIP3   OH233595   3.880   1.560   4.704 -0.5186  0.0509 -0.0792
 4035TIP3    H133596   3.791   1.556   4.740  0.2629 -2.0518  1.6764
 4035TIP3    H233597   3.892   1.475   4.661  1.0018 -0.0845  0.5867
 4036TIP3   OH233598   3.981   5.099   2.269  0.0989  0.0439  0.1004
 4036TIP3    H133599   3.912   5.132   2.327  0.4523  0.1167  0.4861
 4036TIP3    H233600   3.973   5.004   2.273  0.6840  0.0257  0.9654
 4037TIP3   OH233601   4.183   3.402  11.359 -0.1288  0.1234  0.2378
 4037TIP3    H133602   4.203   3.453  11.438 -0.4969 -1.6241  1.4950
 4037TIP3    H233603   4.100   3.359  11.379 -0.0118 -0.6667 -0.9533
 4038TIP3   OH233604   3.646   1.691  17.212  0.2473  0.3645 -0.3114
 4038TIP3    H133605   3.566   1.693  17.264  0.7197  2.7212  0.3802
 4038TIP3    H233606   3.717   1.689  17.277  0.7902 -0.6139 -0.9135
 4039TIP3   OH233607   6.077   4.287   1.625 -0.1153  0.0355 -0.0675
 4039TIP3    H133608   6.000   4.251   1.582 -0.9017  2.0770 -0.4166
 4039TIP3    H233609   6.043   4.350   1.689  1.2146  0.5137  0.2040
 4040TIP3   OH233610   6.637   2.658   3.690  0.6065  0.0772  0.9497
 4040TIP3    H133611   6.643   2.593   3.620  1.4437  1.0238  0.1306
 4040TIP3    H233612   6.544   2.661   3.713  0.6566 -1.9155  1.4891
 4041TIP3   OH233613   3.268   5.323  16.176 -0.2633  0.3820 -0.2450
 4041TIP3    H133614   3.259   5.363  16.089  0.6147 -0.2294 -0.6241
 4041TIP3    H233615   3.230   5.236  16.166  1.4175 -0.3333 -0.4888
 4042TIP3   OH233616   3.247   5.733  14.358 -0.2463  0.2563 -0.6735
 4042TIP3    H133617   3.200   5.663  14.403  0.2273 -0.4017 -1.2004
 4042TIP3    H233618   3.197   5.748  14.278 -1.6926  2.1511  0.5293
 4043TIP3   OH233619   0.905   6.182   6.119 -0.7867 -0.0768 -0.2423
 4043TIP3    H133620   0.910   6.262   6.170  2.0048 -0.7213  0.5894
 4043TIP3    H233621   0.946   6.205   6.035 -0.1114 -0.5696 -0.0534
 4044TIP3   OH233622   5.920   4.656   2.668  0.5254 -0.1194 -0.1965
 4044TIP3    H133623   5.980   4.651   2.742  1.3177  1.2855 -0.7199
 4044TIP3    H233624   5.910   4.750   2.651  0.0789 -0.4094 -1.6478
 4045TIP3   OH233625   1.817   4.481  10.729  0.2624  0.0689  0.0393
 4045TIP3    H133626   1.798   4.574  10.722 -0.6133 -0.1100  0.0425
 4045TIP3    H233627   1.734   4.437  10.711  0.3884 -0.6807  1.1938
 4046TIP3   OH233628   5.966   0.029  14.525 -0.1174  0.2327 -0.1509
 4046TIP3    H133629   5.960  -0.018  14.608  0.5979 -0.2873 -0.3847
 4046TIP3    H233630   6.001  -0.035  14.463  1.0510  1.1066 -0.4257
 4047TIP3   OH233631   2.595   1.191   2.797 -0.4973 -0.1503 -0.8475
 4047TIP3    H133632   2.520   1.211   2.852  0.4059  2.2972 -0.4684
 4047TIP3    H233633   2.566   1.211   2.708 -0.1906  1.2121 -0.6564
 4048TIP3   OH233634   3.145   0.880   2.136 -0.1292 -0.4127  0.4934
 4048TIP3    H133635   3.110   0.818   2.072  0.2612  0.1493 -0.2785
 4048TIP3    H233636   3.158   0.961   2.086  0.7248 -0.1415  1.1423
 4049TIP3   OH233637   0.120   3.630  10.635 -0.0271  0.3188 -0.2433
 4049TIP3    H133638   0.041   3.628  10.582  0.0150  0.8347 -0.3277
 4049TIP3    H233639   0.100   3.574  10.710  0.0155 -0.6452 -0.9405
 4050TIP3   OH233640   5.009   2.748  14.998  0.7527  0.0313  0.1873
 4050TIP3    H133641   4.963   2.678  15.045 -1.8175  0.3777 -1.6727
 4050TIP3    H233642   4.953   2.825  15.008  1.9631  1.0160 -0.4344
 4051TIP3   OH233643   1.297   3.579   4.658 -0.0295  0.4150 -0.4681
 4051TIP3    H133644   1.222   3.549   4.606  0.4461  0.7835 -1.3856
 4051TIP3    H233645   1.348   3.632   4.597  0.4269  1.0390  0.4486
 4052TIP3   OH233646   5.914   5.267   5.488 -0.3084 -0.4283 -0.6256
 4052TIP3    H133647   5.954   5.219   5.560  0.4421  0.3413 -0.5183
 4052TIP3    H233648   5.840   5.313   5.527 -0.5569 -0.8720 -0.5712
 4053TIP3   OH233649   1.253   1.968   2.630 -0.4315 -1.0438 -0.0872
 4053TIP3    H133650   1.264   1.983   2.724 -0.7847  0.4045 -0.2652
 4053TIP3    H233651   1.180   2.024   2.606  0.5504 -0.3736 -1.4993
 4054TIP3   OH233652   3.563   0.555  16.632 -0.1906 -0.9699  0.2669
 4054TIP3    H133653   3.605   0.522  16.553 -1.1640 -1.1161 -0.1981
 4054TIP3    H233654   3.472   0.526  16.625 -1.1854  2.0627 -0.3633
 4055TIP3   OH233655   3.869   1.120  13.210  0.5119  0.0953  0.2728
 4055TIP3    H133656   3.870   1.149  13.119  1.2916  0.2595  0.3321
 4055TIP3    H233657   3.945   1.163  13.250  1.1767 -1.3392  0.5875
 4056TIP3   OH233658   5.359   2.262   2.142 -0.0913 -0.2076  0.2378
 4056TIP3    H133659   5.277   2.303   2.113 -1.0933 -1.1547  1.6848
 4056TIP3    H233660   5.346   2.169   2.124  1.1568 -0.2200 -0.6414
 4057TIP3   OH233661   2.286   1.293   3.864  0.2153  0.4980 -0.6435
 4057TIP3    H133662   2.271   1.208   3.906  1.7450  0.2423 -0.5925
 4057TIP3    H233663   2.256   1.357   3.928  0.7200  0.0426  0.0571
 4058TIP3   OH233664   4.244   2.431  14.029 -0.8252 -0.1653  0.8414
 4058TIP3    H133665   4.285   2.513  14.057 -0.6173  0.4225 -1.1484
 4058TIP3    H233666   4.150   2.445  14.042 -0.8331  0.6053 -0.0561
 4059TIP3   OH233667   5.193   0.574  11.725 -0.2301 -0.2768  0.6002
 4059TIP3    H133668   5.239   0.511  11.669  2.8397  0.2079  2.4663
 4059TIP3    H233669   5.145   0.520  11.787 -0.9741 -0.7818 -0.3966
 4060TIP3   OH233670   0.272   5.223   4.945  0.0524 -0.4346  0.4009
 4060TIP3    H133671   0.351   5.185   4.907 -0.7439 -0.8405 -0.9014
 4060TIP3    H233672   0.248   5.294   4.885 -0.3735 -0.0854  0.9753
 4061TIP3   OH233673   4.601   0.244  11.428  0.5275 -0.7198 -0.6567
 4061TIP3    H133674   4.580   0.151  11.438  2.3148 -1.0068  0.6748
 4061TIP3    H233675   4.675   0.258  11.486  0.2386  1.5732 -0.8085
 4062TIP3   OH233676   3.197   2.284   3.695 -0.0222 -0.1035  0.3188
 4062TIP3    H133677   3.233   2.320   3.614 -0.4428 -0.0576  0.1504
 4062TIP3    H233678   3.226   2.193   3.697  1.0174  0.2312  0.7258
 4063TIP3   OH233679   5.914   2.220   0.701  0.0725 -0.5949  0.3855
 4063TIP3    H133680   6.006   2.233   0.725 -0.1262 -0.8924  1.3583
 4063TIP3    H233681   5.866   2.239   0.782 -0.7367 -0.2625 -0.1639
 4064TIP3   OH233682   1.111   2.245   3.250 -0.4545 -0.0701  0.3207
 4064TIP3    H133683   1.137   2.293   3.172 -3.1014 -0.5905 -0.9261
 4064TIP3    H233684   1.151   2.293   3.322  0.3536  1.5802 -1.1941
 4065TIP3   OH233685   6.205   3.967  15.115  0.5687  0.1303 -0.2751
 4065TIP3    H133686   6.236   3.879  15.133  1.7313 -0.3068 -3.9867
 4065TIP3    H233687   6.284   4.018  15.097 -0.3418  0.6379 -3.1644
 4066TIP3   OH233688   0.995   6.255  13.325 -0.2499 -0.5346  0.0475
 4066TIP3    H133689   0.947   6.325  13.280  1.6735 -0.5482 -2.1072
 4066TIP3    H233690   0.926   6.199  13.361 -1.8814  0.2762 -1.6873
 4067TIP3   OH233691   1.755   4.452  16.900 -0.4799  0.0136 -0.4200
 4067TIP3    H133692   1.692   4.457  16.972  0.8560 -0.8552  0.8438
 4067TIP3    H233693   1.829   4.505  16.930  1.2633 -2.6361  0.0851
 4068TIP3   OH233694   6.726   3.047  15.506 -0.0415 -0.3001 -0.5628
 4068TIP3    H133695   6.632   3.064  15.503  0.2824  1.6109 -0.6067
 4068TIP3    H233696   6.733   2.952  15.511 -2.0125 -0.3728  1.4831
 4069TIP3   OH233697   2.524   4.813   3.105  0.4782  0.1072 -0.4169
 4069TIP3    H133698   2.570   4.742   3.061 -0.4930 -1.2397  0.6755
 4069TIP3    H233699   2.437   4.777   3.123 -0.1894  1.7565 -0.3047
 4070TIP3   OH233700   5.267   2.953  14.217 -0.5938 -0.2550  0.7227
 4070TIP3    H133701   5.175   2.946  14.194 -0.0410  0.6189 -1.9312
 4070TIP3    H233702   5.312   2.968  14.134  2.1968 -2.8341  1.6669
 4071TIP3   OH233703   6.663   4.725  15.988 -0.0972 -0.3348 -0.1756
 4071TIP3    H133704   6.718   4.788  15.942  0.7192 -1.0950 -0.2583
 4071TIP3    H233705   6.575   4.762  15.983  0.5399  1.4575  0.8863
 4072TIP3   OH233706   4.579   3.907   1.502 -0.0601  0.6065  0.0894
 4072TIP3    H133707   4.588   3.985   1.448  0.3516 -1.4028 -2.8245
 4072TIP3    H233708   4.499   3.864   1.470  1.3341 -1.7084 -0.3943
 4073TIP3   OH233709   5.707   2.692   5.933  0.6761 -0.3718 -0.4705
 4073TIP3    H133710   5.766   2.686   5.858  1.1463 -1.2129 -0.0431
 4073TIP3    H233711   5.750   2.755   5.991  0.5673 -0.1053 -0.6763
 4074TIP3   OH233712   0.539   4.379  11.008  0.0951 -0.4184  0.2249
 4074TIP3    H133713   0.513   4.434  11.082 -1.1191 -0.2830 -0.2873
 4074TIP3    H233714   0.597   4.313  11.046  0.0564  0.0820  1.1690
 4075TIP3   OH233715   4.015   4.356   1.580  0.0141  0.8513 -0.0927
 4075TIP3    H133716   4.033   4.400   1.497 -3.1397  1.4347 -0.5225
 4075TIP3    H233717   4.022   4.262   1.560  1.7959  1.0147 -0.3544
 4076TIP3   OH233718   5.898   6.457   3.715  0.0067  0.2803 -0.4713
 4076TIP3    H133719   5.984   6.414   3.714 -1.1326 -2.1383  0.9062
 4076TIP3    H233720   5.847   6.407   3.779 -2.5037  1.5437 -1.4202
 4077TIP3   OH233721   0.739   4.932  14.164 -0.0783  0.0379  0.0541
 4077TIP3    H133722   0.699   4.965  14.084 -1.0217  0.2402  0.5944
 4077TIP3    H233723   0.832   4.954  14.156 -0.6157  2.5668  0.2398
 4078TIP3   OH233724   6.512   0.193  16.364 -0.1053 -0.7733  0.4514
 4078TIP3    H133725   6.447   0.219  16.429 -1.6685  0.1455 -1.4212
 4078TIP3    H233726   6.551   0.276  16.336  0.8844 -1.2064  0.5432
 4079TIP3   OH233727   6.171   4.784   4.467  0.2844  0.5081  0.3776
 4079TIP3    H133728   6.087   4.765   4.424  0.2345 -1.5746  1.3249
 4079TIP3    H233729   6.234   4.726   4.424  1.2408  2.0369 -0.3003
 4080TIP3   OH233730   6.671   3.266   1.701 -0.1276  0.3681 -0.1315
 4080TIP3    H133731   6.648   3.358   1.685  0.0780  0.5735  0.7180
 4080TIP3    H233732   6.707   3.266   1.790  0.6791 -0.3946 -0.4610
 4081TIP3   OH233733   1.234   4.085  11.995 -0.3781  0.4493  0.5806
 4081TIP3    H133734   1.250   4.069  12.088 -0.2247  1.8287  0.8078
 4081TIP3    H233735   1.163   4.150  11.994  0.0183  0.8753 -0.2430
 4082TIP3   OH233736   3.074   3.880  12.067  0.3150 -0.3730 -0.2675
 4082TIP3    H133737   3.081   3.965  12.024  0.7222 -0.4595 -0.3627
 4082TIP3    H233738   3.066   3.817  11.996  0.7174 -0.4875 -0.2094
 4083TIP3   OH233739   6.155   2.434  12.222 -0.4260  0.5479 -0.6607
 4083TIP3    H133740   6.174   2.502  12.157  1.4424  0.6241 -0.0450
 4083TIP3    H233741   6.196   2.465  12.302 -3.0925  0.6755  0.7263
 4084TIP3   OH233742   1.052   4.352   0.204 -0.0368 -0.3388 -0.2861
 4084TIP3    H133743   0.976   4.395   0.245  0.6641 -0.5314  1.2452
 4084TIP3    H233744   1.039   4.259   0.219  1.1887 -0.2826  1.1991
 4085TIP3   OH233745   1.383   0.176   4.025 -0.4885 -0.1293 -0.5821
 4085TIP3    H133746   1.310   0.172   3.963 -0.6028  1.4151 -0.5751
 4085TIP3    H233747   1.367   0.104   4.085 -1.6708 -0.2030 -0.9714
 4086TIP3   OH233748   6.450   6.306  15.591  0.3475 -0.0775  0.4791
 4086TIP3    H133749   6.512   6.321  15.520  0.2680 -1.1432  0.1798
 4086TIP3    H233750   6.467   6.378  15.653  0.4619  0.8195 -0.5691
 4087TIP3   OH233751   2.070   5.168   2.042  0.1587  0.2610 -0.2416
 4087TIP3    H133752   1.976   5.169   2.062 -0.0620  0.5304 -1.2838
 4087TIP3    H233753   2.084   5.247   1.990  0.4025 -1.2881 -2.5950
 4088TIP3   OH233754   6.813   2.166  16.631 -0.1039 -0.0696  0.3690
 4088TIP3    H133755   6.733   2.192  16.585 -1.8270 -2.0742  2.1208
 4088TIP3    H233756   6.825   2.234  16.698 -0.9293 -0.2894  0.7515
 4089TIP3   OH233757   1.837   1.921  16.217  0.4144 -0.4724 -0.4579
 4089TIP3    H133758   1.848   2.015  16.204  0.3242 -0.4877 -0.6402
 4089TIP3    H233759   1.884   1.880  16.144  0.7289 -0.5750 -0.2001
 4090TIP3   OH233760   1.847   1.161  17.014 -0.6237 -0.0478 -0.2072
 4090TIP3    H133761   1.839   1.256  17.013 -1.4834 -0.1309 -0.9908
 4090TIP3    H233762   1.942   1.146  17.019 -0.5703  0.8540  2.1510
 4091TIP3   OH233763   6.068   3.074  11.720 -0.1185 -0.5592  0.4937
 4091TIP3    H133764   6.039   3.038  11.805  1.5015 -2.3144  0.3466
 4091TIP3    H233765   6.135   3.012  11.691  1.4387  1.6608 -0.6785
 4092TIP3   OH233766   6.124   4.398  16.149 -0.3333  0.1830  0.5518
 4092TIP3    H133767   6.186   4.465  16.123  0.5423 -0.2768  1.4141
 4092TIP3    H233768   6.105   4.417  16.241 -0.1369 -0.7017  0.7851
 4093TIP3   OH233769   3.461   1.032  13.545 -0.0069  0.4688  0.0964
 4093TIP3    H133770   3.534   1.021  13.607  0.3657 -0.1096 -0.4412
 4093TIP3    H233771   3.499   1.080  13.472  0.4439 -1.8244 -1.2269
 4094TIP3   OH233772   2.853   1.587  13.128 -0.7005  0.2504  0.3074
 4094TIP3    H133773   2.927   1.644  13.151  0.7191 -1.4938  0.1721
 4094TIP3    H233774   2.799   1.585  13.207  1.6762 -1.9018  1.9826
 4095TIP3   OH233775   2.774   2.023   2.947 -0.3239 -0.2211  0.4961
 4095TIP3    H133776   2.773   2.094   2.882 -0.8761 -0.5172  0.1800
 4095TIP3    H233777   2.709   2.050   3.012 -0.7203 -0.5642  0.2410
 4096TIP3   OH233778   2.219   3.693   2.218  0.4826 -0.4767  0.5582
 4096TIP3    H133779   2.129   3.700   2.250  0.9200 -1.9409  2.1937
 4096TIP3    H233780   2.260   3.775   2.244 -0.3878  0.2260 -0.2489
 4097TIP3   OH233781   5.722   0.291   3.051 -0.5109  0.0709  0.4702
 4097TIP3    H133782   5.699   0.275   2.959  0.7036 -2.0446  0.5075
 4097TIP3    H233783   5.656   0.353   3.082 -0.0169  2.0604 -2.2633
 4098TIP3   OH233784   5.704   0.498  16.144 -0.4722 -0.3651  0.4617
 4098TIP3    H133785   5.681   0.409  16.170  1.3885 -0.5277  1.6647
 4098TIP3    H233786   5.646   0.554  16.196 -2.3764 -0.8780 -1.0810
 4099TIP3   OH233787   0.045   1.142  11.470  1.1605  0.0093  0.4269
 4099TIP3    H133788   0.006   1.088  11.538  0.5071 -1.1700 -0.8768
 4099TIP3    H233789  -0.013   1.132  11.394  0.9472  2.6240  0.1934
 4100TIP3   OH233790   0.806   1.369   6.048  0.0590  0.0254 -0.0270
 4100TIP3    H133791   0.899   1.367   6.028  0.5394 -0.5419  2.1644
 4100TIP3    H233792   0.775   1.280   6.033 -0.5203  0.6023 -2.4209
 4101TIP3   OH233793   1.726   4.326  16.213 -0.1889  0.1597  0.3874
 4101TIP3    H133794   1.719   4.266  16.287  0.8674 -0.1029  0.2787
 4101TIP3    H233795   1.640   4.367  16.207 -0.2920  0.1512  1.7330
 4102TIP3   OH233796   1.629   4.725  16.835  0.1828 -0.6625 -0.4304
 4102TIP3    H133797   1.671   4.704  16.752  0.0720 -1.7785 -0.2193
 4102TIP3    H233798   1.617   4.639  16.877 -1.0943 -0.2270  0.0878
 4103TIP3   OH233799   0.422   1.479  11.607 -0.9183 -0.2204 -0.3023
 4103TIP3    H133800   0.498   1.432  11.572 -0.3299  0.2302  0.3667
 4103TIP3    H233801   0.431   1.568  11.573 -0.4770  0.1546  0.7611
 4104TIP3   OH233802   2.487   5.545   3.556 -0.2928 -0.0196 -0.6768
 4104TIP3    H133803   2.566   5.493   3.568 -2.1923 -2.5914  1.1975
 4104TIP3    H233804   2.427   5.489   3.507 -1.8159  0.9609  0.0025
 4105TIP3   OH233805   2.860   6.771  12.389 -0.0267  0.2746 -0.3331
 4105TIP3    H133806   2.798   6.757  12.317  1.7064 -1.3733 -1.5746
 4105TIP3    H233807   2.862   6.866  12.400 -2.3105  0.3909 -0.6590
 4106TIP3   OH233808   1.848   1.866   3.765 -0.0817  0.3425  0.2693
 4106TIP3    H133809   1.828   1.801   3.832  0.7490  0.1375  0.3193
 4106TIP3    H233810   1.762   1.898   3.737 -0.5135 -1.0443 -0.0315
 4107TIP3   OH233811   5.178   1.799  16.970 -0.1183 -0.0156  0.3373
 4107TIP3    H133812   5.105   1.800  17.031  0.3714  0.6356  0.9285
 4107TIP3    H233813   5.256   1.791  17.026  0.3274  0.4490 -0.2043
 4108TIP3   OH233814   5.607   4.862  16.785 -0.4538 -0.3355 -0.4330
 4108TIP3    H133815   5.600   4.889  16.693  1.8549 -0.0932 -0.5677
 4108TIP3    H233816   5.552   4.924  16.833  1.0911  1.7175 -1.2629
 4109TIP3   OH233817   4.540   4.277  11.978  0.0611  0.8211 -0.4258
 4109TIP3    H133818   4.446   4.290  11.967  0.0401  1.4075  0.4440
 4109TIP3    H233819   4.580   4.338  11.915 -0.1421 -0.1649 -1.5308
 4110TIP3   OH233820   2.223   2.325  15.389 -0.3290  0.5517 -0.4659
 4110TIP3    H133821   2.235   2.398  15.450 -1.1000 -0.8384  1.3659
 4110TIP3    H233822   2.136   2.339  15.352 -1.3476 -0.5366  1.4333
 4111TIP3   OH233823   1.109   2.713  15.406 -0.0155  0.0140 -0.3915
 4111TIP3    H133824   1.116   2.756  15.491  2.2303 -0.2128 -0.4209
 4111TIP3    H233825   1.119   2.783  15.342  2.5312 -0.3379 -0.4378
 4112TIP3   OH233826   3.417   5.709   4.261 -0.2767 -0.2083 -0.2199
 4112TIP3    H133827   3.452   5.643   4.201  2.6465  0.0623  1.1253
 4112TIP3    H233828   3.356   5.661   4.317 -0.8184 -1.0330 -1.4808
 4113TIP3   OH233829   6.658   1.372   2.767  0.1381 -0.2436  0.1801
 4113TIP3    H133830   6.590   1.377   2.835  0.5517  0.5123  0.5385
 4113TIP3    H233831   6.699   1.458   2.769  0.1676 -0.2337 -1.0147
 4114TIP3   OH233832   0.981   0.558   6.836 -0.1194  0.1914  0.0469
 4114TIP3    H133833   1.014   0.570   6.747 -1.2400  0.8815 -0.2741
 4114TIP3    H233834   1.029   0.481   6.869 -0.3553 -0.6076 -1.4565
 4115TIP3   OH233835   1.573   2.821  12.902 -0.0616  0.5148 -0.1328
 4115TIP3    H133836   1.577   2.729  12.874 -0.9797  0.0288  1.3297
 4115TIP3    H233837   1.579   2.818  12.997 -0.2782  1.9729 -0.0610
 4116TIP3   OH233838   2.823   4.231   3.687  0.2522 -0.5715 -0.1270
 4116TIP3    H133839   2.745   4.200   3.641  1.7607 -2.7694 -1.3242
 4116TIP3    H233840   2.878   4.268   3.618 -0.3782  2.5107  0.9383
 4117TIP3   OH233841   6.046   4.994  13.003 -0.3002 -0.4970  0.2064
 4117TIP3    H133842   6.062   4.981  12.909 -2.1758 -0.0872 -0.1976
 4117TIP3    H233843   6.103   5.066  13.027 -0.4616 -0.0075 -0.8390
 4118TIP3   OH233844   3.202   5.167   5.824 -0.0887  0.6448  0.4136
 4118TIP3    H133845   3.178   5.129   5.740 -1.7331  0.8173  0.7845
 4118TIP3    H233846   3.252   5.246   5.802 -1.4625  1.2951 -0.4284
 4119TIP3   OH233847   1.593   1.124  17.232 -0.0632 -0.1135 -0.7829
 4119TIP3    H133848   1.643   1.163  17.160 -0.2525  0.7822 -0.4467
 4119TIP3    H233849   1.656   1.117  17.304 -0.0187 -0.4728 -0.8573
 4120TIP3   OH233850   0.877   6.705  16.936 -0.0424  0.0041 -0.3935
 4120TIP3    H133851   0.932   6.626  16.938  0.6968  0.4851 -1.1376
 4120TIP3    H233852   0.922   6.767  16.993 -0.7315 -0.1778  0.3504
 4121TIP3   OH233853   2.704   5.342   4.537  0.4342  0.4273  0.2328
 4121TIP3    H133854   2.709   5.337   4.632  0.6222 -1.3454  0.1493
 4121TIP3    H233855   2.611   5.330   4.517  0.8290 -2.7659  0.0535
 4122TIP3   OH233856   4.192   3.497  15.731 -0.0407 -0.1913  0.3131
 4122TIP3    H133857   4.226   3.510  15.643  0.4030 -0.3486  0.4633
 4122TIP3    H233858   4.259   3.447  15.776 -0.2177 -0.0141  0.7798
 4123TIP3   OH233859   3.591   2.415  12.626 -0.2367  0.3540 -0.2364
 4123TIP3    H133860   3.680   2.438  12.652 -0.0579 -0.7779  0.2023
 4123TIP3    H233861   3.584   2.444  12.535  0.2110  1.4356  0.0634
 4124TIP3   OH233862   2.686   3.974  11.881 -0.3655 -0.0729  0.2264
 4124TIP3    H133863   2.606   4.026  11.868 -1.0107 -1.2793 -0.7665
 4124TIP3    H233864   2.713   3.993  11.970 -1.7152  0.4187  0.5426
 4125TIP3   OH233865   0.702   2.125   2.037 -0.1357 -0.7817  0.0348
 4125TIP3    H133866   0.708   2.120   1.941  1.1676 -0.2268  0.0902
 4125TIP3    H233867   0.617   2.166   2.053  0.3154  0.5298 -0.9129
 4126TIP3   OH233868   1.009   6.136   4.525  0.4381 -0.1415  0.3249
 4126TIP3    H133869   1.089   6.098   4.489  0.9405  0.1227  1.1348
 4126TIP3    H233870   1.029   6.229   4.536 -0.1559  0.0211  0.0579
 4127TIP3   OH233871   1.142   3.052   3.336  0.6883 -0.3218  0.1531
 4127TIP3    H133872   1.058   3.033   3.294  0.6454 -1.9641  0.9573
 4127TIP3    H233873   1.205   2.995   3.293  0.9958 -0.6227  0.9833
 4128TIP3   OH233874   3.051   1.216   5.844 -0.2747 -0.4262 -0.2124
 4128TIP3    H133875   3.004   1.158   5.903 -0.7823  0.0257 -0.1720
 4128TIP3    H233876   3.117   1.258   5.899 -2.0472  1.5117  0.5048
 4129TIP3   OH233877   2.519   3.399   3.748  0.1847  0.8445  0.5652
 4129TIP3    H133878   2.442   3.447   3.779  0.3563  2.1604 -0.9751
 4129TIP3    H233879   2.485   3.315   3.717 -0.5709  1.2419  0.3014
 4130TIP3   OH233880   3.001   3.983   0.372  1.0807 -0.1048 -0.0882
 4130TIP3    H133881   3.063   4.030   0.316 -0.0129  0.5376 -0.7828
 4130TIP3    H233882   2.918   4.029   0.359  1.0849  0.8700  3.0658
 4131TIP3   OH233883   3.347   2.003  16.007  0.7885 -0.0941 -0.4629
 4131TIP3    H133884   3.306   1.974  16.088 -0.3385  1.9908 -0.2485
 4131TIP3    H233885   3.432   2.037  16.034 -0.0045  1.5584  0.0233
 4132TIP3   OH233886   6.670   0.316   2.930 -0.7533 -0.2222 -0.0239
 4132TIP3    H133887   6.625   0.347   3.009 -0.9219  0.0254 -0.2162
 4132TIP3    H233888   6.741   0.379   2.917 -0.4506 -0.5200  0.1869
 4133TIP3   OH233889   3.443   3.832   1.141  0.4704 -0.0958 -0.1435
 4133TIP3    H133890   3.357   3.832   1.100  0.6468 -0.3100 -0.5183
 4133TIP3    H233891   3.435   3.892   1.215  0.2866  0.6705 -0.7763
 4134TIP3   OH233892   0.309   5.528  15.912 -0.2625  0.4850  0.0697
 4134TIP3    H133893   0.239   5.480  15.867  0.8668 -2.1205  1.0047
 4134TIP3    H233894   0.346   5.465  15.974  3.2501  1.6157 -0.7436
 4135TIP3   OH233895   3.294   2.909   4.117 -0.3386 -0.1860 -0.1365
 4135TIP3    H133896   3.224   2.865   4.165  0.1173  1.3603  2.0764
 4135TIP3    H233897   3.374   2.880   4.159  0.1358  0.5427 -0.5132
 4136TIP3   OH233898   3.246   0.368   1.164 -0.0260 -0.0632  0.1150
 4136TIP3    H133899   3.266   0.303   1.096 -0.9863  0.2079 -0.4257
 4136TIP3    H233900   3.267   0.452   1.123 -1.2998  0.1524 -0.1036
 4137TIP3   OH233901   5.964   0.430  15.276  0.0909  0.1379 -0.1714
 4137TIP3    H133902   5.949   0.485  15.353  1.8923 -0.0801  0.3476
 4137TIP3    H233903   5.927   0.345  15.299  1.8802 -0.3398  1.0185
 4138TIP3   OH233904   4.971   2.704  15.346  0.0790 -0.2201 -0.1972
 4138TIP3    H133905   4.997   2.774  15.406 -0.3518  0.1760 -0.4770
 4138TIP3    H233906   4.905   2.654  15.394  0.5662 -0.5886  0.0988
 4139TIP3   OH233907   0.917   0.955   3.856 -0.2396 -0.2635 -0.1579
 4139TIP3    H133908   0.875   0.894   3.796 -1.4211 -0.6369  1.0182
 4139TIP3    H233909   0.845   1.005   3.894  0.6382  1.2873 -0.4478
 4140TIP3   OH233910   2.770   4.047  15.572  0.5551 -0.9929 -0.3287
 4140TIP3    H133911   2.854   4.024  15.533  1.3265 -1.0162  1.3038
 4140TIP3    H233912   2.744   4.127  15.528  1.2565 -1.1867 -1.1043
 4141TIP3   OH233913   5.428   3.132  13.992  0.4018  0.5626 -0.4905
 4141TIP3    H133914   5.485   3.057  14.010  2.0726  2.2507  1.4601
 4141TIP3    H233915   5.442   3.152  13.900 -0.6685 -1.9868 -1.2455
 4142TIP3   OH233916   2.059   5.151  11.998  0.1437 -0.0667 -0.4441
 4142TIP3    H133917   2.139   5.116  12.038  0.0794  0.3602  0.0692
 4142TIP3    H233918   1.988   5.103  12.041  0.0609  0.5971  0.1759
 4143TIP3   OH233919   4.983   1.073  16.566  0.8639  0.2902  0.1153
 4143TIP3    H133920   4.995   1.090  16.659  0.5918  0.4031  0.1315
 4143TIP3    H233921   5.067   1.095  16.526  1.3514 -0.8458  0.4828
 4144TIP3   OH233922   4.148   1.631   0.558 -0.0058  0.2276 -0.7704
 4144TIP3    H133923   4.142   1.657   0.649 -0.1877 -1.5448 -0.2452
 4144TIP3    H233924   4.078   1.679   0.514 -0.1619  0.8018  0.1037
 4145TIP3   OH233925   5.940   3.926  16.235 -0.3898 -0.6599 -0.1777
 4145TIP3    H133926   5.987   3.896  16.157  1.5183  1.4465  0.1299
 4145TIP3    H233927   5.899   4.008  16.208 -0.2743 -0.2632  0.8332
 4146TIP3   OH233928   0.147   0.188  10.493 -0.1773  0.0455 -0.0580
 4146TIP3    H133929   0.205   0.114  10.510  0.8505  1.0704  1.0985
 4146TIP3    H233930   0.192   0.238  10.425 -0.1745  0.3290  0.1485
 4147TIP3   OH233931   1.148   3.652   3.435 -0.4442  0.0157  0.1519
 4147TIP3    H133932   1.214   3.591   3.403  0.9637  0.6951  1.7104
 4147TIP3    H233933   1.079   3.595   3.470 -0.7824 -0.6936 -1.6008
 4148TIP3   OH233934   3.184   1.684   6.339  0.0705  0.0561  0.2056
 4148TIP3    H133935   3.217   1.764   6.297 -0.3667 -0.4278 -1.0920
 4148TIP3    H233936   3.122   1.715   6.405  1.9941  0.9048  1.6486
 4149TIP3   OH233937   5.476   5.832   0.457 -0.1049  0.2256  0.1495
 4149TIP3    H133938   5.438   5.761   0.404  1.2231  0.7286 -1.5014
 4149TIP3    H233939   5.458   5.911   0.406  0.7509  0.7714  0.7034
 4150TIP3   OH233940   3.334   5.354   6.053  0.0699 -0.4468 -0.1544
 4150TIP3    H133941   3.344   5.382   5.962  2.1135  0.9132  0.4313
 4150TIP3    H233942   3.401   5.287   6.065  0.9478  0.5608  0.7632
 4151TIP3   OH233943   2.387   0.767   1.934 -0.2187  0.2182 -0.0042
 4151TIP3    H133944   2.412   0.859   1.940 -1.2222  0.5708 -0.8741
 4151TIP3    H233945   2.297   0.765   1.968  0.0230 -0.5338  0.5709
 4152TIP3   OH233946   0.654   5.097   0.291  0.0967  0.3884 -0.1190
 4152TIP3    H133947   0.667   5.134   0.203 -2.6689 -0.6941 -1.0078
 4152TIP3    H233948   0.632   5.172   0.345 -0.1517  0.7907 -0.7703
 4153TIP3   OH233949   0.368   4.003  15.010  0.1482 -0.1602  0.6092
 4153TIP3    H133950   0.311   4.029  15.082  0.7076 -0.4100  1.1430
 4153TIP3    H233951   0.409   4.085  14.982 -0.1425 -0.0479  0.5112
 4154TIP3   OH233952   5.724   1.017  15.487  0.0345  0.0769 -0.3919
 4154TIP3    H133953   5.682   1.074  15.424  2.3156 -0.0378 -2.0738
 4154TIP3    H233954   5.660   0.948  15.504 -2.0007  2.0948  0.2372
 4155TIP3   OH233955   6.288   3.169   1.614 -0.4957 -0.1004 -0.1526
 4155TIP3    H133956   6.333   3.105   1.669  1.2627 -0.3400 -1.8047
 4155TIP3    H233957   6.242   3.117   1.549  0.8640  0.2571 -1.4454
 4156TIP3   OH233958   2.004   3.707  14.084 -0.1330 -0.5398 -0.1331
 4156TIP3    H133959   1.916   3.695  14.120  0.1474 -0.6600  0.5053
 4156TIP3    H233960   1.994   3.686  13.991 -0.7233 -0.8060 -0.0139
 4157TIP3   OH233961   0.660   4.479   2.913 -0.3179  0.2130  0.5711
 4157TIP3    H133962   0.618   4.395   2.898  0.0243  0.1470 -0.0143
 4157TIP3    H233963   0.645   4.529   2.833 -2.4024  1.5157  1.7230
 4158TIP3   OH233964   4.689   3.398  12.855 -0.0177 -0.4748 -0.0653
 4158TIP3    H133965   4.688   3.440  12.769  0.0986 -1.3055 -0.4706
 4158TIP3    H233966   4.599   3.402  12.886 -0.2425 -1.0661 -0.6520
 4159TIP3   OH233967   3.096   0.701   1.921  0.8977  0.0103 -1.2159
 4159TIP3    H133968   3.151   0.641   1.971  0.0877 -0.3450 -0.7335
 4159TIP3    H233969   3.131   0.696   1.832 -0.8141 -3.2997 -1.7931
 4160TIP3   OH233970   5.511   4.026  14.969  0.4653 -0.8919  0.1821
 4160TIP3    H133971   5.605   4.034  14.984  0.3801 -0.2970  0.4297
 4160TIP3    H233972   5.496   3.932  14.955  0.7374 -1.3563  2.6975
 4161TIP3   OH233973   0.126   3.280  13.265  0.2314  0.1401 -0.1409
 4161TIP3    H133974   0.212   3.297  13.227  0.6658 -0.2316  0.6874
 4161TIP3    H233975   0.143   3.224  13.341 -0.7578 -0.1110 -0.1012
 4162TIP3   OH233976   4.742   1.386  14.812 -0.7686 -0.7960  0.5036
 4162TIP3    H133977   4.685   1.430  14.875  0.2566  0.4424  0.5939
 4162TIP3    H233978   4.778   1.311  14.860  1.1044  0.9390  1.8915
 4163TIP3   OH233979   1.259   4.304  13.274  0.2970  0.2369  0.5140
 4163TIP3    H133980   1.183   4.360  13.258 -0.9956 -1.5546  0.1895
 4163TIP3    H233981   1.247   4.231  13.213  0.7459 -1.5336  2.5024
 4164TIP3   OH233982   4.564   0.671   2.960 -0.2900 -0.4782 -0.2589
 4164TIP3    H133983   4.544   0.685   2.867 -0.8631  1.6409  0.1410
 4164TIP3    H233984   4.478   0.656   3.000 -0.1165 -0.6678  0.0400
 4165TIP3   OH233985   4.494   4.931   2.837 -0.3323 -0.3986  0.5766
 4165TIP3    H133986   4.464   4.841   2.822 -0.1413 -0.4195  0.3079
 4165TIP3    H233987   4.424   4.971   2.888 -1.9243  0.2410 -2.0132
 4166TIP3   OH233988   5.841   4.893  11.330  0.4714 -0.2290 -0.2037
 4166TIP3    H133989   5.923   4.906  11.377  0.6270 -0.2813 -0.4571
 4166TIP3    H233990   5.865   4.837  11.256  0.0541 -0.9094  0.1738
 4167TIP3   OH233991   1.487   6.104   3.641 -0.2285 -0.1402  0.0587
 4167TIP3    H133992   1.414   6.069   3.691  0.8717 -1.2941  0.8861
 4167TIP3    H233993   1.563   6.091   3.697  0.4111  2.4837 -0.1129
 4168TIP3   OH233994   5.016   0.238   3.952  0.0319 -0.4494  0.0219
 4168TIP3    H133995   4.986   0.329   3.947 -1.5615 -1.0928 -2.9488
 4168TIP3    H233996   5.087   0.233   3.888 -0.8428 -1.6283 -0.8731
 4169TIP3   OH233997   3.817   2.804   4.152  0.2950  0.1892 -0.1085
 4169TIP3    H133998   3.789   2.852   4.074  0.1045 -1.3974 -1.0519
 4169TIP3    H233999   3.862   2.869   4.205 -0.5918  1.5723 -1.0042
 4170TIP3   OH234000   6.446   0.790  15.520  0.1663  0.0662  0.0802
 4170TIP3    H134001   6.505   0.792  15.595 -0.0256  0.5325  0.2200
 4170TIP3    H234002   6.383   0.721  15.541 -0.9626  1.4096  1.1714
 4171TIP3   OH234003   5.664   2.784  13.142 -0.1558 -0.2325 -0.7068
 4171TIP3    H134004   5.575   2.818  13.130  0.0470  1.3981  1.8508
 4171TIP3    H234005   5.675   2.719  13.073 -3.9373 -1.6761 -0.0674
 4172TIP3   OH234006   5.318   1.152   4.480  1.3301 -1.1674 -0.1808
 4172TIP3    H134007   5.334   1.174   4.389 -1.1057  0.3511 -0.2575
 4172TIP3    H234008   5.400   1.176   4.525  1.2485  1.5161 -1.3761
 4173TIP3   OH234009   6.283   5.195  16.595  1.0180 -0.1444 -0.1995
 4173TIP3    H134010   6.259   5.118  16.646 -2.3877  0.7714 -0.3397
 4173TIP3    H234011   6.328   5.159  16.518 -2.3414 -2.1881 -1.2950
 4174TIP3   OH234012   1.994   2.967   2.927 -0.7484  0.2654 -0.3317
 4174TIP3    H134013   1.989   2.950   3.021  0.5968  0.7478 -0.1654
 4174TIP3    H234014   2.046   3.047   2.920  1.0980 -0.9962 -1.5940
 4175TIP3   OH234015   0.732   6.194   0.400  0.6651 -0.3384  0.5151
 4175TIP3    H134016   0.739   6.150   0.485  0.8544  1.6409  1.5536
 4175TIP3    H234017   0.822   6.200   0.369  0.6046 -0.9838  0.2035
 4176TIP3   OH234018   4.210   3.689   5.723 -0.3619  0.1988  0.0350
 4176TIP3    H134019   4.165   3.607   5.745  1.7305 -0.5658  1.5814
 4176TIP3    H234020   4.186   3.749   5.793 -1.5418  0.8046 -0.8678
 4177TIP3   OH234021   5.367   6.486  16.476 -0.1874 -0.1378 -0.0275
 4177TIP3    H134022   5.299   6.482  16.409 -0.2979 -0.8722  0.1279
 4177TIP3    H234023   5.347   6.414  16.535 -0.7397  1.1844  1.4225
 4178TIP3   OH234024   5.637   2.312   0.033 -0.4070  0.2086  0.9439
 4178TIP3    H134025   5.708   2.269   0.082 -2.0091 -2.1048  1.3249
 4178TIP3    H234026   5.666   2.308  -0.059  1.3850  2.1823  1.3760
 4179TIP3   OH234027   1.033   5.997   4.911  0.4187 -0.2735  0.1632
 4179TIP3    H134028   0.978   5.961   4.980  1.9760 -2.1320  0.4743
 4179TIP3    H234029   0.976   5.999   4.834 -0.5590 -0.6625  0.8701
 4180TIP3   OH234030   3.524   0.614  17.209 -0.1733  0.0654 -0.4680
 4180TIP3    H134031   3.580   0.660  17.271  0.1565  0.6211 -1.1785
 4180TIP3    H234032   3.522   0.670  17.132  0.4937 -1.2728 -1.4691
 4181TIP3   OH234033   2.641   4.350   1.996  0.3116 -0.3123  0.0643
 4181TIP3    H134034   2.681   4.306   2.070 -3.4114  0.1591  2.4879
 4181TIP3    H234035   2.713   4.396   1.953  3.4257 -4.6255  0.3545
 4182TIP3   OH234036   4.509   4.251  16.891  0.0766  0.4863  0.1245
 4182TIP3    H134037   4.582   4.216  16.840 -0.8967 -0.1505 -0.8485
 4182TIP3    H234038   4.521   4.214  16.978  2.2302  2.2599  0.6163
 4183TIP3   OH234039   3.130   4.233   4.753  0.4831 -0.1569  0.0887
 4183TIP3    H134040   3.198   4.294   4.725 -0.0994  0.2795 -0.3761
 4183TIP3    H234041   3.123   4.169   4.682  0.1229  0.0311 -0.0461
 4184TIP3   OH234042   2.327   3.244  13.735 -0.0101 -0.1739 -0.1221
 4184TIP3    H134043   2.389   3.317  13.729  1.3206 -1.3181 -0.7436
 4184TIP3    H234044   2.357   3.194  13.811  0.0257 -0.9044 -0.6090
 4185TIP3   OH234045   6.358   3.974   0.044  0.3092 -0.4262 -0.6750
 4185TIP3    H134046   6.324   4.060   0.068  0.6190  0.0741 -2.0012
 4185TIP3    H234047   6.452   3.986   0.039  0.5262 -1.3051  0.9330
 4186TIP3   OH234048   0.583   0.162   5.799  0.5300 -0.0371  0.2775
 4186TIP3    H134049   0.674   0.180   5.821 -0.0356  0.2183  2.5674
 4186TIP3    H234050   0.580   0.067   5.787  1.3550  0.1038 -1.2509
 4187TIP3   OH234051   6.653   1.468   3.199 -0.9718  0.5528 -0.1369
 4187TIP3    H134052   6.686   1.552   3.230  0.4719  1.1101 -3.0264
 4187TIP3    H234053   6.716   1.403   3.231 -0.4457  0.9099 -0.4473
 4188TIP3   OH234054   5.657   2.141  11.467 -0.5412  0.2163 -0.0320
 4188TIP3    H134055   5.703   2.223  11.485 -0.3194  0.2241 -0.6251
 4188TIP3    H234056   5.725   2.074  11.470 -0.5758  0.1619 -0.3696
 4189TIP3   OH234057   2.942   3.864  11.079 -0.4042  0.5903 -0.6055
 4189TIP3    H134058   2.902   3.786  11.116 -0.0505 -0.5387 -2.5562
 4189TIP3    H234059   2.893   3.937  11.118 -0.0559 -0.5195  2.0190
 4190TIP3   OH234060   6.327   5.913  12.692 -0.6558  0.4676 -0.7093
 4190TIP3    H134061   6.387   5.841  12.678 -0.3530  0.5663  0.0437
 4190TIP3    H234062   6.375   5.991  12.664  0.6379  0.8954  2.4465
 4191TIP3   OH234063   0.985   4.865   2.229  0.0886 -0.0589 -0.1081
 4191TIP3    H134064   1.034   4.931   2.278  0.1339  0.2767 -0.5986
 4191TIP3    H234065   1.053   4.807   2.192  0.0872  0.0360 -0.2628
 4192TIP3   OH234066   2.010   2.117   0.520 -0.1924 -0.0691  0.3192
 4192TIP3    H134067   2.080   2.052   0.530 -1.7640 -1.6160  1.5649
 4192TIP3    H234068   1.985   2.139   0.610 -1.7899 -0.0640 -0.1134
 4193TIP3   OH234069   4.056   3.039  11.756 -0.5983  0.2899 -0.2011
 4193TIP3    H134070   4.016   2.965  11.800 -0.6401  0.5416  0.1893
 4193TIP3    H234071   4.075   3.008  11.668 -0.3079 -0.2829  0.0661
 4194TIP3   OH234072   1.016   2.012  13.202 -0.1585  0.0920 -0.1098
 4194TIP3    H134073   1.004   2.107  13.192 -2.1012 -0.1955 -0.7277
 4194TIP3    H234074   1.099   2.004  13.249 -0.4561  2.1521  0.8717
 4195TIP3   OH234075   3.188   2.720   4.948  0.1515  0.5168 -0.1557
 4195TIP3    H134076   3.109   2.741   4.998 -0.7241  0.8563 -1.6649
 4195TIP3    H234077   3.226   2.804   4.924 -1.4359  0.4474 -3.1667
 4196TIP3   OH234078   4.768   2.398   3.448 -0.1896  0.1507 -0.5682
 4196TIP3    H134079   4.734   2.428   3.532  0.8239  1.2177 -0.5389
 4196TIP3    H234080   4.708   2.328   3.422 -0.5999 -0.0767  0.9585
 4197TIP3   OH234081   3.331   0.589   2.040  0.0514 -0.1949 -0.1529
 4197TIP3    H134082   3.366   0.511   2.083 -0.4690  0.6734  1.9013
 4197TIP3    H234083   3.407   0.629   1.996  1.4731  0.9986  3.2226
 4198TIP3   OH234084   2.270   3.325  11.237  0.3420 -0.6563  0.0240
 4198TIP3    H134085   2.332   3.398  11.243 -0.7713  0.3251 -0.1146
 4198TIP3    H234086   2.316   3.258  11.187  0.3729  1.0762 -2.3826
 4199TIP3   OH234087   0.173   6.360  14.253 -0.0403  0.3991  0.2277
 4199TIP3    H134088   0.081   6.387  14.244 -0.0640  0.4108  0.5129
 4199TIP3    H234089   0.169   6.276  14.299  0.0639  0.1557 -0.2085
 4200TIP3   OH234090   2.948   4.789  13.407 -0.0375  0.1459  0.1642
 4200TIP3    H134091   3.004   4.727  13.361  2.0428  0.8501  1.6815
 4200TIP3    H234092   2.999   4.870  13.411 -1.0572  0.7348  1.7986
 4201TIP3   OH234093   4.040   3.015  15.985 -0.4208 -0.0608 -0.5743
 4201TIP3    H134094   4.099   3.045  15.915 -1.3043  0.4389 -1.1219
 4201TIP3    H234095   4.057   3.074  16.058  0.4984 -0.5760 -0.3707
 4202TIP3   OH234096   5.311   0.962  15.125  0.8560  0.3322 -0.4737
 4202TIP3    H134097   5.341   1.036  15.178  0.2581  0.1867  0.0809
 4202TIP3    H234098   5.386   0.939  15.070  1.4663  0.5302  0.2688
 4203TIP3   OH234099   5.286   2.827  13.743 -0.0493 -0.0159  0.3374
 4203TIP3    H134100   5.379   2.821  13.762 -0.1816 -2.5679  0.4329
 4203TIP3    H234101   5.249   2.747  13.781 -1.5300 -1.4238 -3.7171
 4204TIP3   OH234102   4.594   6.631   1.683  0.3969 -0.2720  0.0918
 4204TIP3    H134103   4.641   6.700   1.731  1.3302 -0.4825 -0.5158
 4204TIP3    H234104   4.618   6.550   1.728  0.6860 -0.3913 -0.2816
 4205TIP3   OH234105   0.347   1.279   4.741  0.6982 -0.5223  0.5741
 4205TIP3    H134106   0.266   1.287   4.791 -0.1211 -0.4229 -0.7612
 4205TIP3    H234107   0.319   1.275   4.650  2.1855 -0.6891  0.1147
 4206TIP3   OH234108   1.766   3.634   1.504 -0.5927 -0.3037  0.2174
 4206TIP3    H134109   1.786   3.715   1.457  2.5398 -1.2801 -0.2463
 4206TIP3    H234110   1.751   3.661   1.594 -0.6477  0.9060 -0.1439
 4207TIP3   OH234111   1.232   2.105  11.672 -0.5061 -0.2534  0.4554
 4207TIP3    H134112   1.220   2.152  11.589 -0.3088  2.1696  1.7551
 4207TIP3    H234113   1.326   2.091  11.679 -0.2767  1.6225  1.3500
 4208TIP3   OH234114   4.591   4.217  17.164 -0.2655  0.0581 -0.0479
 4208TIP3    H134115   4.675   4.176  17.183  0.1741  1.0782  0.2254
 4208TIP3    H234116   4.529   4.145  17.163  0.6284 -0.7132 -0.3312
 4209TIP3   OH234117   3.262   1.622  13.103 -0.2332  0.2050 -0.0764
 4209TIP3    H134118   3.282   1.699  13.049 -0.2876  0.3887  0.1690
 4209TIP3    H234119   3.274   1.548  13.043 -1.3100  0.4702 -0.6270
 4210TIP3   OH234120   6.307   4.215  16.512  0.5172  0.0646 -0.1385
 4210TIP3    H134121   6.393   4.202  16.551 -0.1497 -0.1546  1.2847
 4210TIP3    H234122   6.314   4.300  16.467  2.1195 -0.9471 -1.8820
 4211TIP3   OH234123   5.351   2.944  12.022 -0.0799 -0.3518 -0.3541
 4211TIP3    H134124   5.277   2.972  11.967  1.0282  0.5121 -1.4478
 4211TIP3    H234125   5.381   2.862  11.982 -2.4121 -2.4435  1.9898
 4212TIP3   OH234126   6.394   1.005   2.262 -0.0755 -0.1635 -0.0242
 4212TIP3    H134127   6.323   1.011   2.198 -0.4823  0.0018  0.4377
 4212TIP3    H234128   6.365   0.940   2.325  0.1780 -0.0883  0.1722
 4213TIP3   OH234129   1.523   0.642  16.828 -0.4133 -0.1227 -0.5183
 4213TIP3    H134130   1.558   0.580  16.891 -0.4967  2.2875  1.9684
 4213TIP3    H234131   1.428   0.631  16.834 -0.4633  0.9738  0.6722
 4214TIP3   OH234132   4.858   1.402   4.658 -0.2996  0.6641  1.0522
 4214TIP3    H134133   4.945   1.442   4.653 -1.0273  2.2002  0.0052
 4214TIP3    H234134   4.856   1.340   4.585  0.8116 -1.2918  2.6429
 4215TIP3   OH234135   2.804   1.956  15.340 -0.4791 -0.5969 -0.3665
 4215TIP3    H134136   2.871   1.925  15.278  2.0654 -0.1922  2.0847
 4215TIP3    H234137   2.780   2.042  15.308 -0.4457 -1.0898 -1.7512
 4216TIP3   OH234138   1.427   3.538  14.561 -0.6658  0.5515 -0.2814
 4216TIP3    H134139   1.413   3.525  14.467 -0.6778  1.1960 -0.3748
 4216TIP3    H234140   1.518   3.515  14.575 -0.7179  0.2616 -0.4170
 4217TIP3   OH234141   4.423   2.869   6.250  0.0981  0.3514 -0.2741
 4217TIP3    H134142   4.376   2.937   6.202  0.6211  0.8401 -0.0983
 4217TIP3    H234143   4.425   2.901   6.341 -2.4380 -1.3888  0.4381
 4218TIP3   OH234144   0.256   3.712  14.054 -0.2895 -0.0601  0.4292
 4218TIP3    H134145   0.277   3.643  14.117 -2.9030 -0.3958  0.9875
 4218TIP3    H234146   0.330   3.713  13.993  1.2030 -1.2819  2.1756
 4219TIP3   OH234147   0.776   4.032  13.648 -0.2682 -0.0656 -0.1475
 4219TIP3    H134148   0.742   4.081  13.723  1.0548  1.2573 -0.3878
 4219TIP3    H234149   0.787   3.942  13.681 -2.4700 -0.1768  0.3730
 4220TIP3   OH234150   1.181   4.872  14.492  0.4019 -0.2290  0.2044
 4220TIP3    H134151   1.219   4.787  14.515  3.7424  2.1012  3.7521
 4220TIP3    H234152   1.243   4.910  14.430 -1.1883 -0.3857 -1.5245
 4221TIP3   OH234153   2.751   6.562   3.711 -0.4599  0.4474 -0.3326
 4221TIP3    H134154   2.779   6.558   3.620 -1.2544 -0.1579 -0.5521
 4221TIP3    H234155   2.737   6.470   3.736 -0.7723  0.6483  0.2359
 4222TIP3   OH234156   1.867   4.720   1.885 -0.1642 -0.7534  0.0623
 4222TIP3    H134157   1.958   4.706   1.912 -0.6031 -0.2947  1.8383
 4222TIP3    H234158   1.873   4.746   1.792  1.6542  1.0049  0.6246
 4223TIP3   OH234159   3.409   6.452   6.707 -0.6327 -0.1991  0.1081
 4223TIP3    H134160   3.465   6.401   6.765  0.1219  1.1670  0.6190
 4223TIP3    H234161   3.464   6.470   6.630 -0.7813  0.0792  0.0642
 4224TIP3   OH234162   3.426   0.991   5.555  0.2705  0.4400  0.0343
 4224TIP3    H134163   3.432   1.082   5.525 -1.4169  0.8795  0.9663
 4224TIP3    H234164   3.332   0.973   5.557  0.5537 -0.9802  0.9140
 4225TIP3   OH234165   5.355   4.851  12.733 -0.3143 -0.5024 -0.1360
 4225TIP3    H134166   5.261   4.862  12.742 -0.1653  0.8428 -0.0549
 4225TIP3    H234167   5.393   4.913  12.795  0.6232  1.0125 -2.1680
 4226TIP3   OH234168   4.443   3.912   2.389 -0.3666 -0.1054 -0.2287
 4226TIP3    H134169   4.389   3.949   2.459 -1.0600 -1.2378 -0.1557
 4226TIP3    H234170   4.413   3.957   2.310  0.1468  0.8906  0.1325
 4227TIP3   OH234171   2.051   6.244  13.983 -0.3869  0.4877  0.0664
 4227TIP3    H134172   2.045   6.157  14.021 -2.1685 -0.3158 -1.9322
 4227TIP3    H234173   2.139   6.249  13.946 -0.2837 -0.4889  0.1705
 4228TIP3   OH234174   1.412   5.455   1.216  0.5066 -0.1150  0.6110
 4228TIP3    H134175   1.401   5.400   1.294  2.1368 -4.5343 -2.0916
 4228TIP3    H234176   1.323   5.478   1.190 -0.0370  2.9672  4.6400
 4229TIP3   OH234177   1.090   4.253  12.504 -0.4863  0.1146  0.6577
 4229TIP3    H134178   1.079   4.211  12.590  0.3352 -0.0744  0.6734
 4229TIP3    H234179   1.173   4.300  12.511 -0.6812  0.5342  0.1410
 4230TIP3   OH234180   6.374   1.828  12.524  0.3283 -0.5739 -0.1163
 4230TIP3    H134181   6.432   1.817  12.600 -0.2049  2.8477  0.8735
 4230TIP3    H234182   6.430   1.867  12.457 -0.3625  1.1394  0.2685
 4231TIP3   OH234183   6.795   2.968  13.457 -0.4655 -0.2156  0.2255
 4231TIP3    H134184   6.710   2.997  13.490  0.0883 -0.8434  2.2840
 4231TIP3    H234185   6.774   2.905  13.387 -1.6723  0.0892  0.3168
 4232TIP3   OH234186   2.997   6.527   3.845  0.6422 -0.0799  0.2337
 4232TIP3    H134187   2.911   6.553   3.811  2.2161  0.8008 -3.3033
 4232TIP3    H234188   2.997   6.431   3.839  0.2646 -0.0259 -0.7304
 4233TIP3   OH234189   2.503   1.781   5.341  0.3050 -0.0060  0.5396
 4233TIP3    H134190   2.466   1.859   5.383  2.9414 -0.4789  3.9307
 4233TIP3    H234191   2.590   1.809   5.312  0.0189 -0.8270 -1.2104
 4234TIP3   OH234192   4.105   0.819  16.225 -0.1981 -0.7966  0.5866
 4234TIP3    H134193   4.138   0.812  16.136 -1.8496  1.7022 -0.2895
 4234TIP3    H234194   4.183   0.833  16.279  0.5139  1.7275 -1.0142
 4235TIP3   OH234195   1.270   4.232  11.269 -0.5347  0.1296  0.7381
 4235TIP3    H134196   1.277   4.153  11.216 -0.4002 -0.7909  2.1076
 4235TIP3    H234197   1.265   4.303  11.206  1.8473 -0.7589 -0.5125
 4236TIP3   OH234198   1.714   3.553  16.276 -0.6570  0.2568 -0.5226
 4236TIP3    H134199   1.763   3.570  16.357  0.3835  0.4202 -1.1771
 4236TIP3    H234200   1.726   3.459  16.260  1.4300  0.7438 -1.9521
 4237TIP3   OH234201   3.256   1.589   1.461 -0.2498  0.5748  0.4269
 4237TIP3    H134202   3.283   1.680   1.448  0.8677  0.2301  0.2418
 4237TIP3    H234203   3.283   1.545   1.380  0.4158 -0.1930  1.0656
 4238TIP3   OH234204   1.421   4.259  15.436  0.1626 -0.1135  0.0953
 4238TIP3    H134205   1.374   4.176  15.444  0.1514 -0.1536 -0.4203
 4238TIP3    H234206   1.354   4.326  15.451 -0.1144 -0.1635 -0.9129
 4239TIP3   OH234207   2.023   4.054   2.023  0.2642  0.1702  0.4838
 4239TIP3    H134208   2.027   3.977   2.080 -1.6847 -0.3416 -0.0312
 4239TIP3    H234209   2.044   4.019   1.936  1.4867  0.6349  0.5747
 4240TIP3   OH234210   0.659   1.428  13.339  0.0478 -0.4053  0.4378
 4240TIP3    H134211   0.595   1.445  13.408  0.5943  0.1696  0.8121
 4240TIP3    H234212   0.730   1.380  13.383  0.5738  0.2989  0.3738
 4241TIP3   OH234213   0.954   5.705   3.579 -0.6063  0.6321 -0.3868
 4241TIP3    H134214   0.870   5.750   3.582 -1.4271 -0.9447  1.4741
 4241TIP3    H234215   1.013   5.761   3.629 -0.9688  0.9115 -0.2704
 4242TIP3   OH234216   5.858   6.510  15.864 -0.9164 -0.2230 -0.5465
 4242TIP3    H134217   5.812   6.576  15.813  0.7339 -0.4546 -2.4456
 4242TIP3    H234218   5.883   6.554  15.945 -0.9422  1.1086 -1.2549
 4243TIP3   OH234219   4.287   5.190  12.155  0.5194  0.1188 -0.4158
 4243TIP3    H134220   4.303   5.211  12.247 -1.0284 -0.6999  0.0520
 4243TIP3    H234221   4.192   5.197  12.144  0.4867 -1.6014 -1.4915
 4244TIP3   OH234222   4.671   6.624   1.085  0.0988  0.3590  0.2607
 4244TIP3    H134223   4.749   6.627   1.140  0.7011  1.2989 -0.6334
 4244TIP3    H234224   4.702   6.647   0.998 -0.9208 -0.7181 -0.4031
 4245TIP3   OH234225   0.607   0.414  12.056 -0.6811 -0.1018  0.0285
 4245TIP3    H134226   0.694   0.416  12.016 -0.0242 -1.3508  1.3470
 4245TIP3    H234227   0.556   0.476  12.005  0.7684  0.0580 -1.2733
 4246TIP3   OH234228   1.356   5.564  11.226  0.3113 -0.5599  0.4193
 4246TIP3    H134229   1.394   5.643  11.264  1.0508 -0.6915 -0.0447
 4246TIP3    H234230   1.286   5.596  11.169 -1.1145 -0.3806  2.2269
 4247TIP3   OH234231   0.527   5.909  11.895 -0.2733 -0.4667 -0.1928
 4247TIP3    H134232   0.555   5.929  11.985  1.0928  1.5924 -1.0275
 4247TIP3    H234233   0.432   5.908  11.899 -0.2527  0.8241  1.0512
 4248TIP3   OH234234   2.890   4.212   1.913 -0.2927  0.2765  0.3757
 4248TIP3    H134235   2.887   4.201   2.008 -1.1206  1.1802  0.4609
 4248TIP3    H234236   2.919   4.127   1.880  0.3719  0.0776  1.4581
 4249TIP3   OH234237   6.317   5.384   5.064  0.1573  0.0376  0.1904
 4249TIP3    H134238   6.316   5.442   4.988  0.2774 -0.3561 -0.1103
 4249TIP3    H234239   6.271   5.433   5.132 -0.2764  0.2327 -0.2446
 4250TIP3   OH234240   4.386   5.073  11.504 -0.1003 -0.5898 -0.0595
 4250TIP3    H134241   4.384   5.147  11.566 -1.3680 -0.4397 -0.2645
 4250TIP3    H234242   4.307   5.023  11.524 -0.0832 -1.0023 -0.9946
 4251TIP3   OH234243   5.121   4.928  12.829  0.4269  0.2992 -0.5647
 4251TIP3    H134244   5.081   4.887  12.906 -3.9196  0.9302 -2.3437
 4251TIP3    H234245   5.131   5.020  12.853  1.2768  0.0560  0.0428
 4252TIP3   OH234246   6.450   0.499   4.897  0.4360 -0.5378 -0.4004
 4252TIP3    H134247   6.500   0.520   4.818 -1.0104 -1.4234 -1.5872
 4252TIP3    H234248   6.381   0.565   4.899 -0.0654 -1.0623 -0.3703
 4253TIP3   OH234249   5.236   5.419   4.031 -0.2760 -0.3174  0.5022
 4253TIP3    H134250   5.225   5.504   3.988  0.3929 -0.7538 -0.5416
 4253TIP3    H234251   5.146   5.390   4.049 -0.6272 -0.6726 -1.6848
 4254TIP3   OH234252   6.299   3.979  15.920 -0.1494  0.5377  0.3433
 4254TIP3    H134253   6.241   4.045  15.956  1.6824  1.7881  1.0676
 4254TIP3    H234254   6.387   4.006  15.948  0.9065 -0.6666 -1.7014
 4255TIP3   OH234255   4.676   5.412  13.593 -0.1921 -0.0038  0.3957
 4255TIP3    H134256   4.758   5.385  13.636 -0.2530 -0.8269 -0.0105
 4255TIP3    H234257   4.703   5.435  13.504 -0.5270 -1.0163  0.0308
 4256TIP3   OH234258   4.419   1.330   0.287  0.2369 -0.6672  0.1241
 4256TIP3    H134259   4.400   1.374   0.204 -0.6727 -0.3769  0.4777
 4256TIP3    H234260   4.340   1.342   0.339  0.7320 -1.0056  0.9693
 4257TIP3   OH234261   0.794   1.950  13.056  0.7912  0.0873 -0.3594
 4257TIP3    H134262   0.782   2.007  12.980  1.2652  0.9557  0.2038
 4257TIP3    H234263   0.869   1.987  13.102  1.4580 -1.3275 -0.2719
 4258TIP3   OH234264   0.666   0.907  13.214  0.1807  0.0675 -0.2923
 4258TIP3    H134265   0.620   0.922  13.296 -0.7998  0.2781 -0.8656
 4258TIP3    H234266   0.601   0.866  13.157 -0.1426  2.7828 -1.9954
 4259TIP3   OH234267   4.824   3.203   0.464  0.7301  0.2120 -0.2447
 4259TIP3    H134268   4.878   3.254   0.524 -0.4634  0.1971  0.8527
 4259TIP3    H234269   4.743   3.253   0.455 -0.1659 -1.1140  0.2654
 4260TIP3   OH234270   2.174   4.844  16.983  0.0041  0.2366  0.8254
 4260TIP3    H134271   2.198   4.937  16.975 -0.6664  0.3236 -0.2936
 4260TIP3    H234272   2.198   4.806  16.899 -3.0171  0.1751 -0.0781
 4261TIP3   OH234273   0.043   5.827  16.778 -0.2220  0.2047 -0.5584
 4261TIP3    H134274  -0.025   5.814  16.712 -2.3451  1.4497  1.3174
 4261TIP3    H234275  -0.002   5.867  16.852  2.2933 -0.2480  1.3008
 4262TIP3   OH234276   2.138   2.780   6.084  0.2173  0.1624 -0.0203
 4262TIP3    H134277   2.146   2.821   5.998 -2.0802  0.6694 -0.0106
 4262TIP3    H234278   2.137   2.686   6.066 -0.3170  0.2707 -0.5526
 4263TIP3   OH234279   1.469   1.411   0.336 -0.1203 -0.5515 -0.2378
 4263TIP3    H134280   1.517   1.492   0.351 -0.0364 -1.0083  2.1211
 4263TIP3    H234281   1.466   1.368   0.422 -0.7926 -2.6954 -1.2918
 4264TIP3   OH234282   5.856   4.101  16.034  0.3222 -1.1488 -0.0876
 4264TIP3    H134283   5.790   4.111  15.966  1.0311  0.0804 -0.6099
 4264TIP3    H234284   5.825   4.155  16.106 -0.5990 -2.7120  0.7192
 4265TIP3   OH234285   5.985   4.396  12.153  0.3190 -0.3944  0.0718
 4265TIP3    H134286   5.921   4.358  12.213  0.4973  0.2041  0.6496
 4265TIP3    H234287   6.070   4.364  12.185  0.4987  0.7415  0.7670
 4266TIP3   OH234288   3.061   6.216   4.462  0.3186  0.1419  0.0917
 4266TIP3    H134289   3.072   6.122   4.447 -0.2477  0.1631 -0.4824
 4266TIP3    H234290   3.090   6.257   4.381 -3.6525  0.2130 -1.3989
 4267TIP3   OH234291   2.940   6.285  13.132  0.2479 -0.6430  0.1336
 4267TIP3    H134292   2.941   6.205  13.079 -0.5024 -0.1509 -0.6528
 4267TIP3    H234293   2.914   6.256  13.220 -0.7254 -1.1782 -0.3185
 4268TIP3   OH234294   2.920   1.188   2.590 -0.1173  0.0306 -0.2377
 4268TIP3    H134295   2.957   1.196   2.502  0.7662  0.1366  0.1343
 4268TIP3    H234296   2.995   1.201   2.648 -0.6293 -0.4120  0.5252
 4269TIP3   OH234297   5.568   5.048   6.537  0.1748 -0.0377 -0.1501
 4269TIP3    H134298   5.647   5.001   6.563  0.7421  0.7158 -0.4778
 4269TIP3    H234299   5.555   5.113   6.606  1.5977  1.8631 -1.6107
 4270TIP3   OH234300   5.296   0.114  16.395 -0.2264 -0.3372  0.3462
 4270TIP3    H134301   5.326   0.034  16.438  1.7533  0.4849  0.5517
 4270TIP3    H234302   5.291   0.179  16.466  0.7922  0.4068 -0.2424
 4271TIP3   OH234303   6.458   4.977   2.123  0.0781 -0.5642 -0.7108
 4271TIP3    H134304   6.535   4.940   2.166  0.2413  0.5973 -0.0035
 4271TIP3    H234305   6.489   5.004   2.037  0.8867  1.5342  0.2298
 4272TIP3   OH234306   1.761   4.730  10.642 -0.0189 -0.0475  0.4959
 4272TIP3    H134307   1.854   4.750  10.632 -0.0354 -0.1495  0.1306
 4272TIP3    H234308   1.719   4.770  10.566 -0.4440  1.0769  1.3133
 4273TIP3   OH234309   3.475   4.933  12.650  0.7360  0.0175 -0.1066
 4273TIP3    H134310   3.449   4.872  12.720 -1.3997  0.9716 -0.0327
 4273TIP3    H234311   3.451   4.888  12.569  1.9482 -0.4995 -0.1945
 4274TIP3   OH234312   3.473   0.676  11.498 -0.2834  1.1173  0.4743
 4274TIP3    H134313   3.385   0.709  11.479  0.0101  1.2185 -0.7069
 4274TIP3    H234314   3.532   0.745  11.467  0.2648  0.3763 -0.1245
 4275TIP3   OH234315   6.566   5.844  13.354 -0.3720 -0.0060 -0.2459
 4275TIP3    H134316   6.551   5.811  13.443 -1.1725 -1.3186 -0.8576
 4275TIP3    H234317   6.486   5.823  13.307  0.3484  0.0013 -1.4826
 4276TIP3   OH234318   4.767   2.817  10.285 -0.2278 -0.4281 -0.0721
 4276TIP3    H134319   4.832   2.881  10.257 -1.5670  0.4395 -1.2959
 4276TIP3    H234320   4.813   2.760  10.346  1.1515  1.3507  0.5910
 4277TIP3   OH234321   5.243   0.013   3.669 -0.2689  0.1122  0.1576
 4277TIP3    H134322   5.242   0.026   3.574  1.9147 -0.0766  0.0803
 4277TIP3    H234323   5.205   0.093   3.705 -2.0375 -0.2338 -0.8911
 4278TIP3   OH234324   5.926   0.756   0.074  0.0712 -0.5637 -0.0836
 4278TIP3    H134325   5.987   0.830   0.068 -1.4772  0.8090  0.8811
 4278TIP3    H234326   5.899   0.740  -0.016 -0.8535  1.1244 -0.1105
 4279TIP3   OH234327   5.888   6.672   0.610  0.3200 -0.4112 -0.1017
 4279TIP3    H134328   5.858   6.758   0.637 -2.2981 -1.8905  1.8970
 4279TIP3    H234329   5.809   6.626   0.583  1.7339 -2.0627 -1.5201
 4280TIP3   OH234330   0.270   1.021  13.232 -0.1449 -0.0305  0.1244
 4280TIP3    H134331   0.255   1.115  13.243 -0.6624 -0.1888  0.8206
 4280TIP3    H234332   0.295   0.990  13.319  0.9795 -0.3711 -0.3116
 4281TIP3   OH234333   6.412   4.421   2.607  0.4977 -0.5972 -1.2728
 4281TIP3    H134334   6.417   4.516   2.616  1.0253 -0.6501 -0.9398
 4281TIP3    H234335   6.332   4.405   2.558 -0.8395 -0.0992  0.6974
 4282TIP3   OH234336   0.593   1.184  17.139  0.0058 -0.2199 -0.8985
 4282TIP3    H134337   0.613   1.139  17.221  4.7829  2.0402 -0.6427
 4282TIP3    H234338   0.624   1.126  17.070  2.3864  0.7869 -0.7314
 4283TIP3   OH234339   3.688   5.717   3.688  0.1986 -0.2345  0.5960
 4283TIP3    H134340   3.759   5.718   3.753  0.6879  2.0279  0.0887
 4283TIP3    H234341   3.618   5.768   3.728 -0.4066 -0.8280  0.2990
 4284TIP3   OH234342   0.595   5.199   1.028  0.7269  0.1695  0.4568
 4284TIP3    H134343   0.579   5.106   1.041  0.2903  0.3183  0.9973
 4284TIP3    H234344   0.651   5.203   0.950 -0.6693 -0.4441 -0.6053
 4285TIP3   OH234345   5.955   0.944  15.736 -0.0313 -0.3395  0.0739
 4285TIP3    H134346   5.906   1.017  15.774 -0.4691 -0.6597  0.1389
 4285TIP3    H234347   6.043   0.978  15.722 -0.0727  0.0210  0.6571
 4286TIP3   OH234348   6.757   2.129  15.892 -0.6151  0.4123 -0.1338
 4286TIP3    H134349   6.704   2.184  15.833  0.6087  1.0417 -0.6592
 4286TIP3    H234350   6.745   2.040  15.858 -0.0837  0.7412 -1.2333
 4287TIP3   OH234351   4.038   1.899   0.818  0.1473  0.2302  0.1798
 4287TIP3    H134352   3.965   1.899   0.757  0.2564  0.3086  0.0488
 4287TIP3    H234353   4.043   1.808   0.849 -0.2747  0.3193  0.5126
 4288TIP3   OH234354   4.339   6.243  12.246 -0.3879 -0.4321 -0.1691
 4288TIP3    H134355   4.346   6.156  12.287  1.6117 -0.2979 -0.1707
 4288TIP3    H234356   4.422   6.253  12.199 -1.5787  0.5102 -2.1128
 4289TIP3   OH234357   6.763   3.731   0.810  0.7068 -0.0703 -0.0121
 4289TIP3    H134358   6.760   3.659   0.748 -0.1927  1.0024 -1.2652
 4289TIP3    H234359   6.840   3.715   0.864  0.8015 -1.6725 -0.6195
 4290TIP3   OH234360   5.586   0.234   2.477  0.6606 -0.2088  0.2784
 4290TIP3    H134361   5.651   0.169   2.449  0.6332 -0.4059  0.6727
 4290TIP3    H234362   5.583   0.297   2.405  0.9374 -0.4589  0.0447
 4291TIP3   OH234363   2.772   5.780  16.175  0.3956  0.4617  0.2717
 4291TIP3    H134364   2.844   5.825  16.219  0.6756 -1.2621  1.6305
 4291TIP3    H234365   2.805   5.692  16.158 -1.3483 -0.3353  0.8423
 4292TIP3   OH234366   3.163   6.645  11.284 -0.0550 -0.0292 -0.3904
 4292TIP3    H134367   3.259   6.649  11.284  0.0441 -1.7995 -0.7647
 4292TIP3    H234368   3.137   6.693  11.206  0.4967  1.0148  0.0620
 4293TIP3   OH234369   5.219   5.605  10.700  0.0046  0.8903 -0.3096
 4293TIP3    H134370   5.250   5.598  10.609 -1.0860  0.6950 -0.6731
 4293TIP3    H234371   5.292   5.572  10.752  0.4619  0.5416 -1.1498
 4294TIP3   OH234372   0.909   0.735   7.020 -0.5034 -0.0095  0.2340
 4294TIP3    H134373   0.939   0.660   6.969  0.3713 -1.2216  2.4441
 4294TIP3    H234374   0.857   0.787   6.959  1.6097 -0.6948 -2.2294
 4295TIP3   OH234375   3.315   5.925  16.112  0.0096  0.3405 -0.0498
 4295TIP3    H134376   3.298   5.849  16.057  1.1156 -0.2059  0.3401
 4295TIP3    H234377   3.374   5.892  16.180  3.4957  2.3936 -1.9799
 4296TIP3   OH234378   2.614   0.719   1.731 -0.2939 -0.1260  0.6060
 4296TIP3    H134379   2.638   0.628   1.714 -1.3518 -0.5475  1.3469
 4296TIP3    H234380   2.644   0.736   1.820 -0.5950  0.0822  0.6693
 4297TIP3   OH234381   5.722   4.399   2.273 -0.2475  0.2844  0.2542
 4297TIP3    H134382   5.808   4.440   2.278 -1.2163  2.2961  1.0371
 4297TIP3    H234383   5.694   4.412   2.183  0.9525 -1.9259 -0.5005
 4298TIP3   OH234384   6.475   1.183   5.055  0.0574  0.0196  0.7191
 4298TIP3    H134385   6.409   1.129   5.011 -1.5033  0.9211  1.8955
 4298TIP3    H234386   6.437   1.201   5.141  1.4405  1.3409  1.0723
 4299TIP3   OH234387   5.558   4.019   3.702  0.6571 -0.1555 -0.0078
 4299TIP3    H134388   5.577   3.925   3.702  0.0781 -0.3028 -2.1606
 4299TIP3    H234389   5.481   4.028   3.758  0.9608 -0.9070  0.5359
 4300TIP3   OH234390   5.532   3.675  14.384  0.1526 -0.7712  0.2302
 4300TIP3    H134391   5.550   3.763  14.351 -0.9192 -0.8119 -0.4952
 4300TIP3    H234392   5.510   3.624  14.306 -1.3439 -1.1384  0.8720
 4301TIP3   OH234393   5.346   4.911  16.931  0.3996 -0.1838 -0.3182
 4301TIP3    H134394   5.376   4.824  16.903 -2.5922 -1.0912 -0.8843
 4301TIP3    H234395   5.289   4.894  17.006 -0.2428  1.2836 -0.4506
 4302TIP3   OH234396   5.700   1.976   0.718  0.0498  0.0602 -0.1292
 4302TIP3    H134397   5.696   1.987   0.623 -1.1949  0.0923 -0.0828
 4302TIP3    H234398   5.728   2.061   0.751  0.5229  0.0361 -0.4692
 4303TIP3   OH234399   4.031   2.368   5.431 -0.1847 -0.3399 -0.0054
 4303TIP3    H134400   4.111   2.415   5.454 -0.5588  1.4440 -2.1882
 4303TIP3    H234401   4.016   2.309   5.504  2.4507  0.1795  1.0039
 4304TIP3   OH234402   0.067   5.129   3.535 -0.0963 -0.1816 -0.0117
 4304TIP3    H134403   0.109   5.051   3.571  0.6498  0.4132  0.4126
 4304TIP3    H234404   0.021   5.168   3.609  3.5183  2.4289  0.9413
 4305TIP3   OH234405   0.375   2.677   4.822 -0.3713  0.1450  0.1124
 4305TIP3    H134406   0.364   2.759   4.870 -3.3899  0.0358 -0.2876
 4305TIP3    H234407   0.394   2.612   4.889  0.7584  0.9344  0.5662
 4306TIP3   OH234408   1.701   1.202   0.902 -0.0897 -0.2093 -0.5893
 4306TIP3    H134409   1.611   1.197   0.936 -1.5660  0.9849 -4.0440
 4306TIP3    H234410   1.726   1.293   0.915 -0.4739  0.1323 -2.0700
 4307TIP3   OH234411   0.639   3.836  14.061 -0.1299  0.3931  0.2722
 4307TIP3    H134412   0.651   3.901  13.991  0.5524  0.6125  0.5954
 4307TIP3    H234413   0.570   3.779  14.028  1.5785 -0.7271 -1.4683
 4308TIP3   OH234414   5.378   2.082  15.630  0.6036 -0.4352 -0.6033
 4308TIP3    H134415   5.301   2.063  15.683  0.8497 -0.7439 -0.3550
 4308TIP3    H234416   5.432   2.003  15.636  1.6091  0.3102  0.4161
 4309TIP3   OH234417   0.673   0.396   4.507  0.1611  0.4654 -0.0962
 4309TIP3    H134418   0.617   0.330   4.466 -0.3969 -0.4995  2.1498
 4309TIP3    H234419   0.746   0.407   4.446 -0.1500 -1.6453 -0.8801
 4310TIP3   OH234420   4.026   5.442  11.884 -0.2809  0.1969  0.0883
 4310TIP3    H134421   4.035   5.462  11.977 -0.6727  1.1886 -0.0851
 4310TIP3    H234422   4.085   5.502  11.840  2.4388 -2.5118 -0.1058
 4311TIP3   OH234423   5.130   3.402  15.748  0.2856  0.4884  0.0967
 4311TIP3    H134424   5.157   3.464  15.816  2.3872  1.6685 -1.7673
 4311TIP3    H234425   5.107   3.457  15.673 -1.6160 -0.8221 -0.3249
 4312TIP3   OH234426   3.713   0.890   4.638  0.3952 -0.1497  0.2542
 4312TIP3    H134427   3.705   0.834   4.715  0.1232 -0.6112 -0.0957
 4312TIP3    H234428   3.626   0.886   4.597  0.1489  1.1491  0.6325
 4313TIP3   OH234429   1.496   6.213   0.985  0.3468  0.0068 -0.0041
 4313TIP3    H134430   1.518   6.275   1.054 -1.1851  0.3860  0.1563
 4313TIP3    H234431   1.484   6.130   1.031  0.5223 -0.0037  0.0241
 4314TIP3   OH234432   6.709   3.369   4.599 -0.1657  0.1555 -0.6150
 4314TIP3    H134433   6.671   3.303   4.541 -0.7375 -0.2899  0.2432
 4314TIP3    H234434   6.653   3.367   4.677  0.8155  0.4621  0.1064
 4315TIP3   OH234435   0.269   3.691  12.454 -0.1700  0.8365  0.6952
 4315TIP3    H134436   0.361   3.668  12.468 -0.6011 -1.4135  0.1067
 4315TIP3    H234437   0.252   3.666  12.363 -1.6711  0.0295  1.1689
 4316TIP3   OH234438   4.107   5.558  12.141 -0.1852  0.3873 -0.1941
 4316TIP3    H134439   4.188   5.600  12.169  0.0835 -0.4472  0.3085
 4316TIP3    H234440   4.040   5.595  12.197  0.0022  0.3633  0.0447
 4317TIP3   OH234441   1.436   4.856   2.474 -0.5726 -0.0061  0.0277
 4317TIP3    H134442   1.388   4.774   2.469  1.5836 -1.3855  1.2502
 4317TIP3    H234443   1.384   4.911   2.533 -1.7494 -0.6959 -0.3659
 4318TIP3   OH234444   6.271   3.668  15.154  0.0342 -0.1586  0.1908
 4318TIP3    H134445   6.224   3.619  15.221 -1.6530  3.1525  1.5185
 4318TIP3    H234446   6.356   3.688  15.194  0.0388 -0.4477  0.3275
 4319TIP3   OH234447   2.531   0.848   4.925 -0.1804 -0.5230 -0.0394
 4319TIP3    H134448   2.619   0.817   4.946 -0.0808  0.3277  0.8447
 4319TIP3    H234449   2.489   0.774   4.880  0.5190 -1.4039  0.7461
 4320TIP3   OH234450   2.704   3.689  12.642  0.1946 -0.1456  0.2306
 4320TIP3    H134451   2.740   3.746  12.710  0.5663  0.0294 -0.1059
 4320TIP3    H234452   2.652   3.748  12.587  1.8616  0.1786 -1.0343
 4321TIP3   OH234453   5.481   0.192  14.187  0.3461  0.1044 -0.6259
 4321TIP3    H134454   5.520   0.112  14.223  1.4858  0.9607  0.0920
 4321TIP3    H234455   5.543   0.220  14.119  1.4461  1.9110  1.0619
 4322TIP3   OH234456   2.159   5.661  13.653 -0.4840  0.2276  0.0155
 4322TIP3    H134457   2.239   5.713  13.652 -0.7178  0.5890  0.3397
 4322TIP3    H234458   2.108   5.693  13.578 -0.7731  0.6874  0.4096
 4323TIP3   OH234459   4.084   0.989  16.908 -0.2798 -0.2089  0.3151
 4323TIP3    H134460   4.133   1.061  16.948 -1.2034  0.7490 -0.2397
 4323TIP3    H234461   4.059   0.933  16.981  1.7640 -0.8137  0.5964
 4324TIP3   OH234462   3.629   3.578  16.807  0.4480  0.2007  0.1830
 4324TIP3    H134463   3.535   3.583  16.794  0.4548  1.2729  0.4925
 4324TIP3    H234464   3.667   3.626  16.734  0.7415  0.0698  0.2440
 4325TIP3   OH234465   1.018   5.288   0.170  0.7702 -0.0999  0.4807
 4325TIP3    H134466   0.987   5.340   0.096  0.6778 -1.7467 -0.6482
 4325TIP3    H234467   0.939   5.261   0.216  0.7539 -0.3568  0.3024
 4326TIP3   OH234468   1.213   5.248  10.477  0.0773 -0.4387  0.2532
 4326TIP3    H134469   1.167   5.170  10.446  0.4958  0.2609 -2.2157
 4326TIP3    H234470   1.235   5.228  10.568 -0.1252 -3.0712 -0.2306
 4327TIP3   OH234471   0.736   5.520  12.644  0.6673  0.5047  0.5221
 4327TIP3    H134472   0.762   5.497  12.555 -3.5693  1.8280 -1.2214
 4327TIP3    H234473   0.760   5.613  12.652 -0.4260  0.8308  0.1206
 4328TIP3   OH234474   5.994   4.032  10.248 -0.4050 -0.1681  0.3999
 4328TIP3    H134475   6.089   4.021  10.255 -0.3185  1.1872  1.8708
 4328TIP3    H234476   5.958   3.967  10.308 -0.4184 -0.7310 -0.2117
 4329TIP3   OH234477   1.763   1.948  12.849 -0.5944  0.2122  0.5493
 4329TIP3    H134478   1.810   1.956  12.932 -1.5020 -0.1730  1.1143
 4329TIP3    H234479   1.706   1.871  12.861 -0.5748  0.0264 -0.5059
 4330TIP3   OH234480   2.090   4.519   2.162 -0.0656  0.3762  0.1802
 4330TIP3    H134481   2.133   4.572   2.095 -1.1306  2.4414  1.0754
 4330TIP3    H234482   2.005   4.560   2.174  0.1890  0.2279  2.9607
 4331TIP3   OH234483   1.781   6.705  11.548  0.0155 -0.1309 -0.3401
 4331TIP3    H134484   1.805   6.623  11.590  0.9663 -0.9027 -2.3155
 4331TIP3    H234485   1.813   6.697  11.458 -1.0380  1.8710 -0.9456
 4332TIP3   OH234486   3.457   2.680   0.101  0.3491 -0.6653  0.0826
 4332TIP3    H134487   3.530   2.714   0.152  0.9956 -3.5717  1.2100
 4332TIP3    H234488   3.379   2.719   0.140  1.2895  4.2358 -2.5326
 4333TIP3   OH234489   1.221   5.959   5.198 -0.3247  0.0525  0.1004
 4333TIP3    H134490   1.150   6.005   5.242 -0.3719 -1.2115  1.3863
 4333TIP3    H234491   1.187   5.870   5.186  1.2099 -0.7056  1.1912
 4334TIP3   OH234492   0.017   3.156  11.348 -0.4451 -0.0687  1.0937
 4334TIP3    H134493   0.057   3.233  11.390 -1.4903  0.8881  0.3608
 4334TIP3    H234494  -0.072   3.183  11.329 -0.4407 -1.0367 -0.3354
 4335TIP3   OH234495   3.687   2.984  11.736  0.2238  0.3115  0.0078
 4335TIP3    H134496   3.761   3.004  11.679  0.9705 -0.1732  0.7937
 4335TIP3    H234497   3.689   2.889  11.745 -1.6667  0.1016 -1.5157
 4336TIP3   OH234498   3.644   1.381   0.429 -0.5633 -0.6603 -0.7379
 4336TIP3    H134499   3.620   1.365   0.520 -1.5099  1.8265 -0.4900
 4336TIP3    H234500   3.677   1.471   0.429 -0.1619 -0.7840 -2.7694
 4337TIP3   OH234501   1.410   5.264  16.246  0.4263 -0.3913  0.1209
 4337TIP3    H134502   1.383   5.182  16.288  1.2561 -0.8309 -0.1798
 4337TIP3    H234503   1.381   5.254  16.155 -0.8357  0.3080  0.4310
 4338TIP3   OH234504   3.247   1.231   1.410 -0.1379  0.6795  0.3669
 4338TIP3    H134505   3.289   1.149   1.387  0.3221  0.6496  1.3073
 4338TIP3    H234506   3.259   1.287   1.333  1.6837  0.6970  0.6449
 4339TIP3   OH234507   5.371   1.967  16.824  0.2426  0.3850 -0.2704
 4339TIP3    H134508   5.291   1.915  16.836  0.7621 -0.3291  0.0889
 4339TIP3    H234509   5.399   1.988  16.912  1.1851 -0.4896 -0.3546
 4340TIP3   OH234510   1.857   3.194  15.569 -0.3139 -0.0081  0.6352
 4340TIP3    H134511   1.838   3.172  15.660 -2.1956  0.5777  0.4082
 4340TIP3    H234512   1.937   3.146  15.549  0.0254 -0.2757  2.5448
 4341TIP3   OH234513   5.879   6.721   3.938  0.1222 -0.3455 -0.2310
 4341TIP3    H134514   5.920   6.635   3.947 -0.6179 -0.7011 -0.2019
 4341TIP3    H234515   5.918   6.774   4.007 -0.4936 -1.0851  0.6903
 4342TIP3   OH234516   0.204   4.184  12.995  0.1427 -0.0779 -0.0514
 4342TIP3    H134517   0.205   4.222  12.907  2.5486  1.4441  0.5884
 4342TIP3    H234518   0.120   4.138  13.001  0.0931 -0.4631 -3.2393
 4343TIP3   OH234519   6.746   1.072   6.148 -0.0204 -0.2176 -0.1147
 4343TIP3    H134520   6.767   0.980   6.163 -1.5762 -0.4656  0.5955
 4343TIP3    H234521   6.746   1.082   6.053  2.4514 -0.3847 -0.1813
 4344TIP3   OH234522   0.767   3.495   3.822  0.3457 -0.2229  0.3024
 4344TIP3    H134523   0.794   3.554   3.892  0.8211  0.0337 -0.0944
 4344TIP3    H234524   0.708   3.547   3.768  0.9463 -0.0390 -0.1773
 4345TIP3   OH234525   1.345   0.967  11.582 -0.5166  0.4899  0.5608
 4345TIP3    H134526   1.353   0.930  11.669  0.1606 -1.4995 -0.3181
 4345TIP3    H234527   1.314   0.894  11.528  0.8240  1.1844 -1.2041
 4346TIP3   OH234528   1.558   3.504   1.165  0.2576 -0.5274  0.2751
 4346TIP3    H134529   1.648   3.537   1.172  0.3755 -0.4872 -1.2932
 4346TIP3    H234530   1.515   3.536   1.244  1.2834  0.5471  0.4192
 4347TIP3   OH234531   3.701   6.101  12.726  0.3851  0.0315 -0.0545
 4347TIP3    H134532   3.756   6.178  12.745  0.7261 -0.0020 -0.9006
 4347TIP3    H234533   3.622   6.137  12.687 -0.3485  0.1045  1.4493
 4348TIP3   OH234534   3.053   0.751   1.042  0.2517  0.1193  0.1964
 4348TIP3    H134535   3.026   0.662   1.065 -0.1122  0.2992  0.4600
 4348TIP3    H234536   3.062   0.749   0.946 -1.0491  0.1503  0.0588
 4349TIP3   OH234537   1.081   2.506   3.922 -0.2521 -1.0339  0.6003
 4349TIP3    H134538   0.989   2.492   3.943 -0.7137 -0.2949 -0.9212
 4349TIP3    H234539   1.085   2.510   3.827  0.9190  1.8102  0.6989
 4350TIP3   OH234540   5.616   3.588   4.843 -0.3271 -0.2583  0.3763
 4350TIP3    H134541   5.538   3.617   4.890 -1.3098  1.1725 -2.0259
 4350TIP3    H234542   5.584   3.522   4.782  0.1499  1.0250 -1.2974
 4351TIP3   OH234543   4.318   3.151  17.251  0.1681  0.0121  0.2514
 4351TIP3    H134544   4.397   3.140  17.304 -0.2437  0.4774  0.9523
 4351TIP3    H234545   4.260   3.080  17.278  0.8651 -1.1855 -1.2364
 4352TIP3   OH234546   2.170   5.970  15.446 -0.1133  0.2091  0.0451
 4352TIP3    H134547   2.079   5.942  15.447  0.1049 -0.4796  0.8055
 4352TIP3    H234548   2.180   6.025  15.523  0.7095 -1.6981  1.3528
 4353TIP3   OH234549   3.151   2.700  13.766 -0.4576  0.5470  0.3776
 4353TIP3    H134550   3.131   2.758  13.691  0.9453 -0.6309 -0.9299
 4353TIP3    H234551   3.216   2.639  13.732  0.7765  0.4629  2.8117
 4354TIP3   OH234552   5.447   5.554  11.864  0.0401  0.2560  0.2202
 4354TIP3    H134553   5.508   5.487  11.831 -1.0613 -1.4972  1.6502
 4354TIP3    H234554   5.462   5.555  11.959  0.8212  2.8643  0.1033
 4355TIP3   OH234555   5.188   0.925   2.090 -0.3213 -0.2783 -0.0621
 4355TIP3    H134556   5.155   0.878   2.013 -1.0908 -0.7277  0.5363
 4355TIP3    H234557   5.185   1.017   2.063  1.8210 -0.5760 -1.4698
 4356TIP3   OH234558   4.538   3.221   3.975  0.3074 -0.5016 -0.4094
 4356TIP3    H134559   4.553   3.127   3.964 -0.6759 -0.8022  0.6646
 4356TIP3    H234560   4.519   3.231   4.069  2.3851  1.0548 -0.1162
 4357TIP3   OH234561   4.073   5.787  14.895 -0.3621  0.0540 -0.4642
 4357TIP3    H134562   4.096   5.859  14.954 -0.4148  0.2918 -0.7331
 4357TIP3    H234563   4.032   5.721  14.952  1.7643 -0.7493  0.1893
 4358TIP3   OH234564   3.630   6.385  13.712 -0.0587 -0.0989 -0.1369
 4358TIP3    H134565   3.612   6.424  13.798 -0.3328 -0.1787 -0.1566
 4358TIP3    H234566   3.554   6.330  13.695  0.5743 -1.0611  0.1361
 4359TIP3   OH234567   3.328   6.589   1.878 -0.3546  0.6795 -0.0075
 4359TIP3    H134568   3.254   6.576   1.818 -0.4043  1.5493 -0.1413
 4359TIP3    H234569   3.360   6.500   1.897 -1.5851  0.2786  0.2409
 4360TIP3   OH234570   4.336   5.511   5.276  0.6319  0.3397  0.1647
 4360TIP3    H134571   4.327   5.433   5.222  2.8096 -1.0656  1.7375
 4360TIP3    H234572   4.260   5.509   5.334  0.7162 -0.6665  0.2468
 4361TIP3   OH234573   4.618   3.284   3.166 -0.5150  0.7121  0.0635
 4361TIP3    H134574   4.640   3.193   3.186 -0.8271  0.6076 -0.0518
 4361TIP3    H234575   4.694   3.317   3.119 -0.1326  0.7063  0.6783
 4362TIP3   OH234576   1.438   2.870  12.672 -0.1934  0.5018  0.1623
 4362TIP3    H134577   1.421   2.859  12.765  0.5279  0.8801  0.3375
 4362TIP3    H234578   1.516   2.925  12.668 -0.1677  0.4084 -0.6635
 4363TIP3   OH234579   3.380   1.553  11.050  0.7213 -0.0029  0.2394
 4363TIP3    H134580   3.456   1.610  11.067 -0.2383  1.6583 -0.8778
 4363TIP3    H234581   3.372   1.551  10.955 -1.1057  0.4981  0.3655
 4364TIP3   OH234582   5.252   4.968  17.233  0.0742  0.1593  0.3359
 4364TIP3    H134583   5.247   5.063  17.237  0.8150  0.2264 -0.1955
 4364TIP3    H234584   5.177   4.942  17.180 -0.3873  0.4100  0.8621
 4365TIP3   OH234585   6.334   5.442  10.625  0.1016  0.3966 -0.0190
 4365TIP3    H134586   6.284   5.521  10.647 -2.7394 -1.3213 -0.1618
 4365TIP3    H234587   6.379   5.418  10.706 -1.7790  0.2100  0.9927
 4366TIP3   OH234588   1.338   2.026  14.987 -0.8359 -0.5379 -0.2233
 4366TIP3    H134589   1.392   1.964  14.939 -0.7771 -1.1474  0.6149
 4366TIP3    H234590   1.398   2.096  15.011 -0.8326 -0.3052 -0.8904
 4367TIP3   OH234591   2.528   5.660   0.683 -0.6996  0.2208  0.3355
 4367TIP3    H134592   2.534   5.570   0.717 -2.1128  0.0719  0.1960
 4367TIP3    H234593   2.440   5.689   0.707 -0.3862  1.4417  0.0373
 4368TIP3   OH234594   0.589   5.074   1.571  0.1070  0.0774  0.2625
 4368TIP3    H134595   0.656   5.078   1.639 -0.0863 -0.4546  0.4908
 4368TIP3    H234596   0.637   5.052   1.491  0.4222  1.3822  0.0880
 4369TIP3   OH234597   4.858   5.795  17.268  0.4934  0.4066 -0.1004
 4369TIP3    H134598   4.781   5.846  17.244 -0.8974 -1.7145 -0.2640
 4369TIP3    H234599   4.891   5.837  17.348 -3.0100 -0.8262  2.1284
 4370TIP3   OH234600   3.292   5.285   1.119  0.1243 -0.5075 -0.3553
 4370TIP3    H134601   3.266   5.201   1.082 -0.9259 -0.3578  0.0385
 4370TIP3    H234602   3.210   5.331   1.135  0.6298 -0.0714  1.0116
 4371TIP3   OH234603   5.072   5.177  15.341 -0.7717 -0.2878 -0.4102
 4371TIP3    H134604   4.996   5.126  15.312 -0.1860 -1.6983  0.4564
 4371TIP3    H234605   5.034   5.255  15.382 -1.8257 -1.7591  1.4767
 4372TIP3   OH234606   4.799   5.597  12.354 -0.6247 -0.0743  0.3863
 4372TIP3    H134607   4.780   5.518  12.304 -2.1824  0.2847  0.3930
 4372TIP3    H234608   4.893   5.592  12.372 -0.2861 -0.8331 -1.4877
 4373TIP3   OH234609   2.553   2.480  13.264 -0.0035 -0.2296  0.2336
 4373TIP3    H134610   2.586   2.489  13.354 -3.8092 -0.0657  1.7460
 4373TIP3    H234611   2.565   2.567  13.225  2.5115 -0.5444  0.2301
 4374TIP3   OH234612   1.313   3.009   0.979 -0.1333  0.1427 -0.1460
 4374TIP3    H134613   1.309   3.056   1.062 -0.7546 -0.7131  0.3245
 4374TIP3    H234614   1.319   3.077   0.912  1.5932  0.8056  0.6614
 4375TIP3   OH234615   1.688   6.597  16.320  0.6818 -0.2005 -0.1629
 4375TIP3    H134616   1.682   6.688  16.290  0.9638 -0.6762 -1.7220
 4375TIP3    H234617   1.614   6.553  16.279  0.6543 -0.7263  0.4382
 4376TIP3   OH234618   0.889   5.829   5.070 -0.3182 -0.0080 -0.1578
 4376TIP3    H134619   0.970   5.787   5.098 -0.4713 -0.7233 -0.7368
 4376TIP3    H234620   0.821   5.763   5.087 -0.9465  1.0389  1.4320
 4377TIP3   OH234621   4.013   1.550  12.109 -0.0579  0.1599  0.3816
 4377TIP3    H134622   4.018   1.473  12.053  0.7519  0.9093 -0.5766
 4377TIP3    H234623   4.102   1.584  12.113 -0.5721  1.5933  0.0194
 4378TIP3   OH234624   2.278   2.265  11.658  0.3727  0.0777  0.4386
 4378TIP3    H134625   2.278   2.173  11.634  0.7906  0.0328  0.6202
 4378TIP3    H234626   2.186   2.292  11.649  0.0444 -0.6485  1.4863
 4379TIP3   OH234627   5.686   6.605  13.302  0.3476 -0.1815 -0.1445
 4379TIP3    H134628   5.764   6.562  13.267  1.3333  0.0682  1.6578
 4379TIP3    H234629   5.720   6.685  13.342 -0.6089 -0.8216  2.0171
 4380TIP3   OH234630   1.283   5.734  15.703 -0.0968  0.5411 -0.4795
 4380TIP3    H134631   1.260   5.741  15.795 -0.2680 -1.2409 -0.3645
 4380TIP3    H234632   1.199   5.733  15.657 -0.1548 -1.6070 -0.3941
 4381TIP3   OH234633   6.579   2.072   2.799  1.0161 -0.4511 -0.4648
 4381TIP3    H134634   6.525   2.060   2.877  0.7765  0.1785 -0.5320
 4381TIP3    H234635   6.545   2.009   2.736  0.4177 -0.1126 -0.4766
 4382TIP3   OH234636   4.799   3.591   3.021 -0.3231  0.5178  0.1316
 4382TIP3    H134637   4.766   3.589   3.111 -0.8037  1.1091 -0.0258
 4382TIP3    H234638   4.733   3.641   2.973 -0.7591 -0.9456 -0.8325
 4383TIP3   OH234639   5.362   1.186  16.790 -0.1277 -0.6584 -0.4493
 4383TIP3    H134640   5.341   1.115  16.850  0.3649 -0.9107 -0.5699
 4383TIP3    H234641   5.298   1.254  16.809 -0.9642 -1.3552 -0.7099
 4384TIP3   OH234642   6.650   1.381  13.333  0.0752 -0.6655  0.7546
 4384TIP3    H134643   6.596   1.313  13.292 -1.3740  0.8298  0.1186
 4384TIP3    H234644   6.712   1.333  13.388 -0.8194 -2.4956  0.1962
 4385TIP3   OH234645   2.244   4.775  11.079  0.0977  0.2307  0.0791
 4385TIP3    H134646   2.307   4.710  11.050 -0.7467 -0.8743  0.6672
 4385TIP3    H234647   2.206   4.809  10.998 -0.4674 -1.0411 -0.2084
 4386TIP3   OH234648   2.731   3.803   1.619 -0.2529  0.1220  0.1487
 4386TIP3    H134649   2.675   3.881   1.629 -0.5225 -0.4537  3.7596
 4386TIP3    H234650   2.670   3.732   1.599 -0.0949  0.6420 -2.2999
 4387TIP3   OH234651   6.494   5.164  13.332 -0.3097 -0.2633 -0.6423
 4387TIP3    H134652   6.524   5.143  13.420  0.8472 -0.7950 -1.1594
 4387TIP3    H234653   6.406   5.126  13.327 -0.4877  0.0023  0.3606
 4388TIP3   OH234654   3.470   1.529   3.964  0.0077 -1.2257  0.1744
 4388TIP3    H134655   3.508   1.585   3.896  0.1966 -2.2300 -0.5653
 4388TIP3    H234656   3.534   1.532   4.036 -0.4237  0.2236  0.5144
 4389TIP3   OH234657   2.375   1.743  15.763  0.0665 -0.0801  0.2207
 4389TIP3    H134658   2.304   1.806  15.765  1.0355  1.0320 -0.1667
 4389TIP3    H234659   2.431   1.771  15.690  1.7791  0.0337  1.5306
 4390TIP3   OH234660   0.770   2.053  17.166  0.1232  0.4956  0.0911
 4390TIP3    H134661   0.789   1.999  17.089  0.6639  2.7530 -1.4105
 4390TIP3    H234662   0.755   1.990  17.236 -1.5865 -1.6753 -2.1246
 4391TIP3   OH234663   1.443   1.093   3.038 -0.2148  0.1117 -0.5920
 4391TIP3    H134664   1.391   1.144   2.976 -1.3382 -1.5307 -1.0642
 4391TIP3    H234665   1.480   1.157   3.098 -0.3675  1.5893 -2.0600
 4392TIP3   OH234666   3.178   0.919  10.821 -0.1166 -0.3549 -0.1316
 4392TIP3    H134667   3.151   0.830  10.839 -0.0085 -0.1705  0.9555
 4392TIP3    H234668   3.252   0.910  10.760 -0.7779 -0.9553 -0.8483
 4393TIP3   OH234669   2.932   3.458   0.911  0.2800 -0.4680  0.2308
 4393TIP3    H134670   3.028   3.462   0.902  0.2923  0.2093  0.5423
 4393TIP3    H234671   2.919   3.418   0.997  0.3199  0.8553  0.8696
 4394TIP3   OH234672   1.506   4.267   1.537 -0.0483 -0.8180 -0.1924
 4394TIP3    H134673   1.565   4.232   1.604  0.3060  0.7798  0.3622
 4394TIP3    H234674   1.425   4.217   1.548 -0.3023  0.0127  2.0523
 4395TIP3   OH234675   1.261   0.994  16.458 -0.1180  0.0537 -0.1595
 4395TIP3    H134676   1.337   0.987  16.516 -0.1084  0.8298 -0.0603
 4395TIP3    H234677   1.277   1.074  16.407  1.1641 -2.0514 -3.1602
 4396TIP3   OH234678   5.637   2.392  12.775 -0.1594 -0.2396 -0.0821
 4396TIP3    H134679   5.732   2.389  12.760  0.0773  0.2220  1.3023
 4396TIP3    H234680   5.604   2.313  12.734  0.9059 -0.7291 -0.0082
 4397TIP3   OH234681   1.421   6.108  14.129 -0.0142 -0.1585  0.1236
 4397TIP3    H134682   1.383   6.196  14.137 -1.9951 -0.8078 -1.6959
 4397TIP3    H234683   1.387   6.075  14.046  1.4992 -2.2795  0.3242
 4398TIP3   OH234684   6.291   5.229  12.323 -0.2910 -0.1034  0.0961
 4398TIP3    H134685   6.339   5.311  12.324 -1.2855  0.4747  0.7495
 4398TIP3    H234686   6.204   5.252  12.290 -1.5293 -0.3378  3.1067
 4399TIP3   OH234687   5.424   0.411  16.047 -0.3667 -0.3818 -0.2652
 4399TIP3    H134688   5.368   0.483  16.017 -1.9710 -2.3893 -2.2910
 4399TIP3    H234689   5.364   0.352  16.093  0.9047 -0.5065  1.2770
 4400TIP3   OH234690   4.033   3.331   0.974 -0.0854 -0.4136 -0.6386
 4400TIP3    H134691   4.108   3.281   1.007  0.1011 -0.5185 -1.2134
 4400TIP3    H234692   3.994   3.370   1.052  2.8529  2.8329 -0.7012
 4401TIP3   OH234693   2.617   0.370  13.588 -0.2325 -0.3402 -0.4167
 4401TIP3    H134694   2.631   0.465  13.593  0.0455 -0.3977 -0.0264
 4401TIP3    H234695   2.601   0.352  13.496 -0.0455  0.0553 -0.5251
 4402TIP3   OH234696   6.374   6.173  16.436  0.3315 -0.7126 -0.6180
 4402TIP3    H134697   6.289   6.142  16.465  0.2398  0.0179 -0.1080
 4402TIP3    H234698   6.376   6.153  16.342 -0.7425  0.0491 -0.8045
 4403TIP3   OH234699   5.057   2.223   2.904  0.3015 -0.5272 -0.1314
 4403TIP3    H134700   5.018   2.139   2.928 -1.5988  0.4115  0.2094
 4403TIP3    H234701   4.982   2.283   2.900  1.6551  1.1903 -0.1544
 4404TIP3   OH234702   0.766   0.150   1.421 -0.2813  0.8762 -0.0204
 4404TIP3    H134703   0.673   0.152   1.400 -0.1247 -2.5820 -1.4414
 4404TIP3    H234704   0.770   0.125   1.513 -0.7892 -1.6478 -0.6373
 4405TIP3   OH234705   4.028   1.108   3.318  0.8212 -0.3540  0.5079
 4405TIP3    H134706   4.064   1.188   3.358  0.5426  0.5570 -1.0287
 4405TIP3    H234707   4.050   1.116   3.225 -0.5315 -1.3537  0.0886
 4406TIP3   OH234708   3.324   6.774   3.353  0.6983 -0.7040 -0.3362
 4406TIP3    H134709   3.342   6.682   3.333 -2.9454 -1.4346 -0.8082
 4406TIP3    H234710   3.262   6.771   3.425 -0.2424  1.3274 -1.0180
 4407TIP3   OH234711   4.066   1.206  11.696 -0.8432  0.5137 -0.4623
 4407TIP3    H134712   4.143   1.250  11.732 -0.6203 -0.3648  0.1614
 4407TIP3    H234713   4.038   1.262  11.623  1.3963 -0.0292 -1.7892
 4408TIP3   OH234714   6.104   2.270   0.331  0.5481  0.3781 -0.2178
 4408TIP3    H134715   6.133   2.226   0.411  0.3295 -0.2447 -0.4814
 4408TIP3    H234716   6.185   2.291   0.284  0.5830 -1.7249 -1.1473
 4409TIP3   OH234717   6.037   4.260  16.678 -0.1727  0.1659  0.1593
 4409TIP3    H134718   6.098   4.290  16.746  0.3333 -1.0367  0.2505
 4409TIP3    H234719   6.068   4.172  16.656 -0.8767  0.2077 -0.9977
 4410TIP3   OH234720   4.818   0.924   0.362  0.0720  0.0714  0.0978
 4410TIP3    H134721   4.849   0.951   0.276 -0.8611 -2.0883 -0.9622
 4410TIP3    H234722   4.740   0.978   0.378  1.0306  1.4405  0.2227
 4411TIP3   OH234723   4.800   2.271  11.639  0.1782 -0.8528 -0.7743
 4411TIP3    H134724   4.838   2.261  11.552 -0.3228  0.1327 -1.1072
 4411TIP3    H234725   4.727   2.331  11.627  0.8113  0.2204  0.5215
 4412TIP3   OH234726   1.311   0.118   2.245 -0.4274  0.0562 -0.0972
 4412TIP3    H134727   1.331   0.176   2.171  1.5289 -0.9871 -0.4199
 4412TIP3    H234728   1.316   0.174   2.322  2.3566  0.1652 -0.3133
 4413TIP3   OH234729   3.918   5.064  14.913  0.0257  0.0775  0.2752
 4413TIP3    H134730   3.846   5.040  14.854 -0.3202  0.2342  0.6320
 4413TIP3    H234731   3.985   5.101  14.855 -0.2817  0.1672 -0.0289
 4414TIP3   OH234732   6.670   3.508  13.753  0.0355 -0.0560 -0.1702
 4414TIP3    H134733   6.753   3.529  13.796 -0.9045  0.1510  1.5843
 4414TIP3    H234734   6.680   3.415  13.729  1.0198  0.1407 -0.5746
 4415TIP3   OH234735   6.247   5.555  12.346 -0.3272  0.1581  0.7898
 4415TIP3    H134736   6.282   5.534  12.433  0.4117  1.4049  0.8126
 4415TIP3    H234737   6.297   5.633  12.319 -0.7621 -0.0456 -0.6170
 4416TIP3   OH234738   5.171   0.734   3.798  0.4630  0.2784 -1.0749
 4416TIP3    H134739   5.216   0.812   3.768  1.7146 -0.7288 -1.8336
 4416TIP3    H234740   5.213   0.713   3.882 -1.1325  1.4684  0.0619
 4417TIP3   OH234741   5.082   3.015   0.767 -0.2270  0.2232  0.0882
 4417TIP3    H134742   5.047   2.937   0.723  0.0344  0.7717 -1.1172
 4417TIP3    H234743   5.038   3.088   0.724  0.6188  0.8115  0.2066
 4418TIP3   OH234744   4.941   1.187  12.485 -0.0762 -0.3612 -0.6448
 4418TIP3    H134745   4.953   1.271  12.529  1.7105  0.0770 -1.9406
 4418TIP3    H234746   4.848   1.185  12.463 -0.8827 -0.2950  2.4674
 4419TIP3   OH234747   5.922   0.807   2.566  0.0924 -0.0993 -0.2281
 4419TIP3    H134748   5.989   0.874   2.554  0.6400 -0.8142 -1.2235
 4419TIP3    H234749   5.937   0.745   2.495 -0.7221 -1.0180  0.3894
 4420TIP3   OH234750   4.231   2.930  14.737 -0.1730 -0.1329 -0.2880
 4420TIP3    H134751   4.200   2.950  14.649  0.1191  1.6386 -0.0100
 4420TIP3    H234752   4.233   3.015  14.782  1.2031 -0.7891  0.9400
 4421TIP3   OH234753   1.940   2.817  15.158 -0.0789  0.1449  0.5702
 4421TIP3    H134754   1.980   2.854  15.237  0.2482 -1.3357  1.1191
 4421TIP3    H234755   1.851   2.794  15.185 -0.0894 -0.0136  0.3964
 4422TIP3   OH234756   5.103   6.688   0.946 -0.0046 -0.2411 -0.2101
 4422TIP3    H134757   5.080   6.719   0.858  0.1192 -2.7914 -1.1986
 4422TIP3    H234758   5.150   6.606   0.930  1.0325 -0.1437  2.2106
 4423TIP3   OH234759   4.786   0.934  11.609 -0.1122 -0.3478  0.2019
 4423TIP3    H134760   4.802   0.984  11.529  0.2374  1.5502  1.4204
 4423TIP3    H234761   4.796   0.842  11.583  1.7640  0.3165 -1.5424
 4424TIP3   OH234762   0.278   0.041  13.964  0.0156  0.6778  0.4853
 4424TIP3    H134763   0.197   0.025  14.011  0.2534 -0.9451  0.3753
 4424TIP3    H234764   0.307  -0.046  13.935  2.0486  1.1560  0.9677
 4425TIP3   OH234765   1.251   5.001   2.221  0.2358  0.0791 -0.3999
 4425TIP3    H134766   1.336   5.022   2.182 -0.9270  1.2615 -2.4035
 4425TIP3    H234767   1.246   5.056   2.299  1.2140  0.1700 -0.3984
 4426TIP3   OH234768   4.348   5.174  12.486 -0.0346  0.2972 -0.1035
 4426TIP3    H134769   4.322   5.221  12.566  3.8833 -0.1871  1.5455
 4426TIP3    H234770   4.437   5.204  12.469  0.4144 -2.2164 -2.3670
 4427TIP3   OH234771   3.130   0.320   5.852 -0.1524 -0.7419 -0.0422
 4427TIP3    H134772   3.226   0.321   5.854 -0.1751 -0.5772  3.1363
 4427TIP3    H234773   3.105   0.259   5.921 -2.3506  0.8603  0.6248
 4428TIP3   OH234774   4.901   6.162   4.219  0.2625 -0.4629 -0.0837
 4428TIP3    H134775   4.872   6.239   4.169  1.4830  0.1513  0.1309
 4428TIP3    H234776   4.835   6.095   4.200 -1.1535  0.8094  0.1831
 4429TIP3   OH234777   4.111   1.743  14.300 -0.3118 -0.2450  0.5101
 4429TIP3    H134778   4.041   1.790  14.255  0.7646  0.5275 -0.3878
 4429TIP3    H234779   4.136   1.801  14.372  2.3602  1.5651 -1.7531
 4430TIP3   OH234780   0.809   1.197  12.671  0.0795 -0.1037  0.0535
 4430TIP3    H134781   0.834   1.277  12.717  0.2803  1.1435 -2.1120
 4430TIP3    H234782   0.892   1.162  12.637 -0.2181 -0.1724 -0.6142
 4431TIP3   OH234783   6.539   6.102  13.997  0.2994 -1.0428 -0.0794
 4431TIP3    H134784   6.446   6.078  14.001  0.1572 -0.5856 -0.6663
 4431TIP3    H234785   6.540   6.192  13.966  0.9188 -0.8511  0.4733
 4432TIP3   OH234786   5.259   3.516   4.213  0.7034  0.2236 -0.4993
 4432TIP3    H134787   5.223   3.544   4.297  2.0154 -1.5457  0.6941
 4432TIP3    H234788   5.352   3.504   4.229  0.7470 -1.4726 -1.8081
 4433TIP3   OH234789   3.678   1.870  10.583  0.2600 -0.9575 -0.0728
 4433TIP3    H134790   3.613   1.801  10.568 -0.3546 -0.7762  1.6146
 4433TIP3    H234791   3.633   1.951  10.558 -0.1659 -0.8421  1.0088
 4434TIP3   OH234792   5.582   4.325  10.961  0.6813 -0.7446  0.2011
 4434TIP3    H134793   5.553   4.263  11.027  1.3356  0.6647  1.8460
 4434TIP3    H234794   5.544   4.408  10.987  0.9202 -0.1710 -1.2249
 4435TIP3   OH234795   4.432   6.022   4.064  0.3510 -0.2686  0.2652
 4435TIP3    H134796   4.514   6.005   4.110  0.1096  0.2227  0.8783
 4435TIP3    H234797   4.447   6.105   4.019  0.2000 -0.2024  0.3402
 4436TIP3   OH234798   0.894   5.775  12.424 -0.3041 -0.1155  0.3543
 4436TIP3    H134799   0.926   5.863  12.402 -0.0080 -0.6924 -1.5500
 4436TIP3    H234800   0.965   5.716  12.400 -1.3463 -1.0774 -0.4277
 4437TIP3   OH234801   5.151   0.589  16.338 -0.0934 -0.3939  0.5049
 4437TIP3    H134802   5.111   0.655  16.394  1.4154 -0.6784  1.9477
 4437TIP3    H234803   5.228   0.559  16.387  1.2353 -0.6824 -1.6785
 4438TIP3   OH234804   0.345   1.356   5.230 -1.3732  0.1575 -0.2195
 4438TIP3    H134805   0.425   1.396   5.266 -0.4535 -2.2249  0.4380
 4438TIP3    H234806   0.297   1.325   5.306 -0.5058 -2.8802 -0.8616
 4439TIP3   OH234807   2.712   1.543  14.136 -0.1998 -0.1779  0.2294
 4439TIP3    H134808   2.762   1.517  14.059 -0.7161 -2.3597  0.6142
 4439TIP3    H234809   2.641   1.597  14.101  0.6730  0.4566 -0.6049
 4440TIP3   OH234810   0.064   4.854  11.667  0.0705  0.1009 -0.5631
 4440TIP3    H134811   0.112   4.907  11.731  0.3430 -1.7056  0.7680
 4440TIP3    H234812   0.013   4.792  11.720 -2.7044  1.0626 -1.9806
 4441TIP3   OH234813   6.678   2.146  14.279 -0.2454  0.3586  0.0422
 4441TIP3    H134814   6.591   2.182  14.261  0.1931  1.3975 -0.0316
 4441TIP3    H234815   6.697   2.173  14.370 -1.3338 -2.5867  1.1890
 4442TIP3   OH234816   1.809   4.512   4.578  0.1075 -1.0307  0.2924
 4442TIP3    H134817   1.753   4.572   4.629  1.7060  0.7978 -0.0493
 4442TIP3    H234818   1.893   4.514   4.623  0.8594 -1.2031 -1.0873
 4443TIP3   OH234819   1.781   3.124  13.258  0.0359 -0.1745  0.2048
 4443TIP3    H134820   1.773   3.216  13.231 -0.1360  0.0967  1.1357
 4443TIP3    H234821   1.692   3.100  13.285  0.3726 -0.1683  1.3299
 4444TIP3   OH234822   1.940   4.674   5.282  0.2212 -0.6489  0.1898
 4444TIP3    H134823   1.875   4.608   5.259 -0.5445  0.5095 -1.0328
 4444TIP3    H234824   1.962   4.656   5.373 -2.8287 -0.2004  1.0639
 4445TIP3   OH234825   0.270   2.533   6.410 -0.2342 -0.5096 -0.4218
 4445TIP3    H134826   0.311   2.619   6.412 -0.6761 -0.3083  0.0424
 4445TIP3    H234827   0.341   2.472   6.431 -0.2775 -0.1194  0.9051
 4446TIP3   OH234828   5.777   5.941   3.461  0.6382  0.2869 -0.5324
 4446TIP3    H134829   5.864   5.908   3.484  0.4393  1.2742  1.7679
 4446TIP3    H234830   5.789   6.035   3.447  0.1159  0.2688 -1.1418
 4447TIP3   OH234831   1.180   3.889  16.693 -0.2099  0.6452  0.3321
 4447TIP3    H134832   1.198   3.981  16.673 -0.1206  0.3984 -0.7672
 4447TIP3    H234833   1.254   3.842  16.656 -0.0512  0.1588  1.2534
 4448TIP3   OH234834   3.718   2.575   3.931 -0.0527 -0.5035 -0.6772
 4448TIP3    H134835   3.750   2.489   3.904 -1.9606 -1.0167 -1.3668
 4448TIP3    H234836   3.682   2.561   4.019  0.2460 -0.2503 -0.5117
 4449TIP3   OH234837   0.385   3.698  15.013 -0.1126  0.8234  0.0323
 4449TIP3    H134838   0.370   3.791  14.995 -4.1734  0.2374  0.0149
 4449TIP3    H234839   0.322   3.676  15.081  1.1747 -1.8104  0.4390
 4450TIP3   OH234840   6.542   1.610   0.121 -0.2539  0.4618  0.1215
 4450TIP3    H134841   6.612   1.675   0.132  0.9406 -0.9326  0.9904
 4450TIP3    H234842   6.506   1.627   0.034  1.9006  0.5263 -0.7842
 4451TIP3   OH234843   0.109   5.010  16.404 -0.0223 -0.1010  0.0300
 4451TIP3    H134844   0.062   5.089  16.430  1.5150  1.0392 -0.6208
 4451TIP3    H234845   0.087   4.946  16.472  0.3784  1.5091  1.6998
 4452TIP3   OH234846   5.822   1.456  14.899 -0.0506 -0.4413 -0.3605
 4452TIP3    H134847   5.799   1.365  14.918  1.6631 -0.9062 -0.4776
 4452TIP3    H234848   5.875   1.483  14.973  1.4481 -0.2974 -1.4748
 4453TIP3   OH234849   6.603   3.699  13.146  0.5655  0.3180  0.4277
 4453TIP3    H134850   6.696   3.691  13.168  0.6710  0.2959 -0.0236
 4453TIP3    H234851   6.562   3.730  13.227  1.1002  1.1963  0.3793
 4454TIP3   OH234852   0.892   0.507   1.374  0.1051  0.7081  0.6094
 4454TIP3    H134853   0.964   0.555   1.332 -0.6408  0.4744 -0.9748
 4454TIP3    H234854   0.926   0.419   1.388 -0.8695 -0.3579 -3.1012
 4455TIP3   OH234855   0.305   2.600   1.664 -0.0353  0.7797  0.2742
 4455TIP3    H134856   0.270   2.638   1.745  1.7983  1.1582  0.9235
 4455TIP3    H234857   0.235   2.543   1.632 -1.5704  2.1650  1.0408
 4456TIP3   OH234858   3.776   5.816   5.395 -0.2218 -0.0526  0.4083
 4456TIP3    H134859   3.849   5.842   5.452 -0.6260  1.3447  0.3014
 4456TIP3    H234860   3.758   5.894   5.343 -0.7100 -0.9217 -0.7360
 4457TIP3   OH234861   0.897   3.592  10.270 -0.2614 -0.0156  0.3052
 4457TIP3    H134862   0.861   3.673  10.307  2.1778  2.1039 -1.8178
 4457TIP3    H234863   0.857   3.585  10.183 -1.1456 -1.6100  0.8175
 4458TIP3   OH234864   4.071   0.906   4.979  0.3014 -0.3619 -0.0596
 4458TIP3    H134865   4.093   0.829   4.927 -0.9947  0.5365 -2.0053
 4458TIP3    H234866   4.068   0.977   4.915 -0.6702  0.9104  1.3743
 4459TIP3   OH234867   5.208   6.143  10.480  0.3526 -0.2300 -0.1833
 4459TIP3    H134868   5.186   6.092  10.558 -0.7161 -0.2868 -0.5169
 4459TIP3    H234869   5.301   6.162  10.490 -0.0214  0.7442  1.6749
 4460TIP3   OH234870   1.619   5.952  16.926  0.2577  0.6525  0.5495
 4460TIP3    H134871   1.567   5.926  16.850  1.1434 -0.1015  0.1938
 4460TIP3    H234872   1.687   5.886  16.933 -1.1192 -0.5717  3.3749
 4461TIP3   OH234873   0.155   6.407  15.372 -0.1023 -0.2179 -0.0241
 4461TIP3    H134874   0.110   6.327  15.397  0.5309 -0.1181  1.5072
 4461TIP3    H234875   0.220   6.420  15.441 -0.5042  1.8504  0.0018
 4462TIP3   OH234876   4.178   4.853   4.646  0.2697 -0.0706 -0.0937
 4462TIP3    H134877   4.107   4.844   4.582 -1.5194 -0.0675  1.8318
 4462TIP3    H234878   4.185   4.766   4.685  1.0839  0.0366 -0.0072
 4463TIP3   OH234879   6.810   4.427   4.074  0.1493  0.5601 -0.7009
 4463TIP3    H134880   6.734   4.474   4.041  0.4239  0.0968 -2.0235
 4463TIP3    H234881   6.858   4.400   3.995 -0.6313 -3.0081 -0.0644
 4464TIP3   OH234882   1.458   4.120   1.134 -0.2512  0.1021 -0.0837
 4464TIP3    H134883   1.476   4.080   1.049  1.4144  0.2664  0.1766
 4464TIP3    H234884   1.474   4.050   1.197 -1.1907  0.0691  0.1351
 4465TIP3   OH234885   3.364   2.683  16.590  0.7024  0.6581  0.7541
 4465TIP3    H134886   3.443   2.701  16.539  1.1783 -0.9060  0.9016
 4465TIP3    H234887   3.381   2.598  16.630 -0.7657  0.6501  1.3735
 4466TIP3   OH234888   0.382   2.952  11.156 -0.4974  0.3740  0.1099
 4466TIP3    H134889   0.403   3.033  11.111 -1.0751  0.0513 -0.7623
 4466TIP3    H234890   0.372   2.887  11.086  0.0876 -0.4816  0.8014
 4467TIP3   OH234891   5.667   2.611  11.876 -0.4245  0.0072  0.2912
 4467TIP3    H134892   5.658   2.666  11.954  0.4170  0.4641  0.0633
 4467TIP3    H234893   5.725   2.539  11.903 -1.4284 -0.7216  0.5557
 4468TIP3   OH234894   5.522   1.270  15.575  0.3649 -0.3696 -0.7514
 4468TIP3    H134895   5.451   1.234  15.523 -2.2163  1.6640  1.2466
 4468TIP3    H234896   5.512   1.365  15.568  0.6645 -0.0470  2.4414
 4469TIP3   OH234897   5.775   5.910  13.912  0.2449 -0.1431 -0.4300
 4469TIP3    H134898   5.858   5.868  13.935 -0.1043  0.2499  1.6515
 4469TIP3    H234899   5.800   5.991  13.867  1.0499  1.1061  2.1776
 4470TIP3   OH234900   2.274   3.873   4.263  0.7662  0.3662  0.4673
 4470TIP3    H134901   2.183   3.876   4.291  1.0916 -0.2429  1.6083
 4470TIP3    H234902   2.302   3.965   4.262  0.1322  0.5587  0.0467
 4471TIP3   OH234903   0.860   4.508   0.364 -0.2291  0.1164 -0.3987
 4471TIP3    H134904   0.809   4.571   0.415  0.5746 -0.3860  1.0570
 4471TIP3    H234905   0.856   4.427   0.415 -1.0712 -0.9731 -2.1478
 4472TIP3   OH234906   4.989   6.506  13.293  0.4457  0.1008 -0.8901
 4472TIP3    H134907   5.030   6.571  13.349 -2.2955  2.4523 -1.4741
 4472TIP3    H234908   4.966   6.434  13.353 -1.0076  1.8687  0.7297
 4473TIP3   OH234909   3.125   0.513  12.562  0.0903 -0.3989 -0.0837
 4473TIP3    H134910   3.111   0.594  12.512  2.1745 -0.3053 -0.5589
 4473TIP3    H234911   3.170   0.455  12.501 -0.1084 -1.4212  0.7254
 4474TIP3   OH234912   2.050   1.401  16.672 -0.0441 -0.3793  0.6146
 4474TIP3    H134913   2.027   1.349  16.595  0.1162 -0.3078  0.5190
 4474TIP3    H234914   2.144   1.417  16.664 -0.5520  2.2899 -0.8252
 4475TIP3   OH234915   0.553   0.133   2.692  0.1506  0.3807  0.0084
 4475TIP3    H134916   0.525   0.209   2.743  0.0363  0.0142  0.5015
 4475TIP3    H234917   0.648   0.138   2.692  0.0924  1.7250 -1.8167
 4476TIP3   OH234918   0.901   3.737   4.558 -0.0591  0.3496 -0.1406
 4476TIP3    H134919   0.965   3.686   4.608  0.1815 -0.5354 -1.3228
 4476TIP3    H234920   0.860   3.794   4.623 -0.0014 -1.0187  1.1329
 4477TIP3   OH234921   2.201   1.702   1.879  0.1020 -0.2013  0.6929
 4477TIP3    H134922   2.244   1.617   1.890  1.4359  0.5156  1.1118
 4477TIP3    H234923   2.239   1.758   1.947 -0.1991  0.9439 -0.0542
 4478TIP3   OH234924   4.471   2.751   5.702  0.6831 -0.3773 -0.2102
 4478TIP3    H134925   4.510   2.799   5.629  0.7817 -0.9956 -0.5712
 4478TIP3    H234926   4.541   2.746   5.767  0.2462  1.1303  0.3864
 4479TIP3   OH234927   1.137   6.609  15.609  0.1260  0.0646  0.1111
 4479TIP3    H134928   1.056   6.585  15.654  0.3674  0.9507  1.0484
 4479TIP3    H234929   1.111   6.623  15.518  0.0451 -3.9954 -0.5757
 4480TIP3   OH234930   2.205   4.490   3.282 -0.8977  0.1763 -0.1477
 4480TIP3    H134931   2.218   4.571   3.232 -1.0555  0.8109  0.8228
 4480TIP3    H234932   2.158   4.518   3.360 -0.8080 -0.8383  0.2711
 4481TIP3   OH234933   2.640   3.774   6.382 -0.1717 -0.1638 -0.1531
 4481TIP3    H134934   2.613   3.732   6.464  1.2954 -2.1839 -0.6446
 4481TIP3    H234935   2.709   3.835   6.408 -1.7057  1.3389  0.4596
 4482TIP3   OH234936   1.438   5.172   0.844 -0.0839  0.2621  0.1622
 4482TIP3    H134937   1.383   5.132   0.912 -0.3867  1.6486  0.7380
 4482TIP3    H234938   1.528   5.146   0.868 -0.2861 -0.1962  0.4411
 4483TIP3   OH234939   5.732   6.747  17.043  0.2065 -0.3514 -0.5307
 4483TIP3    H134940   5.710   6.663  17.002  0.4640  0.0638 -1.5309
 4483TIP3    H234941   5.691   6.812  16.987 -0.9685  0.1547  0.8767
 4484TIP3   OH234942   1.683   2.302  11.261  0.4293  0.3878  0.2747
 4484TIP3    H134943   1.763   2.249  11.263 -1.1028 -1.9777  1.3816
 4484TIP3    H234944   1.655   2.306  11.352 -0.8172  1.0234 -0.1239
 4485TIP3   OH234945   1.749   3.765  10.606 -0.0410 -0.4175  0.1780
 4485TIP3    H134946   1.711   3.677  10.608  1.2950 -1.0242  0.1058
 4485TIP3    H234947   1.686   3.821  10.650 -0.3776 -1.6376  1.2658
 4486TIP3   OH234948   5.634   3.047  11.029  0.0724  0.7135  0.0337
 4486TIP3    H134949   5.708   2.995  10.998  0.4395  1.8593 -1.0487
 4486TIP3    H234950   5.578   2.984  11.074  1.3673 -0.2932  0.2728
 4487TIP3   OH234951   1.864   1.690   5.856  0.3367 -0.1128 -0.5021
 4487TIP3    H134952   1.934   1.627   5.876  0.7245  0.2206 -0.7953
 4487TIP3    H234953   1.804   1.643   5.799  0.2491 -0.4459 -0.1384
 4488TIP3   OH234954   5.362   0.493  16.493 -0.3015 -0.5104  0.1123
 4488TIP3    H134955   5.379   0.535  16.578 -1.6179  0.2029  0.0341
 4488TIP3    H234956   5.322   0.409  16.516 -1.4024  0.0347  0.1751
 4489TIP3   OH234957   4.238   5.334  15.505 -0.0741 -0.0538  0.1805
 4489TIP3    H134958   4.212   5.422  15.532  0.7323  0.2239  0.0603
 4489TIP3    H234959   4.304   5.308  15.569 -0.7496 -0.8182  0.5772
 4490TIP3   OH234960   2.144   5.780  10.994  0.0567  0.5168  0.0974
 4490TIP3    H134961   2.222   5.730  11.019  0.6420  0.4324 -1.7948
 4490TIP3    H234962   2.151   5.790  10.899 -1.0238  2.5982  0.2018
 4491TIP3   OH234963   2.889   0.694  16.962  0.1574  0.1977 -0.0410
 4491TIP3    H134964   2.865   0.784  16.937  0.0518  0.4541  0.9771
 4491TIP3    H234965   2.806   0.647  16.965  0.3863 -0.4510 -2.5235
 4492TIP3   OH234966   3.186   4.958  14.103 -0.2044 -0.0189  0.1349
 4492TIP3    H134967   3.213   5.048  14.085  1.7323 -0.7461 -0.7248
 4492TIP3    H234968   3.113   4.942  14.043 -1.2445  1.2930  1.0148
 4493TIP3   OH234969   5.320   1.616  16.409 -0.5734  0.1426 -0.0180
 4493TIP3    H134970   5.292   1.658  16.491  0.8960  1.6887 -0.2761
 4493TIP3    H234971   5.392   1.558  16.435 -0.4590  0.2338 -0.1324
 4494TIP3   OH234972   6.157   4.922  11.871 -0.1603 -0.2021  0.0149
 4494TIP3    H134973   6.111   4.839  11.864  0.1785 -0.4161  0.2784
 4494TIP3    H234974   6.230   4.904  11.931  0.8115 -0.1205 -1.1158
 4495TIP3   OH234975   3.228   6.407   1.168 -0.1514  0.5507 -0.6412
 4495TIP3    H134976   3.284   6.394   1.091  0.0598 -0.8548 -0.2610
 4495TIP3    H234977   3.156   6.461   1.136  0.4452  0.7988 -1.5869
 4496TIP3   OH234978   0.106   1.146  10.917  0.5160  0.5921  0.1399
 4496TIP3    H134979   0.061   1.218  10.962  0.1826 -0.9004  2.2933
 4496TIP3    H234980   0.038   1.079  10.906  1.3487 -0.2643  0.1718
 4497TIP3   OH234981   4.991   2.866  11.193  0.6869  0.0369 -0.3780
 4497TIP3    H134982   4.991   2.940  11.133  5.2388 -0.5399 -1.2064
 4497TIP3    H234983   5.027   2.901  11.274 -0.1801 -0.5566  0.2798
 4498TIP3   OH234984   1.892   4.102   6.062  0.5583  0.2922 -0.3661
 4498TIP3    H134985   1.933   4.082   6.146  0.9334 -0.8949 -0.8179
 4498TIP3    H234986   1.952   4.164   6.020  0.5133  0.6671  0.1230
 4499TIP3   OH234987   3.548   5.679   4.934 -0.3590  0.6186 -0.2510
 4499TIP3    H134988   3.598   5.611   4.889 -0.4820  1.0386 -1.0232
 4499TIP3    H234989   3.609   5.753   4.942 -0.1113  0.3030  0.9016
 4500TIP3   OH234990   1.728   4.891  17.063 -0.4215 -0.1312  0.6345
 4500TIP3    H134991   1.797   4.930  17.117  1.6711  1.2426 -2.8695
 4500TIP3    H234992   1.772   4.823  17.013 -2.8823 -3.1886  2.4229
 4501TIP3   OH234993   0.064   1.739  16.622  0.2370  0.2114  0.4832
 4501TIP3    H134994   0.039   1.701  16.538  0.1397  0.2190  0.5103
 4501TIP3    H234995   0.074   1.664  16.680  1.9926  0.0538  0.0258
 4502TIP3   OH234996   5.970   5.450   5.106 -0.1682 -0.4749 -0.1526
 4502TIP3    H134997   5.902   5.469   5.171  1.0929  0.7988  0.8244
 4502TIP3    H234998   5.976   5.354   5.105 -1.3992 -0.5666  0.3502
 4503TIP3   OH234999   4.778   1.216   4.919  0.5579  0.0864 -0.6250
 4503TIP3    H135000   4.801   1.308   4.931 -0.9489  0.4106  0.0021
 4503TIP3    H235001   4.682   1.216   4.922  0.5798 -1.6615  0.7456
 4504TIP3   OH235002   4.097   4.330  11.662  0.1634  0.1784 -0.0761
 4504TIP3    H135003   4.104   4.382  11.582  0.2601 -0.7389 -0.6669
 4504TIP3    H235004   4.012   4.287  11.655  0.3675 -0.2530  0.1078
 4505TIP3   OH235005   1.373   0.997   3.969 -0.0865  0.4883 -0.1630
 4505TIP3    H135006   1.308   1.062   3.995 -1.1227 -0.6706  0.1853
 4505TIP3    H235007   1.322   0.928   3.927  0.8231 -0.7802  0.7771
 4506TIP3   OH235008   2.802   4.776   3.230  0.5613  0.0026  0.0083
 4506TIP3    H135009   2.844   4.841   3.173 -0.6219 -0.8964 -1.9419
 4506TIP3    H235010   2.713   4.767   3.195 -0.4954  0.0678  2.5656
 4507TIP3   OH235011   5.383   5.479  16.045 -0.1920 -0.2473  0.6017
 4507TIP3    H135012   5.385   5.575  16.048  1.3002 -0.2208 -0.5705
 4507TIP3    H235013   5.304   5.458  15.996 -0.8659  0.3633  1.4147
 4508TIP3   OH235014   2.761   0.279   5.568 -0.4086 -0.2970  0.2048
 4508TIP3    H135015   2.790   0.310   5.483 -3.1333  0.2807 -0.5812
 4508TIP3    H235016   2.822   0.209   5.591  1.2749  0.5753 -1.4847
 4509TIP3   OH235017   6.531   5.924   5.196 -0.4690 -0.6001  0.1903
 4509TIP3    H135018   6.587   5.932   5.273  1.2545 -0.8459 -1.0228
 4509TIP3    H235019   6.503   6.014   5.177 -1.0484 -0.5603  1.1888
 4510TIP3   OH235020   6.486   2.308   1.146 -0.0053 -0.3601  0.0176
 4510TIP3    H135021   6.481   2.273   1.057 -1.4112  1.4479 -0.6459
 4510TIP3    H235022   6.403   2.355   1.158  0.5717  0.2062  1.9467
 4511TIP3   OH235023   4.478   1.037   1.711 -0.1005  0.1531 -0.4904
 4511TIP3    H135024   4.389   1.008   1.733  0.4066 -1.2432 -0.1895
 4511TIP3    H235025   4.507   0.975   1.644  1.0942 -0.1690  0.3076
 4512TIP3   OH235026   1.109   1.106   1.602 -0.2981  0.2615  0.5552
 4512TIP3    H135027   1.016   1.120   1.623  0.1476  0.4043  2.5424
 4512TIP3    H235028   1.156   1.163   1.663  1.0884  0.7840 -0.9670
 4513TIP3   OH235029   5.056   3.040   1.366 -0.1257  0.7763  0.1137
 4513TIP3    H135030   5.039   3.011   1.276  1.0065  0.9656 -0.1643
 4513TIP3    H235031   5.132   2.989   1.393  0.2688  1.5875  0.5449
 4514TIP3   OH235032   2.717   5.285  10.884 -0.2620 -0.2363 -0.4547
 4514TIP3    H135033   2.769   5.219  10.838 -0.4406 -1.0907  0.5591
 4514TIP3    H235034   2.626   5.264  10.862 -0.3790 -0.9397  0.6414
 4515TIP3   OH235035   2.420   1.628  14.215 -0.5137 -0.7773 -0.9448
 4515TIP3    H135036   2.460   1.558  14.267 -0.1121 -0.8230 -1.3116
 4515TIP3    H235037   2.348   1.661  14.269 -0.1939 -0.9289 -0.4288
 4516TIP3   OH235038   6.332   0.343   0.705  0.5426 -0.3484 -0.3254
 4516TIP3    H135039   6.321   0.438   0.715 -1.2726 -0.6422  0.6700
 4516TIP3    H235040   6.387   0.333   0.627  0.8302  1.5211 -0.3768
 4517TIP3   OH235041   5.945   1.048   2.238  0.4029  0.2911 -0.3273
 4517TIP3    H135042   5.905   0.962   2.230  2.2520 -0.8998  2.7110
 4517TIP3    H235043   5.876   1.109   2.211 -1.1289 -2.0712 -1.8600
 4518TIP3   OH235044   3.840   0.503  14.088 -0.0091  0.4323  0.2925
 4518TIP3    H135045   3.855   0.515  14.182 -0.5401 -1.3080  0.6166
 4518TIP3    H235046   3.835   0.408  14.077  2.1234  0.5218 -1.8349
 4519TIP3   OH235047   2.967   0.152   2.423  0.2356 -0.1158 -0.0502
 4519TIP3    H135048   3.000   0.177   2.510  0.1633 -2.7316  0.7602
 4519TIP3    H235049   3.033   0.186   2.362  3.4535 -3.4094  1.4161
 4520TIP3   OH235050   6.714   0.206  11.823 -0.6828 -0.0619 -0.5361
 4520TIP3    H135051   6.780   0.143  11.849  0.2408  0.0794 -2.4562
 4520TIP3    H235052   6.648   0.203  11.893  0.1584 -1.9364  0.1926
 4521TIP3   OH235053   3.159   5.429  12.383 -0.2009  0.3578  0.0691
 4521TIP3    H135054   3.132   5.520  12.394  0.5907  0.4349  1.5080
 4521TIP3    H235055   3.087   5.377  12.419  0.2403  0.4847  1.1619
 4522TIP3   OH235056   1.691   4.890  12.807 -0.2996 -0.3266 -0.0538
 4522TIP3    H135057   1.770   4.943  12.819  0.3724 -1.7785  2.4579
 4522TIP3    H235058   1.619   4.946  12.836 -0.0558  0.5984 -1.2389
 4523TIP3   OH235059   4.496   0.080   4.408  0.5446 -0.0729 -0.1764
 4523TIP3    H135060   4.424   0.024   4.379  0.3309 -0.3639  0.8749
 4523TIP3    H235061   4.453   0.151   4.456  0.9775 -0.5330  0.9207
 4524TIP3   OH235062   0.985   2.766  14.315 -0.0068 -0.1175  0.1319
 4524TIP3    H135063   1.007   2.855  14.343  1.6006 -0.8382  1.2543
 4524TIP3    H235064   0.938   2.729  14.390  0.4084 -0.6179  0.1412
 4525TIP3   OH235065   6.080   1.615   1.124  0.4422 -0.2213 -0.2744
 4525TIP3    H135066   6.085   1.710   1.118  2.6975 -0.2798  0.0316
 4525TIP3    H235067   6.126   1.594   1.205  0.2570 -1.6020 -0.5086
 4526TIP3   OH235068   0.044   2.332   4.161 -0.6850 -0.2702 -0.0001
 4526TIP3    H135069   0.132   2.366   4.179 -0.6487 -0.1165 -0.4443
 4526TIP3    H235070   0.040   2.328   4.065 -1.5788  0.8189 -0.0059
 4527TIP3   OH235071   2.370   2.724  12.865  0.1779  0.1830 -0.2464
 4527TIP3    H135072   2.412   2.646  12.901  2.9290  0.9400 -1.6724
 4527TIP3    H235073   2.346   2.776  12.941  1.6681 -0.3698  0.6136
 4528TIP3   OH235074   0.888   0.843  12.269 -0.0635  0.4699 -0.2212
 4528TIP3    H135075   0.862   0.753  12.288 -1.1541  0.4181 -1.9186
 4528TIP3    H235076   0.834   0.896  12.327  0.5568  0.0493  0.7589
 4529TIP3   OH235077   1.196   5.284  12.219  0.3199  0.1328  0.0228
 4529TIP3    H135078   1.129   5.309  12.156  0.2218 -0.2453 -0.0206
 4529TIP3    H235079   1.278   5.291  12.170  0.4516  1.8893  0.4472
 4530TIP3   OH235080   2.345   4.127   1.788  0.0253 -0.0362 -0.2413
 4530TIP3    H135081   2.302   4.176   1.858 -2.1461 -1.1655 -0.7177
 4530TIP3    H235082   2.407   4.189   1.749 -1.4198  1.7778  0.2665
 4531TIP3   OH235083   2.974   3.619  15.219 -0.0373  0.2200 -0.0113
 4531TIP3    H135084   2.925   3.684  15.168  1.5630  1.7575  0.3592
 4531TIP3    H235085   2.957   3.643  15.310  2.1389  1.3817  0.1247
 4532TIP3   OH235086   6.673   3.269  16.766  0.5192 -0.1715 -0.6689
 4532TIP3    H135087   6.658   3.177  16.786  0.7138  0.0224  0.4406
 4532TIP3    H235088   6.604   3.292  16.704 -0.5459 -0.6480  0.3184
 4533TIP3   OH235089   0.199   4.069  11.251 -0.4102  0.3315 -0.1586
 4533TIP3    H135090   0.145   4.139  11.287 -0.7243  0.3319 -0.6143
 4533TIP3    H235091   0.217   4.097  11.161 -0.6455 -0.2287 -0.3864
 4534TIP3   OH235092   6.259   1.215  16.759  0.4443  0.5593 -0.0144
 4534TIP3    H135093   6.329   1.272  16.791  0.4774 -0.0626  1.0579
 4534TIP3    H235094   6.248   1.239  16.667 -0.8329  3.6038  0.8854
 4535TIP3   OH235095   3.355   5.906  12.809 -0.2972 -0.3555  0.4734
 4535TIP3    H135096   3.403   5.834  12.768  0.3309  0.0413  0.5052
 4535TIP3    H235097   3.417   5.943  12.872 -1.0864 -0.6488  1.4373
 4536TIP3   OH235098   4.407   5.887  16.830  0.0995 -0.3677 -0.2569
 4536TIP3    H135099   4.490   5.877  16.782  0.5002  1.0109  0.1402
 4536TIP3    H235100   4.347   5.828  16.785  0.7650  0.0935 -1.7958
 4537TIP3   OH235101   2.126   6.396  15.966 -0.3331 -0.1630 -0.7349
 4537TIP3    H135102   2.139   6.367  16.057  0.6430 -1.7969 -1.3655
 4537TIP3    H235103   2.031   6.405  15.957 -0.3475  1.4659  0.8737
 4538TIP3   OH235104   1.382   0.989   3.558  0.7027 -0.0761 -0.1127
 4538TIP3    H135105   1.388   1.013   3.465 -0.2347  0.5170 -0.0321
 4538TIP3    H235106   1.331   1.060   3.597  0.9148 -0.4323  0.8178
 4539TIP3   OH235107   2.465   6.693  11.397 -0.5510  0.5878  0.3863
 4539TIP3    H135108   2.535   6.628  11.388 -0.2530  0.9610 -0.0398
 4539TIP3    H235109   2.385   6.642  11.400 -0.3757  0.2337 -0.6955
 4540TIP3   OH235110   1.976   5.080  11.500 -0.4225  0.0197 -0.6398
 4540TIP3    H135111   1.904   5.142  11.488 -0.8011  0.0668  1.5798
 4540TIP3    H235112   2.040   5.104  11.432 -1.2920  1.7708 -0.8820
 4541TIP3   OH235113   3.676   4.046  11.458 -0.2486  0.4356  0.7128
 4541TIP3    H135114   3.643   4.099  11.531 -0.2983  0.8215  0.4122
 4541TIP3    H235115   3.680   4.107  11.385 -1.8722 -0.3772 -0.0706
 4542TIP3   OH235116   6.027   4.731  10.671 -0.1150  0.1953 -0.4022
 4542TIP3    H135117   6.114   4.694  10.684 -0.5826 -1.6689 -2.2665
 4542TIP3    H235118   6.028   4.767  10.582 -1.2092  0.1785 -0.4389
 4543TIP3   OH235119   4.992   3.982  15.219  0.0879 -0.3501 -0.6646
 4543TIP3    H135120   5.037   4.060  15.188 -0.1207  0.3244  0.7199
 4543TIP3    H235121   4.953   4.007  15.302 -1.0024 -1.5722 -0.7742
 4544TIP3   OH235122   1.421   3.043  13.639  0.4360  0.4032 -0.3156
 4544TIP3    H135123   1.434   2.954  13.671 -1.4482  0.1208 -0.2618
 4544TIP3    H235124   1.336   3.041  13.596 -0.9233  2.8186  2.0956
 4545TIP3   OH235125   1.671   2.991   5.576 -0.3242  0.5530 -0.2291
 4545TIP3    H135126   1.611   3.046   5.525  0.0673  0.3406 -0.9267
 4545TIP3    H235127   1.746   3.047   5.594 -0.7705  0.8516  0.7337
 4546TIP3   OH235128   1.550   1.741  12.869  0.5239  0.4775 -0.3727
 4546TIP3    H135129   1.458   1.767  12.858  0.8761  2.3021  0.8836
 4546TIP3    H235130   1.545   1.647  12.885 -1.2981  0.8706  1.6305
 4547TIP3   OH235131   3.175   2.291   4.835 -0.3549  0.2965  0.1698
 4547TIP3    H135132   3.192   2.207   4.793 -2.2810  1.0182 -2.1461
 4547TIP3    H235133   3.224   2.287   4.917  0.4232 -2.6584 -0.3873
 4548TIP3   OH235134   3.766   4.472   1.334  0.1111  0.4125 -0.1278
 4548TIP3    H135135   3.839   4.498   1.277  0.0997  0.1860 -0.2488
 4548TIP3    H235136   3.776   4.377   1.343  1.3198  0.7069  1.9441
 4549TIP3   OH235137   1.730   3.328   4.681 -0.0746 -0.1475  0.5564
 4549TIP3    H135138   1.750   3.266   4.611 -2.8251 -0.2896 -0.1503
 4549TIP3    H235139   1.730   3.414   4.639  1.3050  0.0949  1.0314
 4550TIP3   OH235140   5.012   0.018   0.349 -0.2489  0.2063  0.5886
 4550TIP3    H135141   4.960  -0.046   0.299 -1.6209  2.1640 -0.5418
 4550TIP3    H235142   4.988   0.001   0.440 -0.5195 -0.9560  0.3187
 4551TIP3   OH235143   0.757   2.112  15.862  0.4640 -0.3321 -0.3223
 4551TIP3    H135144   0.788   2.023  15.881 -2.9400 -1.7577 -0.9593
 4551TIP3    H235145   0.827   2.151  15.810  1.8850 -2.7624 -0.3570
 4552TIP3   OH235146   3.816   4.837   4.116 -0.3049 -0.8918 -0.4208
 4552TIP3    H135147   3.749   4.780   4.079 -1.0390  0.1663 -0.7211
 4552TIP3    H235148   3.775   4.923   4.122  1.4555  0.0899 -1.8909
 4553TIP3   OH235149   3.448   1.350   3.411 -0.5748  0.1179 -0.4990
 4553TIP3    H135150   3.466   1.310   3.496 -2.6894  0.1749 -0.0009
 4553TIP3    H235151   3.531   1.342   3.363 -0.4602 -3.3710  0.1579
 4554TIP3   OH235152   1.372   2.260  14.525 -0.6816 -0.3165 -0.2092
 4554TIP3    H135153   1.377   2.168  14.500 -0.8087 -0.2565 -0.4587
 4554TIP3    H235154   1.301   2.263  14.589 -1.8874 -0.1079 -1.5237
 4555TIP3   OH235155   0.808   5.380   2.851  0.0651 -0.0979 -0.5261
 4555TIP3    H135156   0.864   5.349   2.922 -1.1993  1.5793  1.2572
 4555TIP3    H235157   0.827   5.474   2.845 -1.7816  0.2842 -0.6005
 4556TIP3   OH235158   1.774   4.203   1.984 -0.2832  0.0683  0.3592
 4556TIP3    H135159   1.790   4.292   2.014  0.8585 -0.5128  1.4605
 4556TIP3    H235160   1.856   4.156   1.997 -0.8218 -1.1242 -0.3352
 4557TIP3   OH235161   2.278   3.859   3.171  0.4483 -0.4325 -0.5703
 4557TIP3    H135162   2.213   3.804   3.127  0.9284 -0.2534 -1.5143
 4557TIP3    H235163   2.361   3.836   3.131  0.7157  0.6816 -0.6942
 4558TIP3   OH235164   4.947   6.051  12.420 -0.7396 -0.5468  0.0450
 4558TIP3    H135165   4.983   6.035  12.507  0.1264 -0.8939 -0.3804
 4558TIP3    H235166   4.904   5.969  12.396 -2.5587  0.1164  0.8885
 4559TIP3   OH235167   6.607   2.575  11.448 -0.4452 -0.0953 -0.2984
 4559TIP3    H135168   6.562   2.499  11.485 -2.2577  1.3980  0.6854
 4559TIP3    H235169   6.696   2.570  11.482 -1.7599  0.6301  3.4736
 4560TIP3   OH235170   6.583   0.320  10.665  0.0508  0.1075 -0.9255
 4560TIP3    H135171   6.674   0.350  10.658 -0.8293  2.6331 -2.1803
 4560TIP3    H235172   6.547   0.370  10.739 -0.4835 -0.4105 -0.8335
 4561TIP3   OH235173   6.706   1.859  15.828  0.4349  0.6746  0.4130
 4561TIP3    H135174   6.688   1.820  15.914  0.0346 -2.0650 -0.8982
 4561TIP3    H235175   6.801   1.852  15.819  0.5761  1.7258  0.9613
 4562TIP3   OH235176   2.773   0.618  13.620 -0.2665  0.5837  0.0408
 4562TIP3    H135177   2.841   0.554  13.600  0.5626  1.9812 -1.7505
 4562TIP3    H235178   2.813   0.676  13.685 -0.3883  0.3633  0.3169
 4563TIP3   OH235179   2.190   6.634  12.733  0.4701  0.3772 -0.5793
 4563TIP3    H135180   2.172   6.702  12.797  0.7814 -0.1655  0.0869
 4563TIP3    H235181   2.129   6.652  12.661 -0.1776  0.7242  0.0551
 4564TIP3   OH235182   3.555   2.764  12.067 -0.1170  0.2642 -0.0079
 4564TIP3    H135183   3.649   2.747  12.070 -0.4438 -2.5023 -3.1007
 4564TIP3    H235184   3.523   2.739  12.153  1.6650 -1.0094  0.3139
 4565TIP3   OH235185   3.436   1.814   0.706  0.1658  0.3097  0.3326
 4565TIP3    H135186   3.480   1.842   0.787  0.5718  1.7543 -0.3672
 4565TIP3    H235187   3.343   1.826   0.724  0.2652  0.7833  0.5429
 4566TIP3   OH235188   0.497   4.695   3.580 -0.2066 -0.2826 -0.3864
 4566TIP3    H135189   0.447   4.646   3.515 -1.3220  1.6051 -0.9921
 4566TIP3    H235190   0.551   4.756   3.529  0.2958 -0.0756  0.3754
 4567TIP3   OH235191   4.986   4.812   5.380  0.0729  0.3217 -0.1781
 4567TIP3    H135192   4.987   4.881   5.447 -1.2535 -0.9579  1.2008
 4567TIP3    H235193   4.997   4.731   5.430  0.4629 -0.5484 -1.6643
 4568TIP3   OH235194   2.102   1.633  12.486  0.0390  0.4811  0.0341
 4568TIP3    H135195   2.134   1.620  12.575  0.8773 -2.4381 -0.6342
 4568TIP3    H235196   2.182   1.647  12.434 -0.4418  2.1546 -0.2956
 4569TIP3   OH235197   2.005   5.772   2.360  0.4449 -0.0391  0.1818
 4569TIP3    H135198   1.918   5.789   2.396 -0.6468 -0.2907 -2.2550
 4569TIP3    H235199   2.053   5.731   2.433 -0.6659  2.3236  2.3138
 4570TIP3   OH235200   3.182   3.531  12.269  0.1784 -0.2121  0.2081
 4570TIP3    H135201   3.222   3.465  12.212 -0.1762  1.2197 -1.7409
 4570TIP3    H235202   3.119   3.576  12.213  0.4847  1.8679  1.4935
 4571TIP3   OH235203   5.231   5.984  15.685  0.6115  0.2347 -0.3053
 4571TIP3    H135204   5.299   6.001  15.751  1.3389 -2.5780 -0.2764
 4571TIP3    H235205   5.153   5.963  15.736  0.6108  0.1509 -0.3409
 4572TIP3   OH235206   3.302   1.087   4.847  0.7761 -0.0017  0.3175
 4572TIP3    H135207   3.230   1.098   4.785  1.3583 -1.9441 -0.7401
 4572TIP3    H235208   3.260   1.064   4.929  0.0532  1.5353  0.3973
 4573TIP3   OH235209   6.360   3.815  17.015 -0.0188 -0.1496 -0.1786
 4573TIP3    H135210   6.372   3.891  16.958  0.2282  0.1273  0.2365
 4573TIP3    H235211   6.323   3.748  16.958 -0.1194  0.2405 -0.5776
 4574TIP3   OH235212   0.697   3.574  11.048 -0.0110  0.4208 -0.3431
 4574TIP3    H135213   0.764   3.511  11.021 -0.2061 -0.9750  2.2621
 4574TIP3    H235214   0.630   3.521  11.091 -1.6424  2.0793 -0.7738
 4575TIP3   OH235215   0.466   2.758   6.116 -0.2323 -0.1571 -0.2591
 4575TIP3    H135216   0.439   2.779   6.206  0.2763 -1.0237  0.1015
 4575TIP3    H235217   0.546   2.707   6.126  0.1794  0.2799 -1.2361
 4576TIP3   OH235218   4.496   1.207  11.931 -0.0734 -0.1092 -0.0958
 4576TIP3    H135219   4.565   1.141  11.921  0.2838  0.5921 -2.7067
 4576TIP3    H235220   4.539   1.282  11.971  0.0990 -0.5701  0.5870
 4577TIP3   OH235221   5.463   5.132   4.598  0.4591  0.1421  0.7062
 4577TIP3    H135222   5.503   5.045   4.606  0.8592  0.1168 -1.4091
 4577TIP3    H235223   5.426   5.134   4.510 -2.5409  0.8977  1.9131
 4578TIP3   OH235224   4.372   0.783   0.280  0.6073 -0.4308  0.0111
 4578TIP3    H135225   4.322   0.863   0.296  1.8292  0.1247  1.1082
 4578TIP3    H235226   4.435   0.779   0.352  2.2495 -1.0253 -1.4155
 4579TIP3   OH235227   4.933   2.525   4.634 -0.3139 -0.4578 -0.2305
 4579TIP3    H135228   4.894   2.441   4.611 -1.1347 -0.0954 -0.1885
 4579TIP3    H235229   5.020   2.503   4.666  0.5871 -1.0218 -2.9850
 4580TIP3   OH235230   0.382   0.892   3.868  0.0368 -0.2742  0.4243
 4580TIP3    H135231   0.296   0.919   3.901  1.1505  0.9784  2.4649
 4580TIP3    H235232   0.404   0.814   3.919  0.1734 -0.4890  0.0374
 4581TIP3   OH235233   4.320   1.289  15.629  0.3000  0.2125 -0.1537
 4581TIP3    H135234   4.297   1.316  15.540  1.5019  0.5337 -0.3762
 4581TIP3    H235235   4.415   1.297  15.633  0.4311 -1.4825  0.6102
 4582TIP3   OH235236   1.145   6.571   4.654  0.0051 -0.0068  0.3143
 4582TIP3    H135237   1.115   6.648   4.605  0.0551 -0.0953  0.1432
 4582TIP3    H235238   1.152   6.601   4.745  1.1311  0.4956  0.0593
 4583TIP3   OH235239   2.840   6.560  13.769  0.0548 -0.5917 -0.1530
 4583TIP3    H135240   2.780   6.584  13.839 -0.2392 -0.5131 -0.4314
 4583TIP3    H235241   2.786   6.559  13.690  0.4127 -0.5510 -0.3998
 4584TIP3   OH235242   5.933   0.070   5.085  0.2275 -0.2027  0.5050
 4584TIP3    H135243   5.977   0.081   5.169  0.9898 -2.2362  0.3922
 4584TIP3    H235244   5.840   0.074   5.106  0.4201  0.8065  1.2148
 4585TIP3   OH235245   5.474   0.612  16.279 -0.5708  1.0048  0.4648
 4585TIP3    H135246   5.411   0.679  16.306 -0.9978  0.0710  1.8359
 4585TIP3    H235247   5.458   0.538  16.338 -0.9133 -0.7779 -1.7988
 4586TIP3   OH235248   3.328   6.421   2.965  0.1625  0.3987 -0.3862
 4586TIP3    H135249   3.407   6.372   2.944 -0.2436 -0.3001 -0.3108
 4586TIP3    H235250   3.263   6.387   2.903 -1.2833 -2.2538  2.4428
 4587TIP3   OH235251   5.157   2.179   3.334 -0.3096 -0.8816  0.0524
 4587TIP3    H135252   5.253   2.176   3.340  0.2870  2.1280 -5.4790
 4587TIP3    H235253   5.132   2.090   3.308  1.2274 -1.0428 -0.9267
 4588TIP3   OH235254   4.180   4.938  15.426  0.3999 -0.2546  0.1647
 4588TIP3    H135255   4.142   5.021  15.453  0.3687  0.3827 -1.7573
 4588TIP3    H235256   4.154   4.928  15.334  1.7959 -1.5725 -0.1135
 4589TIP3   OH235257   5.667   2.933   3.945 -0.1066  1.2960 -0.2113
 4589TIP3    H135258   5.660   2.882   4.025 -1.7645 -2.6583 -2.7561
 4589TIP3    H235259   5.760   2.953   3.937  0.7951 -2.4329  0.2397
 4590TIP3   OH235260   2.792   0.876   6.001  0.0624  0.2662 -0.2639
 4590TIP3    H135261   2.861   0.916   6.054  0.4627 -0.3564 -0.3025
 4590TIP3    H235262   2.774   0.793   6.045 -0.4727  0.3069 -0.4081
 4591TIP3   OH235263   3.198   5.414  13.369  0.1476  0.0652 -0.5394
 4591TIP3    H135264   3.261   5.346  13.346 -0.2618 -0.9885  1.4483
 4591TIP3    H235265   3.117   5.388  13.325  0.1534 -0.4108 -0.2680
 4592TIP3   OH235266   6.663   0.618   3.775  0.4116  0.0697  0.0497
 4592TIP3    H135267   6.714   0.681   3.724 -1.9853  1.7431 -0.3629
 4592TIP3    H235268   6.584   0.666   3.799 -0.6930 -2.2811  1.1861
 4593TIP3   OH235269   5.367   6.746   4.107 -0.4172  0.1052  0.0524
 4593TIP3    H135270   5.318   6.776   4.030 -1.7655  0.9257  1.2006
 4593TIP3    H235271   5.412   6.667   4.078 -1.4142  0.0557 -1.4066
 4594TIP3   OH235272   4.205   2.111   5.261  0.4101  0.0702  0.2322
 4594TIP3    H135273   4.260   2.189   5.267 -0.6713  0.6960  2.4734
 4594TIP3    H235274   4.247   2.048   5.320  0.5578 -0.5905 -0.5756
 4595TIP3   OH235275   3.209   2.687  15.475 -0.0178  0.1335  0.9680
 4595TIP3    H135276   3.219   2.594  15.495 -1.2268  0.0255  1.1043
 4595TIP3    H235277   3.203   2.730  15.560  1.2572  0.4176  0.9112
 4596TIP3   OH235278   5.346   3.793   5.263  0.1187 -0.0620  0.0440
 4596TIP3    H135279   5.260   3.830   5.284 -0.1096 -0.2145 -0.6056
 4596TIP3    H235280   5.356   3.718   5.322 -1.5012 -1.8766 -1.9164
 4597TIP3   OH235281   2.454   4.348  16.695  0.2718 -0.0232  0.4465
 4597TIP3    H135282   2.414   4.284  16.636  0.6423 -1.3497  1.6122
 4597TIP3    H235283   2.406   4.338  16.777  0.0816  1.4616  0.5232
 4598TIP3   OH235284   4.694   3.527   6.956  0.3169  0.5787  0.3443
 4598TIP3    H135285   4.785   3.511   6.932  0.0458 -1.1704  0.3725
 4598TIP3    H235286   4.699   3.582   7.034  1.3247  1.1349 -0.1067
 4599TIP3   OH235287   6.801   6.746  14.013  0.1580  0.7349 -0.1937
 4599TIP3    H135288   6.781   6.789  13.930 -2.0395 -0.4261 -0.3222
 4599TIP3    H235289   6.815   6.654  13.988  0.8588  0.6423  0.5491
 4600TIP3   OH235290   2.308   3.974   6.582 -0.5544 -0.0466  0.0307
 4600TIP3    H135291   2.322   4.012   6.495  0.7512  0.4582  0.4410
 4600TIP3    H235292   2.301   3.880   6.566 -1.1154  0.1168 -0.7072
 4601TIP3   OH235293   1.873   2.163   1.882  0.1987 -0.5221 -0.1007
 4601TIP3    H135294   1.954   2.125   1.915  0.5998  1.3634  1.1492
 4601TIP3    H235295   1.804   2.124   1.936  0.5781  0.2214  0.9412
 4602TIP3   OH235296   2.780   5.533  14.371  0.4451  0.3221 -0.1408
 4602TIP3    H135297   2.711   5.563  14.312  0.1320 -0.6600 -0.2901
 4602TIP3    H235298   2.788   5.439  14.352  2.2020  0.5375 -0.5153
 4603TIP3   OH235299   1.238   6.568   1.913  0.6938  0.3520 -0.2954
 4603TIP3    H135300   1.216   6.645   1.861  0.6117 -0.2996 -1.2485
 4603TIP3    H235301   1.176   6.501   1.882  1.1935 -0.2746  0.0615
 4604TIP3   OH235302   5.423   3.255   2.357 -0.3646 -0.6232 -0.6534
 4604TIP3    H135303   5.347   3.205   2.386 -0.6769 -0.6734 -1.5431
 4604TIP3    H235304   5.415   3.257   2.262  0.7567 -0.6398 -0.7512
 4605TIP3   OH235305   5.237   3.895  15.147  0.0525 -0.0036  0.0974
 4605TIP3    H135306   5.244   3.894  15.243  1.2974 -0.4503 -0.0019
 4605TIP3    H235307   5.143   3.888  15.131 -0.1253 -0.5077  1.2786
 4606TIP3   OH235308   6.459   5.597   1.311  0.2345  0.5084  0.2741
 4606TIP3    H135309   6.498   5.648   1.240 -1.8895  0.5914 -0.8995
 4606TIP3    H235310   6.442   5.511   1.273  0.1086  0.1955  1.0203
 4607TIP3   OH235311   5.732   6.609  11.884 -0.3626  0.2230 -0.2812
 4607TIP3    H135312   5.711   6.578  11.796 -1.6263  0.0221  0.0765
 4607TIP3    H235313   5.819   6.574  11.902 -0.2226  0.0188 -1.3317
 4608TIP3   OH235314   6.485   0.399   3.143 -0.4339  0.1990  0.7971
 4608TIP3    H135315   6.491   0.492   3.166  0.7247 -0.1285  1.8879
 4608TIP3    H235316   6.414   0.366   3.199 -1.2002  0.5194  0.0343
 4609TIP3   OH235317   0.595   0.204  12.213  0.5025  0.3313  0.3261
 4609TIP3    H135318   0.632   0.139  12.154 -3.0829 -1.4065 -0.1559
 4609TIP3    H235319   0.586   0.283  12.159  0.6050 -0.1671 -0.4306
 4610TIP3   OH235320   2.939   2.769   1.404 -0.9046 -0.1745  0.2250
 4610TIP3    H135321   2.926   2.851   1.451 -1.5454  0.5807 -1.2499
 4610TIP3    H235322   3.032   2.772   1.379 -0.4993 -0.6820  1.5902
 4611TIP3   OH235323   1.647   5.618  15.231 -0.0318 -0.0235  0.0279
 4611TIP3    H135324   1.729   5.609  15.279  0.4769  0.0795 -0.8130
 4611TIP3    H235325   1.584   5.566  15.281  0.0508  1.5282  1.7921
 4612TIP3   OH235326   2.819   5.702  12.257 -0.1326  0.0302  0.0511
 4612TIP3    H135327   2.762   5.641  12.304  0.1982  0.7249  1.3634
 4612TIP3    H235328   2.782   5.705  12.168  1.1477 -3.7757 -0.6988
 4613TIP3   OH235329   4.983   1.431  12.263 -0.5936  0.6012  0.1233
 4613TIP3    H135330   5.064   1.385  12.240 -0.4059  0.9437  0.0944
 4613TIP3    H235331   4.988   1.442  12.358  0.0846  1.9078 -0.0496
 4614TIP3   OH235332   5.361   5.811   1.333  0.0085  0.2323  0.3902
 4614TIP3    H135333   5.331   5.737   1.386 -1.3247  0.0280 -0.6184
 4614TIP3    H235334   5.300   5.814   1.259 -0.1905  2.5723  0.5996
 4615TIP3   OH235335   4.223   3.526   1.199 -0.4152 -0.1694 -0.3033
 4615TIP3    H135336   4.249   3.530   1.291 -2.5010  1.0116  0.2784
 4615TIP3    H235337   4.284   3.584   1.154  0.3344 -0.3982  0.4130
 4616TIP3   OH235338   6.596   4.364   3.841  0.5598  0.1533 -0.0739
 4616TIP3    H135339   6.646   4.320   3.772 -1.2260 -2.1748  0.0777
 4616TIP3    H235340   6.519   4.400   3.795  0.3324  0.2579  0.3846
 4617TIP3   OH235341   1.732   5.613  12.946  0.3969 -0.5370 -0.1499
 4617TIP3    H135342   1.674   5.635  12.873 -0.6462 -2.8766 -0.0602
 4617TIP3    H235343   1.742   5.518  12.941  2.2002 -0.4463  1.3664
 4618TIP3   OH235344   2.469   4.780  13.421  0.4221 -0.2003 -0.3580
 4618TIP3    H135345   2.500   4.832  13.347  0.4483 -1.1091 -0.9947
 4618TIP3    H235346   2.384   4.817  13.443  0.6758  0.4507 -0.4668
 4619TIP3   OH235347   5.765   2.208   5.994 -0.3361  0.4885  0.1268
 4619TIP3    H135348   5.685   2.201   6.047 -0.8328  1.9615 -0.4004
 4619TIP3    H235349   5.812   2.126   6.010 -0.9196  0.5274  2.1250
 4620TIP3   OH235350   1.592   4.507  17.096 -0.4021 -0.2523 -0.2409
 4620TIP3    H135351   1.498   4.492  17.093 -0.3865 -0.1879 -1.4173
 4620TIP3    H235352   1.603   4.584  17.152 -0.8996 -1.3224  1.3642
 4621TIP3   OH235353   2.081   1.326  17.223 -0.1887  0.0351 -0.1421
 4621TIP3    H135354   2.132   1.400  17.257  1.0951 -1.6864  1.8010
 4621TIP3    H235355   2.142   1.280  17.165 -0.7670  0.0972 -0.8049
 4622TIP3   OH235356   5.714   0.098   0.355 -0.5961 -0.6527  0.7745
 4622TIP3    H135357   5.674   0.070   0.273 -0.7963  0.3072  0.5438
 4622TIP3    H235358   5.648   0.080   0.422 -0.4186 -1.4705  0.7428
 4623TIP3   OH235359   1.573   2.100  11.682 -0.1737  0.6615 -0.0146
 4623TIP3    H135360   1.599   2.180  11.727 -0.9105  1.8906 -1.7169
 4623TIP3    H235361   1.656   2.056  11.662  0.3134  1.7222 -0.3529
 4624TIP3   OH235362   6.272   2.628  11.521 -0.3371 -0.5421 -0.3970
 4624TIP3    H135363   6.189   2.670  11.546 -0.0204  0.8271 -1.5780
 4624TIP3    H235364   6.282   2.556  11.584 -0.9578  1.0684  1.6288
 4625TIP3   OH235365   6.292   0.593  15.985  0.7856 -0.2719 -0.5149
 4625TIP3    H135366   6.207   0.636  15.980  0.9714  0.1587 -0.0405
 4625TIP3    H235367   6.282   0.512  15.935  0.7697  0.8774 -2.4103
 4626TIP3   OH235368   1.047   3.267  14.105 -0.1124 -0.2802  0.1207
 4626TIP3    H135369   1.089   3.209  14.168  2.0038  1.7459  0.6181
 4626TIP3    H235370   1.017   3.342  14.156 -0.6003  0.2340 -0.8900
 4627TIP3   OH235371   0.694   3.886   3.400  0.2087  0.2557  0.2362
 4627TIP3    H135372   0.781   3.901   3.436  0.2778  1.7969 -0.5645
 4627TIP3    H235373   0.667   3.802   3.438  2.2494 -0.4988  0.0685
 4628TIP3   OH235374   6.372   3.049  12.523 -0.3809 -0.0973  0.3536
 4628TIP3    H135375   6.373   3.045  12.618  0.1726 -0.2095  0.3486
 4628TIP3    H235376   6.362   3.142  12.503 -1.1099 -0.1429  0.5195
 4629TIP3   OH235377   1.435   5.914   0.188  0.7073  0.5213  0.0750
 4629TIP3    H135378   1.468   5.985   0.135  2.8893  0.1019  0.8039
 4629TIP3    H235379   1.463   5.935   0.277  1.3883 -1.2304  0.2981
 4630TIP3   OH235380   1.651   2.368   3.385  0.6832 -0.3749 -0.4516
 4630TIP3    H135381   1.561   2.384   3.415  0.3617 -0.5549 -1.2766
 4630TIP3    H235382   1.700   2.345   3.463 -0.1480 -0.9313 -0.0914
 4631TIP3   OH235383   6.740   5.163   3.757 -0.1495 -0.3680 -0.0351
 4631TIP3    H135384   6.654   5.163   3.717 -0.4458 -1.1590  0.5916
 4631TIP3    H235385   6.736   5.095   3.824  0.7933 -0.0573  0.3527
 4632TIP3   OH235386   1.570   1.186  14.511  0.0027  0.1847  0.3641
 4632TIP3    H135387   1.581   1.265  14.564 -0.2641  0.2663  0.2958
 4632TIP3    H235388   1.557   1.116  14.575 -0.2904  0.2791  0.4067
 4633TIP3   OH235389   1.487   5.993   2.541  0.1002  0.1635 -0.1229
 4633TIP3    H135390   1.483   6.055   2.468  0.2796  0.6203  0.2503
 4633TIP3    H235391   1.559   5.934   2.518 -0.1051  0.0575 -0.5057
 4634TIP3   OH235392   4.725   5.442   0.502 -0.4009 -0.5762  0.4886
 4634TIP3    H135393   4.679   5.384   0.441 -0.4673  2.0284 -2.0611
 4634TIP3    H235394   4.801   5.472   0.453  0.1780  0.7057  2.1315
 4635TIP3   OH235395   1.222   4.756  11.167  0.0559 -0.6851  0.0559
 4635TIP3    H135396   1.196   4.722  11.082  0.4546 -1.8298  0.3873
 4635TIP3    H235397   1.202   4.850  11.162  0.4551 -0.6655 -1.4288
 4636TIP3   OH235398   4.306   5.927  14.296  0.4194 -0.2286 -0.5959
 4636TIP3    H135399   4.373   5.938  14.364  1.1658 -3.4377 -0.7253
 4636TIP3    H235400   4.355   5.916  14.215 -0.2418 -2.0145 -0.7821
 4637TIP3   OH235401   1.225   5.834   1.609  0.1622 -0.1773  0.1611
 4637TIP3    H135402   1.172   5.829   1.529 -0.0971 -2.4002  0.4197
 4637TIP3    H235403   1.168   5.799   1.678  2.0105 -2.9298  0.3893
 4638TIP3   OH235404   6.019   4.214   4.699 -0.1015 -0.4134 -0.4655
 4638TIP3    H135405   6.110   4.189   4.715 -0.2822 -1.8341 -1.5759
 4638TIP3    H235406   6.022   4.261   4.616 -0.4263 -0.7378 -0.6617
 4639TIP3   OH235407   3.916   5.047  14.362  0.3500 -0.0718 -0.1358
 4639TIP3    H135408   3.935   5.099  14.283 -2.5733 -0.7815 -1.3546
 4639TIP3    H235409   3.883   5.111  14.425 -0.0769  0.0723 -0.4993
 4640TIP3   OH235410   1.039   5.585   0.806 -0.4065 -0.1094 -0.0790
 4640TIP3    H135411   1.017   5.666   0.852  1.5941  0.0703  0.5940
 4640TIP3    H235412   1.126   5.600   0.771 -0.4504 -1.5903 -0.8496
 4641TIP3   OH235413   1.679   2.374   2.151 -0.1200 -0.0833  0.7208
 4641TIP3    H135414   1.656   2.296   2.101  1.1575 -0.0511  0.0618
 4641TIP3    H235415   1.654   2.447   2.094  1.8586 -0.0506 -0.1346
 4642TIP3   OH235416   1.470   0.514   5.582 -0.0399 -0.0522 -0.0624
 4642TIP3    H135417   1.563   0.491   5.586 -0.4378 -1.5548  0.7863
 4642TIP3    H235418   1.436   0.462   5.509 -0.4331 -0.3122  0.3037
 4643TIP3   OH235419   2.592   2.723  11.001  0.4136  0.0641  0.0732
 4643TIP3    H135420   2.497   2.718  11.015  0.5159  0.6384  1.0003
 4643TIP3    H235421   2.625   2.639  11.035  0.1640 -0.4555 -0.9417
 4644TIP3   OH235422   4.824   4.353  15.854 -0.4668 -0.5962 -0.8458
 4644TIP3    H135423   4.914   4.379  15.834 -0.7965  1.1555 -0.1350
 4644TIP3    H235424   4.770   4.413  15.802 -1.2223 -2.5695 -2.3804
 4645TIP3   OH235425   0.790   4.367  16.840  0.0288  0.1484 -0.3165
 4645TIP3    H135426   0.821   4.430  16.905 -0.9930  0.7985 -0.4498
 4645TIP3    H235427   0.845   4.290  16.854  2.2516  1.5711 -1.1355
 4646TIP3   OH235428   4.616   0.611  13.008 -0.0236  0.1325  0.3981
 4646TIP3    H135429   4.534   0.627  13.054  0.3902  0.7372  0.9296
 4646TIP3    H235430   4.683   0.610  13.077  0.2315 -1.9229  0.1738
 4647TIP3   OH235431   1.923   4.117  15.533 -0.0395  0.1626  0.0328
 4647TIP3    H135432   1.944   4.094  15.623 -1.7754 -1.9212 -0.0491
 4647TIP3    H235433   1.919   4.212  15.532 -0.7539  0.1738  2.3289
 4648TIP3   OH235434   1.126   5.262  11.573  0.3567 -0.5474 -0.1059
 4648TIP3    H135435   1.176   5.180  11.568 -0.5927 -1.1423 -0.0700
 4648TIP3    H235436   1.114   5.288  11.481  0.6549 -0.4502 -0.1171
 4649TIP3   OH235437   3.330   3.808  15.020  0.8003  0.3837  0.8509
 4649TIP3    H135438   3.240   3.777  15.010  1.2886 -0.5237 -0.9267
 4649TIP3    H235439   3.326   3.902  15.000  0.5384 -0.0118 -0.9948
 4650TIP3   OH235440   5.566   2.590   3.219 -0.3290  0.3456  0.6495
 4650TIP3    H135441   5.536   2.643   3.145 -0.0709  0.8571  0.9083
 4650TIP3    H235442   5.560   2.500   3.188  0.6377  0.5989 -0.3157
 4651TIP3   OH235443   0.625   2.795   2.684 -0.4594  0.3775 -0.0446
 4651TIP3    H135444   0.682   2.732   2.639 -0.5679 -0.5983  1.1338
 4651TIP3    H235445   0.643   2.780   2.777 -2.7047 -0.0261  0.3568
 4652TIP3   OH235446   3.077   5.041  12.746  0.0815 -0.1708  0.2771
 4652TIP3    H135447   3.071   4.946  12.754 -0.1299 -0.2026 -0.2332
 4652TIP3    H235448   2.989   5.069  12.720  0.0894  0.1856  0.6219
 4653TIP3   OH235449   2.788   1.086  10.982  0.4690 -0.3495  0.5246
 4653TIP3    H135450   2.867   1.088  10.929 -0.3509 -1.4436 -0.7906
 4653TIP3    H235451   2.809   1.139  11.059  1.4842  1.8226 -1.1773
 4654TIP3   OH235452   2.274   5.572  15.752  0.5155  0.5548 -0.3186
 4654TIP3    H135453   2.284   5.484  15.789  1.3680  0.4717 -0.7157
 4654TIP3    H235454   2.358   5.588  15.707  0.3996  1.6048 -0.1685
 4655TIP3   OH235455   3.092   5.396   2.075 -0.6061  0.1420 -0.2639
 4655TIP3    H135456   3.013   5.382   2.127 -1.9509 -0.0092 -2.2962
 4655TIP3    H235457   3.070   5.468   2.017  1.0784  0.6992 -0.2398
 4656TIP3   OH235458   4.452   2.544   5.064  0.6094  0.0496 -0.0252
 4656TIP3    H135459   4.456   2.590   5.148  2.3483 -0.0595 -0.0273
 4656TIP3    H235460   4.371   2.576   5.024 -0.2809  0.0551  1.7063
 4657TIP3   OH235461   4.419   1.608  16.550  0.0859  0.3039  0.0652
 4657TIP3    H135462   4.438   1.518  16.527  1.0558  0.4832  0.1275
 4657TIP3    H235463   4.503   1.642  16.583  0.0053  1.5367 -0.9709
 4658TIP3   OH235464   4.772   3.673   4.115  0.2538  0.3731 -0.3673
 4658TIP3    H135465   4.784   3.588   4.072  1.6752 -0.6548  2.0133
 4658TIP3    H235466   4.852   3.722   4.096 -0.5007  1.1626 -1.6091
 4659TIP3   OH235467   5.489   5.864   1.817  0.4152  0.4226  0.0362
 4659TIP3    H135468   5.534   5.871   1.733  2.3319  0.8884  1.0563
 4659TIP3    H235469   5.548   5.812   1.872 -2.6439 -3.3474 -0.0676
 4660TIP3   OH235470   6.427   4.702   5.817  0.1595  0.1339 -0.3840
 4660TIP3    H135471   6.412   4.744   5.901  0.1828 -2.4816  0.9644
 4660TIP3    H235472   6.441   4.610   5.837  0.7345 -0.4680 -3.2004
 4661TIP3   OH235473   1.140   3.676  15.585  0.4119  0.0630 -0.2873
 4661TIP3    H135474   1.157   3.657  15.493  1.4180 -0.0220 -0.0971
 4661TIP3    H235475   1.051   3.644  15.601  1.1608 -2.2820 -0.5900
 4662TIP3   OH235476   1.316   0.501  12.561 -0.2411 -0.3251  0.4642
 4662TIP3    H135477   1.406   0.475  12.579  0.5128  0.4309 -2.0062
 4662TIP3    H235478   1.289   0.551  12.638  1.7033  0.0414  0.9252
 4663TIP3   OH235479   1.512   4.060  11.007 -0.5776  0.3766 -0.3742
 4663TIP3    H135480   1.593   4.042  10.959 -0.3010  1.4904 -0.3492
 4663TIP3    H235481   1.529   4.143  11.052 -1.7658  0.6623 -0.4326
 4664TIP3   OH235482   0.982   2.285   0.386  0.2228 -0.1537  0.5509
 4664TIP3    H135483   0.987   2.377   0.411 -1.5773 -0.4541  2.1072
 4664TIP3    H235484   0.952   2.286   0.295  3.2612  0.8385 -0.5353
 4665TIP3   OH235485   2.392   1.709  11.469 -0.3535  0.6062 -0.3323
 4665TIP3    H135486   2.335   1.644  11.510  0.3025 -1.2418 -2.2615
 4665TIP3    H235487   2.403   1.777  11.536 -1.8542 -0.7712  1.3678
 4666TIP3   OH235488   4.029   4.372   0.570  0.0245 -0.1626 -0.3092
 4666TIP3    H135489   4.118   4.343   0.592 -0.6155  0.2454  3.2561
 4666TIP3    H235490   4.039   4.465   0.549  0.7254 -0.6311 -2.0956
 4667TIP3   OH235491   5.147   0.191  15.811  0.2193 -0.3569 -0.2396
 4667TIP3    H135492   5.099   0.120  15.768 -0.0684 -1.2145  1.4725
 4667TIP3    H235493   5.201   0.147  15.877 -0.9383  1.1234  1.7488
 4668TIP3   OH235494   0.050   2.708  16.006  0.2380  0.1436 -0.6215
 4668TIP3    H135495   0.087   2.688  15.921  1.8852  0.8053 -0.0833
 4668TIP3    H235496   0.015   2.625  16.038 -0.0603 -0.1785 -1.7731
 4669TIP3   OH235497   5.699   6.739   0.036  0.1467  0.0362 -0.3615
 4669TIP3    H135498   5.740   6.725  -0.050  2.0676  3.0766 -0.0360
 4669TIP3    H235499   5.616   6.781   0.016  1.5240  2.6850 -0.7133
 4670TIP3   OH235500   5.485   5.808   2.565 -0.0525  0.2712  0.7343
 4670TIP3    H135501   5.488   5.740   2.498 -2.7474 -0.6614  1.5155
 4670TIP3    H235502   5.577   5.826   2.584  0.7788  0.1461 -2.7579
 4671TIP3   OH235503   5.915   4.404   2.577  0.4129 -0.0005  0.2322
 4671TIP3    H135504   5.840   4.368   2.625 -0.0669 -1.9233 -1.8493
 4671TIP3    H235505   5.906   4.498   2.585 -1.8309 -0.2256  0.6499
 4672TIP3   OH235506   6.718   0.688  14.115  0.0392  0.2312 -0.1525
 4672TIP3    H135507   6.691   0.623  14.179 -1.4783 -0.2973 -1.2783
 4672TIP3    H235508   6.779   0.642  14.057  0.0137  0.1860 -0.1440
 4673TIP3   OH235509   1.102   5.006  15.511 -0.2638 -0.2254 -0.8650
 4673TIP3    H135510   1.010   5.022  15.535  0.1319  0.3977  0.3032
 4673TIP3    H235511   1.121   4.919  15.547 -0.8569 -1.0654 -2.5334
 4674TIP3   OH235512   5.894   0.692  16.185  0.0334  0.5424  0.5726
 4674TIP3    H135513   5.935   0.661  16.266 -2.6254  0.6895  2.0539
 4674TIP3    H235514   5.836   0.620  16.159  1.3854  0.2025 -1.6282
 4675TIP3   OH235515   0.484   0.857   4.616  0.1207  0.1748  0.5288
 4675TIP3    H135516   0.487   0.774   4.664 -0.0215 -0.5794 -0.7342
 4675TIP3    H235517   0.406   0.901   4.649 -0.3656 -0.6448  0.4821
 4676TIP3   OH235518   6.713   6.002   3.151 -0.1653 -0.2204 -0.3024
 4676TIP3    H135519   6.689   5.910   3.166  0.1549  0.0261  1.9320
 4676TIP3    H235520   6.736   6.035   3.238  0.9691  1.6315 -1.2745
 4677TIP3   OH235521   6.121   1.462   4.762 -0.6878  0.1727  0.6138
 4677TIP3    H135522   6.201   1.508   4.786 -0.8552 -0.8200  3.2166
 4677TIP3    H235523   6.150   1.378   4.728 -0.6161 -0.0602  1.2557
 4678TIP3   OH235524   0.043   6.383  15.989  0.0351 -0.1629 -0.0725
 4678TIP3    H135525   0.066   6.438  15.915  0.3490 -1.3618 -0.8837
 4678TIP3    H235526   0.126   6.360  16.030 -0.1806  1.0569  1.0714
 4679TIP3   OH235527   3.914   4.852  13.458 -0.0411 -0.0610 -0.4573
 4679TIP3    H135528   3.825   4.831  13.485  0.5533 -1.7625  0.2993
 4679TIP3    H235529   3.946   4.913  13.525 -0.1268 -0.6838  0.1628
 4680TIP3   OH235530   6.715   5.776  11.927  0.0003 -0.0448 -0.1510
 4680TIP3    H135531   6.707   5.803  12.018  0.8219 -2.5699  0.7297
 4680TIP3    H235532   6.648   5.708  11.916  1.1981 -1.1444 -0.8429
 4681TIP3   OH235533   0.092   1.089  11.757  0.0697  0.0725 -0.4498
 4681TIP3    H135534   0.159   1.156  11.767  0.7744 -0.5707 -0.8154
 4681TIP3    H235535   0.114   1.023  11.824 -1.3665  0.8142  0.7781
 4682TIP3   OH235536   1.285   1.323   1.367 -0.0505  0.5939 -0.0582
 4682TIP3    H135537   1.369   1.323   1.320  0.4188 -1.8089  0.6884
 4682TIP3    H235538   1.221   1.293   1.302  0.1773 -0.3362  0.1362
 4683TIP3   OH235539   6.351   0.243  15.632 -0.0493 -0.2870 -0.0928
 4683TIP3    H135540   6.406   0.322  15.629 -0.4660  0.0657  1.3155
 4683TIP3    H235541   6.412   0.173  15.655  0.2915 -0.3688 -1.1824
 4684TIP3   OH235542   0.234   4.033   6.238 -0.7213 -0.1366  0.0958
 4684TIP3    H135543   0.183   4.113   6.220 -0.7816 -0.5875 -1.8883
 4684TIP3    H235544   0.193   3.996   6.316 -0.8373  1.6410  0.9210
 4685TIP3   OH235545   5.016   0.793  14.698 -0.2746 -0.0423  0.2548
 4685TIP3    H135546   4.977   0.877  14.721 -2.6026 -1.3753  1.3586
 4685TIP3    H235547   5.110   0.806  14.711 -0.5607  2.4970  0.0077
 4686TIP3   OH235548   5.822   5.874  11.257 -0.0859 -0.0699 -0.1774
 4686TIP3    H135549   5.788   5.863  11.169  2.4961  2.4300 -1.5766
 4686TIP3    H235550   5.905   5.921  11.245  0.5931 -0.1636  3.5263
 4687TIP3   OH235551   3.733   5.715  16.856 -0.0549 -0.3388 -0.0352
 4687TIP3    H135552   3.788   5.793  16.850 -0.1629 -0.3248 -1.0466
 4687TIP3    H235553   3.718   5.702  16.949 -0.0036  0.8233  0.1309
 4688TIP3   OH235554   3.332   4.203  14.277  0.4056  0.0163 -0.1560
 4688TIP3    H135555   3.360   4.217  14.186  1.4588 -1.5933 -0.0864
 4688TIP3    H235556   3.307   4.290  14.307 -0.0975  0.5618 -2.0368
 4689TIP3   OH235557   3.215   5.269  12.650 -0.6383  0.0685  0.2769
 4689TIP3    H135558   3.192   5.267  12.557 -1.6257  0.7439  0.5070
 4689TIP3    H235559   3.180   5.187  12.684 -0.0025 -0.3267 -0.0035
 4690TIP3   OH235560   0.200   4.333   5.493  0.3923 -0.4871  0.9711
 4690TIP3    H135561   0.251   4.372   5.422 -3.1309  0.7339 -1.0457
 4690TIP3    H235562   0.213   4.392   5.567  1.8279 -0.1768  0.4837
 4691TIP3   OH235563   2.719   1.447   1.029 -0.0240  0.5949 -0.1351
 4691TIP3    H135564   2.682   1.368   0.990 -1.0953  1.7782 -1.5875
 4691TIP3    H235565   2.813   1.434   1.028 -0.1690 -0.3855 -0.9836
 4692TIP3   OH235566   6.146   3.515  14.501  0.2756 -0.2992  0.2570
 4692TIP3    H135567   6.173   3.565  14.578  1.5013  1.3363 -1.1775
 4692TIP3    H235568   6.068   3.468  14.528 -1.2140  2.8036  1.5374
 4693TIP3   OH235569   3.807   2.332   3.787  0.2162 -0.1878  0.4322
 4693TIP3    H135570   3.794   2.369   3.699 -0.6076 -0.0080  0.6259
 4693TIP3    H235571   3.736   2.267   3.796 -0.5427  0.7740  1.4949
 4694TIP3   OH235572   3.988   5.097   0.810 -0.3290  0.3224  0.0180
 4694TIP3    H135573   3.997   5.076   0.903  0.8461 -0.6708 -0.3021
 4694TIP3    H235574   4.020   5.187   0.803  1.6735 -0.3452  0.2409
 4695TIP3   OH235575   5.436   4.050  11.497 -0.1851 -0.5153 -0.1717
 4695TIP3    H135576   5.527   4.023  11.481 -0.1038 -0.3840  0.0848
 4695TIP3    H235577   5.433   4.072  11.590 -0.4480 -0.3908 -0.2108
 4696TIP3   OH235578   5.138   0.145  14.450 -0.0590  0.4098 -0.1119
 4696TIP3    H135579   5.046   0.170  14.453  0.0674  0.7410  1.3081
 4696TIP3    H235580   5.172   0.185  14.370 -0.5313  2.4370  0.6859
 4697TIP3   OH235581   1.303   3.901  16.091 -0.4710  0.1416  0.2350
 4697TIP3    H135582   1.308   3.836  16.161 -1.2387 -1.1275 -0.8509
 4697TIP3    H235583   1.382   3.954  16.101 -0.6206  0.0349  2.0982
 4698TIP3   OH235584   6.500   5.741   5.556 -0.1656  0.0116 -0.2894
 4698TIP3    H135585   6.409   5.747   5.585  0.2387  2.3177  0.5668
 4698TIP3    H235586   6.538   5.671   5.609 -0.8606  0.5480  0.9300
 4699TIP3   OH235587   5.649   6.480   3.129 -0.6287  0.1112  0.2976
 4699TIP3    H135588   5.713   6.551   3.125  0.3561 -0.5445  3.3363
 4699TIP3    H235589   5.570   6.521   3.163 -0.5005  0.0631  0.6601
 4700TIP3   OH235590   6.555   0.106   2.255  0.4967  0.1288 -0.7079
 4700TIP3    H135591   6.464   0.080   2.269  0.7831 -0.4877  0.0538
 4700TIP3    H235592   6.559   0.129   2.162 -0.1814 -0.8723 -1.0013
 4701TIP3   OH235593   4.831   3.382   6.177  0.2598  0.0857 -0.8518
 4701TIP3    H135594   4.920   3.401   6.205 -0.4079 -0.2027  1.5295
 4701TIP3    H235595   4.787   3.467   6.179  0.1375  0.0204 -0.8021
 4702TIP3   OH235596   4.313   3.569   0.513 -0.1171  0.6162 -0.2109
 4702TIP3    H135597   4.389   3.624   0.493  0.4255  0.8059  2.1492
 4702TIP3    H235598   4.262   3.621   0.575 -0.8659 -0.5301  0.1562
 4703TIP3   OH235599   5.189   2.951   4.342  0.4304 -0.4099 -0.5724
 4703TIP3    H135600   5.115   2.902   4.378  0.6603 -1.2314 -1.2064
 4703TIP3    H235601   5.255   2.885   4.323  2.3056  0.5778  2.2830
 4704TIP3   OH235602   3.796   0.290   0.072 -0.0285  0.6926 -1.3012
 4704TIP3    H135603   3.798   0.205   0.117  1.2225  1.6016  0.4308
 4704TIP3    H235604   3.707   0.297   0.037 -1.5478  0.6102  2.3503
 4705TIP3   OH235605   1.266   4.892   4.966 -0.1676  0.3694  0.0540
 4705TIP3    H135606   1.218   4.967   5.000 -1.3101 -0.3137  0.0038
 4705TIP3    H235607   1.207   4.817   4.982  0.7660 -0.4448 -0.2684
 4706TIP3   OH235608   5.603   2.749  16.034  0.1928  0.4603  0.0144
 4706TIP3    H135609   5.580   2.829  16.081 -0.2905  0.1358  0.3293
 4706TIP3    H235610   5.572   2.765  15.945 -1.5627 -0.0904  0.5090
 4707TIP3   OH235611   5.097   0.219  15.252 -0.1823 -0.0702  0.6403
 4707TIP3    H135612   5.140   0.197  15.169  1.2651 -0.4416  1.4761
 4707TIP3    H235613   5.025   0.156  15.258  0.7556 -1.1933  0.4779
 4708TIP3   OH235614   4.465   3.934  12.504 -0.3175 -0.3107  0.1425
 4708TIP3    H135615   4.457   3.858  12.561  1.9341  0.0654  1.0461
 4708TIP3    H235616   4.548   3.974  12.530 -0.7590  1.6272 -1.3108
 4709TIP3   OH235617   0.074   3.919   5.979  0.0180 -0.4732  0.0205
 4709TIP3    H135618   0.077   4.014   5.992  0.2670 -0.6584  1.4544
 4709TIP3    H235619   0.124   3.884   6.053  0.3040 -1.7012 -0.7456
 4710TIP3   OH235620   0.566   3.998   0.056 -0.3994  0.2505 -0.2076
 4710TIP3    H135621   0.501   4.044   0.109  0.2608  0.0393  0.7843
 4710TIP3    H235622   0.556   3.906   0.080  2.7586  0.5757  2.7397
 4711TIP3   OH235623   0.776   4.875   2.921 -0.3558 -0.1299  0.0771
 4711TIP3    H135624   0.818   4.927   2.990  1.5254  0.3822 -1.4014
 4711TIP3    H235625   0.842   4.811   2.896 -1.5864 -1.3177 -0.2093
 4712TIP3   OH235626   1.901   0.335  13.259  0.1194 -0.3556 -0.3838
 4712TIP3    H135627   1.995   0.319  13.250  0.2325 -1.7567  2.7636
 4712TIP3    H235628   1.861   0.249  13.259 -1.1404  0.2108 -1.1699
 4713TIP3   OH235629   0.450   2.090   1.802 -0.4461 -0.1718 -0.1272
 4713TIP3    H135630   0.374   2.093   1.860 -0.7714 -0.3910 -0.5382
 4713TIP3    H235631   0.466   1.997   1.787 -0.4962 -0.1135 -0.5603
 4714TIP3   OH235632   4.973   0.052  17.031 -0.4723  0.6109  0.1712
 4714TIP3    H135633   4.907   0.018  16.971 -1.1692  2.2860 -0.0331
 4714TIP3    H235634   4.941   0.028  17.118  0.6616 -2.0366 -0.1027
 4715TIP3   OH235635   6.723   2.417   5.643 -0.1080  0.3996 -0.3122
 4715TIP3    H135636   6.687   2.463   5.719  2.0014  1.7710 -0.0923
 4715TIP3    H235637   6.713   2.479   5.570 -0.7397 -0.3038 -0.8227
 4716TIP3   OH235638   2.699   5.561   4.380  0.0155  0.4698  0.4658
 4716TIP3    H135639   2.717   5.576   4.473 -0.7349  0.3783  0.6257
 4716TIP3    H235640   2.683   5.467   4.374 -0.0293  0.4909  0.2522
 4717TIP3   OH235641   4.671   5.040   2.231 -0.8041  0.7005  0.2893
 4717TIP3    H135642   4.748   5.019   2.285  0.1923  1.4202 -0.8331
 4717TIP3    H235643   4.611   4.966   2.245  0.2913 -0.1122  0.7783
 4718TIP3   OH235644   6.793   4.678   4.668  0.2937 -0.1094  0.1644
 4718TIP3    H135645   6.747   4.596   4.688  1.5302 -1.0370 -0.7314
 4718TIP3    H235646   6.731   4.727   4.614 -0.3500 -0.5691  0.4819
 4719TIP3   OH235647   0.829   4.247  13.240  0.3896 -0.0760  0.1298
 4719TIP3    H135648   0.846   4.155  13.219  1.2491  0.3533 -1.0930
 4719TIP3    H235649   0.907   4.275  13.287 -0.9437 -0.6510  2.8339
 4720TIP3   OH235650   2.896   1.251   5.193 -0.2516 -0.0828 -0.0774
 4720TIP3    H135651   2.933   1.304   5.262  1.1983 -2.0728  0.7206
 4720TIP3    H235652   2.967   1.238   5.130 -0.1718 -2.1571  0.4053
 4721TIP3   OH235653   6.532   1.293   1.684 -0.5923  0.0507 -0.9943
 4721TIP3    H135654   6.517   1.199   1.687  0.5074 -0.1911 -2.6246
 4721TIP3    H235655   6.450   1.330   1.651 -0.9192 -0.3479 -0.6360
 4722TIP3   OH235656   2.918   3.589  11.789  0.3683  0.4150  0.3349
 4722TIP3    H135657   2.828   3.598  11.757  0.4897  0.3466 -0.0278
 4722TIP3    H235658   2.969   3.568  11.711  0.8022  1.0822  0.4336
 4723TIP3   OH235659   3.655   1.190   3.602 -0.7103 -0.3371 -0.1998
 4723TIP3    H135660   3.707   1.190   3.521  0.3512 -0.8426  0.4631
 4723TIP3    H235661   3.656   1.282   3.631 -0.6673 -0.2450 -0.4915
 4724TIP3   OH235662   1.009   1.516   5.571  0.2868 -0.1654 -0.4246
 4724TIP3    H135663   1.074   1.449   5.549 -0.5130 -0.3474 -2.3258
 4724TIP3    H235664   0.927   1.483   5.534 -0.5404  0.8739  0.4582
 4725TIP3   OH235665   3.115   3.404   2.266 -0.3591  0.4846  0.3683
 4725TIP3    H135666   3.123   3.379   2.358 -1.6001 -2.0575 -0.1382
 4725TIP3    H235667   3.045   3.347   2.233 -1.3614  2.8145 -1.6417
 4726TIP3   OH235668   3.624   1.336  16.507  0.3672  0.5651 -0.4174
 4726TIP3    H135669   3.546   1.332  16.563  1.4250 -0.2210  1.0127
 4726TIP3    H235670   3.685   1.392  16.554  0.7343  1.0696 -1.4753
 4727TIP3   OH235671   3.041   1.556  14.391  0.2183 -0.1025  0.2220
 4727TIP3    H135672   2.990   1.617  14.445 -0.2457 -1.2191  1.0423
 4727TIP3    H235673   3.000   1.471  14.405  1.5338 -0.7941 -0.0882
 4728TIP3   OH235674   2.758   2.362   3.158  0.6470 -0.0066 -0.3709
 4728TIP3    H135675   2.727   2.283   3.202 -1.4405  0.6634 -0.5795
 4728TIP3    H235676   2.801   2.331   3.079  1.0320 -1.0065  0.2289
 4729TIP3   OH235677   6.380   0.863  17.278  0.3427  0.7096  0.1452
 4729TIP3    H135678   6.415   0.948  17.250  2.3505 -0.1209  0.0649
 4729TIP3    H235679   6.349   0.823  17.197 -0.2310  1.1981  0.1201
 4730TIP3   OH235680   4.742   4.206  16.074  0.2950  0.2048  0.2822
 4730TIP3    H135681   4.782   4.250  15.999 -2.1380  2.8014  0.4217
 4730TIP3    H235682   4.674   4.151  16.037 -0.3416  0.8412  0.4787
 4731TIP3   OH235683   6.491   6.589   2.542  0.5981 -0.3278 -0.1619
 4731TIP3    H135684   6.480   6.582   2.447  0.1828 -2.0210 -0.0150
 4731TIP3    H235685   6.413   6.546   2.578  0.9431 -0.0301  0.9414
 4732TIP3   OH235686   5.929   1.785   1.659 -0.2687  0.4776  1.0081
 4732TIP3    H135687   5.910   1.842   1.734 -2.0127  0.6911  0.4211
 4732TIP3    H235688   5.875   1.707   1.672 -1.3622  0.9466 -0.5232
 4733TIP3   OH235689   1.381   5.215   1.979 -0.3640  0.1180  0.4361
 4733TIP3    H135690   1.420   5.278   2.040  0.6086 -0.8691  0.8437
 4733TIP3    H235691   1.287   5.227   1.989 -0.1868  2.1193 -0.1349
 4734TIP3   OH235692   5.995   0.401  13.335  0.0827 -0.1907  0.3092
 4734TIP3    H135693   6.057   0.327  13.328 -2.6026 -2.3825 -1.5424
 4734TIP3    H235694   6.009   0.451  13.255  0.7695  0.4067  0.7975
 4735TIP3   OH235695   2.520   3.945  17.244 -0.3406  0.3186 -0.3084
 4735TIP3    H135696   2.528   4.024  17.299  1.1643  0.6816 -1.0292
 4735TIP3    H235697   2.473   3.975  17.166 -1.3322  0.0941  0.1928
 4736TIP3   OH235698   4.852   5.616   4.995  0.3912  0.0343 -0.0493
 4736TIP3    H135699   4.764   5.652   4.987  0.0177 -1.1992 -1.8544
 4736TIP3    H235700   4.900   5.654   4.922  1.1929  0.2698  0.6022
 4737TIP3   OH235701   0.892   2.537   5.167  0.4291  0.0786 -0.0100
 4737TIP3    H135702   0.916   2.625   5.138  1.5864 -0.4596 -0.7313
 4737TIP3    H235703   0.812   2.516   5.118  0.3753  0.5724 -0.1318
 4738TIP3   OH235704   1.315   5.900  14.558  0.6049 -0.4821 -0.4337
 4738TIP3    H135705   1.348   5.983  14.523  1.2562 -0.3713  0.4535
 4738TIP3    H235706   1.326   5.838  14.486 -1.7218  0.6215 -1.8212
 4739TIP3   OH235707   1.857   6.744   2.613  0.6779 -0.2407  0.4601
 4739TIP3    H135708   1.766   6.718   2.621  0.9731 -0.8490  2.1337
 4739TIP3    H235709   1.895   6.683   2.550  0.1089 -0.4482  0.3237
 4740TIP3   OH235710   4.948   4.433   4.396  0.4757 -0.0520 -0.0603
 4740TIP3    H135711   4.978   4.518   4.366  0.1046 -0.3413 -1.2749
 4740TIP3    H235712   4.886   4.452   4.466 -1.5383  0.7863 -2.0179
 4741TIP3   OH235713   0.757   0.866  13.638  0.1470 -0.2733  0.3797
 4741TIP3    H135714   0.797   0.810  13.572  0.2894 -0.3668  0.5474
 4741TIP3    H235715   0.806   0.848  13.718 -0.0809 -0.2233  0.5305
 4742TIP3   OH235716   2.483   5.058   5.093 -0.5396 -0.7988  0.5459
 4742TIP3    H135717   2.444   5.051   5.006 -1.7485 -2.7994  1.2363
 4742TIP3    H235718   2.577   5.064   5.076 -0.6075 -3.0776 -0.8623
 4743TIP3   OH235719   1.109   4.533   4.789  0.0053 -0.0314 -0.1719
 4743TIP3    H135720   1.098   4.545   4.884 -2.2515  1.8979 -0.6361
 4743TIP3    H235721   1.180   4.594   4.766 -0.1799  0.2988  0.1131
 4744TIP3   OH235722   1.633   6.347  15.341  0.5685  0.2418 -0.4172
 4744TIP3    H135723   1.605   6.275  15.398  2.5579 -0.2350 -0.0201
 4744TIP3    H235724   1.640   6.306  15.254 -0.7857  0.5725 -0.6990
 4745TIP3   OH235725   5.665   4.670   0.147  0.1385 -0.2242  0.0238
 4745TIP3    H135726   5.575   4.695   0.168  1.1520  2.3416  1.5857
 4745TIP3    H235727   5.715   4.689   0.227  2.0792 -1.5185 -0.8351
 4746TIP3   OH235728   1.085   1.694  14.192 -0.5654 -0.2830 -0.4057
 4746TIP3    H135729   1.030   1.685  14.270 -1.3231 -0.7183 -0.9785
 4746TIP3    H235730   1.023   1.705  14.120  0.1349  0.4066 -0.9149
 4747TIP3   OH235731   4.681   6.510   2.909 -0.4578  0.0782  0.4095
 4747TIP3    H135732   4.764   6.525   2.863 -0.0674 -0.8413  0.7975
 4747TIP3    H235733   4.638   6.595   2.908  0.3827  0.5149 -0.0072
 4748TIP3   OH235734   0.367   0.794   5.147  0.1254  0.3605 -0.0149
 4748TIP3    H135735   0.461   0.781   5.138  0.3128  1.2559  0.5537
 4748TIP3    H235736   0.353   0.886   5.123 -0.5996  0.2460 -0.0511
 4749TIP3   OH235737   5.085   5.997  14.653 -0.1542 -0.2440 -0.6084
 4749TIP3    H135738   5.169   5.951  14.646 -0.2859 -0.6329  0.2954
 4749TIP3    H235739   5.098   6.077  14.602  1.0327  0.0834  0.1707
 4750TIP3   OH235740   1.719   0.923  15.869  0.0280 -0.1933 -0.1561
 4750TIP3    H135741   1.809   0.953  15.866 -0.2322  0.5901 -0.1254
 4750TIP3    H235742   1.696   0.926  15.962 -1.3289  3.5109 -0.5311
 4751TIP3   OH235743   4.637   2.748  14.959 -0.2076  0.1876  0.1575
 4751TIP3    H135744   4.658   2.814  14.894  0.2445 -1.6043 -1.5563
 4751TIP3    H235745   4.571   2.693  14.917 -0.1520 -0.8009  1.3441
 4752TIP3   OH235746   2.388   1.821  14.018 -0.4091 -0.4085  0.2913
 4752TIP3    H135747   2.391   1.751  14.085 -0.1411 -0.5505  0.1309
 4752TIP3    H235748   2.320   1.792  13.958 -0.4527 -0.4242  0.3480
 4753TIP3   OH235749   0.573   6.499   2.389  0.1511  0.0575  0.2124
 4753TIP3    H135750   0.531   6.542   2.464 -2.2982  0.6555 -1.4207
 4753TIP3    H235751   0.528   6.414   2.382  0.2836  0.0477 -0.6115
 4754TIP3   OH235752   5.559   1.112  11.666  0.2934  0.4161 -0.6518
 4754TIP3    H135753   5.639   1.160  11.642 -0.0628  2.1435  1.4554
 4754TIP3    H235754   5.566   1.029  11.618  3.1293  0.7139 -0.8739
 4755TIP3   OH235755   2.142   2.973  16.562  0.0339 -0.2150  0.0588
 4755TIP3    H135756   2.106   3.061  16.571 -0.4056 -0.6881  3.5788
 4755TIP3    H235757   2.066   2.916  16.555  0.2619 -0.5625  0.4088
 4756TIP3   OH235758   1.311   4.467   1.525 -0.0242  0.1041  0.4757
 4756TIP3    H135759   1.392   4.419   1.543  0.8218  2.0551  1.9272
 4756TIP3    H235760   1.251   4.442   1.595  0.2788  0.8778  1.0044
 4757TIP3   OH235761   5.089   1.936   0.111 -0.1854 -0.6973 -0.2492
 4757TIP3    H135762   5.142   2.012   0.134 -1.2830 -0.0701  0.2480
 4757TIP3    H235763   5.072   1.946   0.017 -1.1802  0.2385  0.0131
 4758TIP3   OH235764   5.521   1.182   1.334  0.3575 -0.1043 -0.3171
 4758TIP3    H135765   5.611   1.203   1.361  0.4498 -0.6928 -0.1503
 4758TIP3    H235766   5.521   1.086   1.327  0.0452 -0.0310 -1.3840
 4759TIP3   OH235767   2.647   3.180   4.842  0.2366 -0.3336  0.5671
 4759TIP3    H135768   2.725   3.195   4.789  0.2209  0.7698  0.8394
 4759TIP3    H235769   2.671   3.109   4.902  1.1674  0.3004  0.9393
 4760TIP3   OH235770   1.573   6.769   1.704 -0.9012 -0.1500 -0.5495
 4760TIP3    H135771   1.552   6.768   1.797 -0.6784  0.0787 -0.4950
 4760TIP3    H235772   1.559   6.860   1.676 -3.4365 -0.7470 -1.3210
 4761TIP3   OH235773   1.771   2.719   6.154  0.0779 -0.1917 -0.1434
 4761TIP3    H135774   1.681   2.752   6.155  0.2322  0.2761 -1.2171
 4761TIP3    H235775   1.812   2.763   6.080  0.8675 -1.2848 -0.3642
 4762TIP3   OH235776   4.374   3.472  12.062  0.0642  0.3218  0.3097
 4762TIP3    H135777   4.284   3.498  12.038 -0.6791 -0.9174  1.6766
 4762TIP3    H235778   4.430   3.529  12.009 -1.5230  0.3685 -1.3801
 4763TIP3   OH235779   3.271   4.289  11.712 -0.4592 -0.3579  0.6677
 4763TIP3    H135780   3.360   4.325  11.705 -0.2565 -0.7459  1.2551
 4763TIP3    H235781   3.218   4.363  11.741 -0.4424  0.0383 -0.2980
 4764TIP3   OH235782   4.783   6.781  16.819  0.0468 -0.1485 -0.2327
 4764TIP3    H135783   4.696   6.745  16.803 -0.6521  0.6898  1.6085
 4764TIP3    H235784   4.789   6.856  16.758 -0.3028 -0.5294 -0.7450
 4765TIP3   OH235785   2.789   3.851   0.032 -0.1529  0.0350  0.2513
 4765TIP3    H135786   2.823   3.873  -0.055 -0.3861 -1.4006 -0.2186
 4765TIP3    H235787   2.865   3.822   0.081 -0.0995  0.3998  0.3885
 4766TIP3   OH235788   1.624   1.791  15.954  0.6623  0.0453  0.2677
 4766TIP3    H135789   1.612   1.731  16.027 -0.3182  0.8944  0.8179
 4766TIP3    H235790   1.715   1.822  15.963  1.1401 -1.2605  0.0311
 4767TIP3   OH235791   4.673   6.171  16.511 -0.0685 -0.4129  0.0808
 4767TIP3    H135792   4.587   6.130  16.522 -0.1021 -0.2811  0.3112
 4767TIP3    H235793   4.666   6.254  16.558 -0.7185  0.8691 -2.1879
 4768TIP3   OH235794   4.122   0.376   4.647 -0.1119 -0.3280 -0.3390
 4768TIP3    H135795   4.059   0.362   4.717  0.9114 -3.0064  0.1090
 4768TIP3    H235796   4.071   0.366   4.566 -0.3572 -2.1263  0.0231
 4769TIP3   OH235797   1.490   6.469  13.570 -0.1660  0.3252  0.5020
 4769TIP3    H135798   1.488   6.440  13.478  0.0776 -0.1025  0.6291
 4769TIP3    H235799   1.574   6.437  13.603  0.4766  1.8877  0.4241
 4770TIP3   OH235800   1.218   0.178   5.711 -0.1890  0.3475  0.1229
 4770TIP3    H135801   1.122   0.177   5.711 -0.1802 -0.9578  0.2508
 4770TIP3    H235802   1.241   0.270   5.698 -1.4590  0.6566  0.0244
 4771TIP3   OH235803   0.771   1.271  10.570 -0.3049  0.4786 -0.8812
 4771TIP3    H135804   0.738   1.186  10.598  1.8085 -0.4325 -1.0488
 4771TIP3    H235805   0.707   1.334  10.603 -0.4548 -0.9536  1.6755
 4772TIP3   OH235806   1.904   3.003   5.247 -0.2861 -0.0555 -0.0042
 4772TIP3    H135807   1.926   2.956   5.166 -1.5746  0.2371 -0.5401
 4772TIP3    H235808   1.955   3.084   5.243 -1.2307  0.5006 -1.1091
 4773TIP3   OH235809   6.708   0.741   3.148  0.6745 -0.7387  0.0926
 4773TIP3    H135810   6.612   0.735   3.147  0.5187  1.1639  0.8159
 4773TIP3    H235811   6.734   0.704   3.232  0.5047 -0.4356  0.2782
 4774TIP3   OH235812   1.501   1.141  13.757  0.1759 -0.2163 -0.3290
 4774TIP3    H135813   1.580   1.140  13.811 -0.2783 -2.4861  0.3667
 4774TIP3    H235814   1.452   1.218  13.786  1.0034 -0.1524  0.9361
 4775TIP3   OH235815   6.675   5.663  12.188  0.0822 -0.2250  0.3250
 4775TIP3    H135816   6.763   5.652  12.223 -0.6670 -0.8316  2.0666
 4775TIP3    H235817   6.673   5.607  12.110  0.3679 -2.4291  1.8474
 4776TIP3   OH235818   6.185   5.751   3.710 -0.4868 -0.1448 -0.0256
 4776TIP3    H135819   6.180   5.655   3.708  0.0951 -0.3160  3.5273
 4776TIP3    H235820   6.095   5.779   3.731 -0.4859  0.0483 -0.2786
 4777TIP3   OH235821   0.014   0.445   0.076 -0.1242 -0.1004  0.2620
 4777TIP3    H135822  -0.068   0.495   0.077  0.4885  0.9018  1.8246
 4777TIP3    H235823   0.083   0.511   0.069  0.5851 -0.8946 -0.3003
 4778TIP3   OH235824   5.968   5.238  17.211  0.2889 -0.7449  0.7956
 4778TIP3    H135825   5.946   5.203  17.125 -0.1951  0.8515  0.2453
 4778TIP3    H235826   5.927   5.179  17.273  0.7041 -1.9553 -0.0646
 4779TIP3   OH235827   5.262   6.475   4.659 -0.0266  0.1558  0.0937
 4779TIP3    H135828   5.248   6.569   4.649 -2.2140 -0.0687  0.8689
 4779TIP3    H235829   5.305   6.448   4.578  0.1182  1.7038 -0.3626
 4780TIP3   OH235830   6.403   3.873  14.437  0.3422  0.1110 -0.2202
 4780TIP3    H135831   6.399   3.932  14.512  1.3361 -1.5726  1.1897
 4780TIP3    H235832   6.473   3.908  14.382 -1.0078  1.8892 -0.8766
 4781TIP3   OH235833   1.974   0.873   6.500 -0.0545  0.9117 -0.0398
 4781TIP3    H135834   2.063   0.895   6.527 -0.1783  1.3244  0.0303
 4781TIP3    H235835   1.950   0.941   6.437 -0.2283  0.6611 -0.2459
 4782TIP3   OH235836   5.603   6.751  12.862  0.2765 -0.0353  0.5051
 4782TIP3    H135837   5.598   6.784  12.952  1.3967 -0.0489  0.5808
 4782TIP3    H235838   5.648   6.667  12.871 -1.8330 -1.2026  0.2220
 4783TIP3   OH235839   6.250   1.171  14.999  0.5304 -0.6568  0.3771
 4783TIP3    H135840   6.262   1.223  14.919  2.0313 -4.1203 -1.7975
 4783TIP3    H235841   6.178   1.112  14.978  0.6020 -1.2547  1.7726
 4784TIP3   OH235842   0.267   0.843  11.508  0.3142  0.1944  0.3062
 4784TIP3    H135843   0.298   0.875  11.423 -1.1354  0.5262 -0.1248
 4784TIP3    H235844   0.269   0.748  11.501 -2.0153  0.1888 -0.9942
 4785TIP3   OH235845   1.896   5.623   0.933  0.1331  0.5217  0.2284
 4785TIP3    H135846   1.849   5.540   0.930 -0.3439  0.7703  0.6524
 4785TIP3    H235847   1.882   5.662   0.847 -1.2909  1.0567  0.6956
 4786TIP3   OH235848   3.780   1.633   0.756  0.2147 -0.0339 -0.1891
 4786TIP3    H135849   3.781   1.729   0.758 -0.9851 -0.0409  2.2857
 4786TIP3    H235850   3.853   1.607   0.812  2.8292 -0.6416 -3.7010
 4787TIP3   OH235851   6.299   1.263   3.889  0.3932  0.0316  0.1034
 4787TIP3    H135852   6.373   1.204   3.904  0.1925 -0.2378  0.0372
 4787TIP3    H235853   6.317   1.303   3.804 -0.9695 -2.1951 -1.2840
 4788TIP3   OH235854   0.022   0.881   1.312 -0.0084  0.2281  0.0793
 4788TIP3    H135855   0.091   0.850   1.254 -0.5986  2.1900 -1.7402
 4788TIP3    H235856   0.059   0.875   1.400  1.7924 -0.4741 -0.7127
 4789TIP3   OH235857   3.884   3.229  12.074 -0.0761  0.2865 -0.4482
 4789TIP3    H135858   3.958   3.207  12.018  0.5064 -0.5666  0.6304
 4789TIP3    H235859   3.824   3.155  12.065 -0.4019  0.5742 -0.6485
 4790TIP3   OH235860   1.618   3.178  16.096 -1.0437 -0.0899  0.1347
 4790TIP3    H135861   1.698   3.167  16.044 -1.1002  1.5405 -0.3291
 4790TIP3    H235862   1.579   3.259  16.063 -1.5832  0.4612  2.0505
 4791TIP3   OH235863   5.337   4.125  12.349 -0.2113  0.0105 -0.2468
 4791TIP3    H135864   5.307   4.154  12.435  2.9716 -0.7691  1.1750
 4791TIP3    H235865   5.279   4.052  12.327  0.2525 -1.1345  2.1837
 4792TIP3   OH235866   2.928   2.026  12.013  0.4062 -0.1698  0.2801
 4792TIP3    H135867   2.851   1.969  12.018  0.1550  0.2500  1.4397
 4792TIP3    H235868   2.994   1.974  11.968 -0.8300 -0.2217 -1.5156
 4793TIP3   OH235869   5.324   0.057  13.052  0.1712 -0.0662  0.2944
 4793TIP3    H135870   5.299   0.090  12.966  1.9304  0.8037  0.0977
 4793TIP3    H235871   5.324  -0.039  13.042  3.0056  0.0436 -1.5107
 4794TIP3   OH235872   4.432   0.834   4.095  0.3843  0.2429 -0.1801
 4794TIP3    H135873   4.416   0.906   4.155 -1.1302 -1.4610  1.5360
 4794TIP3    H235874   4.394   0.862   4.012  0.9130  1.8936  0.1176
 4795TIP3   OH235875   6.550   0.200  13.078 -0.3066 -0.0465  0.5770
 4795TIP3    H135876   6.591   0.114  13.088 -1.6336 -0.5618  1.5669
 4795TIP3    H235877   6.556   0.240  13.164 -0.1534  0.6633  0.2407
 4796TIP3   OH235878   0.915   4.601   3.631 -0.4725  0.0259  0.0927
 4796TIP3    H135879   0.962   4.684   3.626 -0.8408  0.3434  1.5949
 4796TIP3    H235880   0.913   4.569   3.541 -0.9804  2.0216 -0.6395
 4797TIP3   OH235881   3.996   1.846   0.459 -0.5640  0.1376 -0.6360
 4797TIP3    H135882   3.993   1.869   0.366  1.2739 -0.5232 -0.8749
 4797TIP3    H235883   3.931   1.904   0.500 -2.3560 -0.4959 -2.4935
 4798TIP3   OH235884   0.634   3.795   0.528 -0.1275  0.7077 -0.4455
 4798TIP3    H135885   0.618   3.867   0.589 -0.6829 -0.2526  0.5486
 4798TIP3    H235886   0.729   3.781   0.531 -0.4872 -1.6416  2.8963
 4799TIP3   OH235887   6.646   6.484  13.223  0.2980  0.2491  0.1245
 4799TIP3    H135888   6.736   6.452  13.218  0.1998  0.1015 -0.7166
 4799TIP3    H235889   6.592   6.407  13.206 -0.0298  0.0074  2.1369
 4800TIP3   OH235890   2.644   2.034  11.456  0.3570 -0.2667 -0.3801
 4800TIP3    H135891   2.653   2.092  11.380  1.2813  1.1829  0.8040
 4800TIP3    H235892   2.720   2.055  11.511 -1.1667 -0.1517  1.7162
 4801TIP3   OH235893   6.650   2.828   5.637 -0.1080  0.6743 -0.8926
 4801TIP3    H135894   6.638   2.743   5.595 -2.7685 -0.1879  1.4281
 4801TIP3    H235895   6.724   2.815   5.696  0.8234  0.6111 -2.0495
 4802TIP3   OH235896   5.878   0.255   1.690  0.4370  0.1649  0.3990
 4802TIP3    H135897   5.934   0.269   1.766  1.3429 -2.9650  0.3544
 4802TIP3    H235898   5.909   0.319   1.625  6.4245 -3.6780 -0.9136
 4803TIP3   OH235899   2.154   6.607   2.681 -0.5583  0.0535 -0.6802
 4803TIP3    H135900   2.243   6.578   2.662 -0.1876  0.4014  0.4998
 4803TIP3    H235901   2.160   6.651   2.766 -2.0543 -0.9447 -0.0172
 4804TIP3   OH235902   4.114   0.914   2.651 -0.3448  0.0652  0.1372
 4804TIP3    H135903   4.162   0.987   2.611  0.2154 -2.0376 -3.2025
 4804TIP3    H235904   4.023   0.929   2.628 -0.1113 -0.7462 -1.4015
 4805TIP3   OH235905   1.262   0.811  14.591 -0.7702 -0.2418  0.2122
 4805TIP3    H135906   1.240   0.869  14.518  0.4491  0.9584  0.7638
 4805TIP3    H235907   1.186   0.816  14.649 -0.9080  0.3744 -0.0145
 4806TIP3   OH235908   1.581   6.800  16.922  0.2440  0.7764  0.5278
 4806TIP3    H135909   1.613   6.841  16.842 -2.1640  0.9144 -0.4109
 4806TIP3    H235910   1.542   6.717  16.892  0.5991  0.1590  1.7423
 4807TIP3   OH235911   6.128   0.413  12.177 -0.0427  0.7123  0.5393
 4807TIP3    H135912   6.094   0.364  12.252 -1.4561  2.5281  1.1178
 4807TIP3    H235913   6.160   0.495  12.216 -0.3904  1.4854 -0.7991
 4808TIP3   OH235914   6.375   1.847   1.656  0.1149 -0.0879  0.1723
 4808TIP3    H135915   6.308   1.897   1.610 -0.8542  1.4695  3.1646
 4808TIP3    H235916   6.383   1.766   1.605 -3.7552 -0.1669 -0.4742
 4809TIP3   OH235917   2.464   5.830   2.658 -0.8771  0.2007  0.1096
 4809TIP3    H135918   2.499   5.917   2.637  0.1154 -0.1513  0.3113
 4809TIP3    H235919   2.423   5.840   2.743  0.9734  0.0036  1.0502
 4810TIP3   OH235920   4.763   5.482   3.067  0.1011  0.8799 -0.0742
 4810TIP3    H135921   4.750   5.532   3.148  0.9696 -1.0647  1.2971
 4810TIP3    H235922   4.766   5.391   3.095 -0.6416  0.1010 -2.4534
 4811TIP3   OH235923   3.460   4.892   2.379  0.2173 -0.2782 -0.1204
 4811TIP3    H135924   3.517   4.897   2.302 -0.0065  1.3140 -0.2028
 4811TIP3    H235925   3.492   4.960   2.438 -2.5749  1.7717 -0.8604
 4812TIP3   OH235926   2.719   0.099  16.247 -0.3001 -0.4569 -0.6718
 4812TIP3    H135927   2.733   0.189  16.219 -1.0713 -0.5701 -1.4286
 4812TIP3    H235928   2.628   0.097  16.279  0.1655 -0.6224  0.6839
 4813TIP3   OH235929   1.514   6.080   5.486  0.0009 -0.1463 -0.0621
 4813TIP3    H135930   1.467   6.013   5.536  0.4518 -0.2052  0.2842
 4813TIP3    H235931   1.576   6.117   5.548  0.8400 -0.4915 -0.6887
 4814TIP3   OH235932   6.166   1.932  12.184  0.1040 -0.3450 -0.3428
 4814TIP3    H135933   6.230   1.948  12.253 -1.2812 -2.0153  1.3444
 4814TIP3    H235934   6.216   1.887  12.116  1.5048  1.4312 -0.5629
 4815TIP3   OH235935   1.398   5.951   0.654  0.5524  0.2684 -0.5305
 4815TIP3    H135936   1.440   5.898   0.721  1.2454  0.2648 -0.9628
 4815TIP3    H235937   1.463   5.957   0.584 -0.0148  0.6034 -1.0304
 4816TIP3   OH235938   0.830   1.659   4.525  0.1243 -0.2030  0.3693
 4816TIP3    H135939   0.806   1.678   4.435  1.0033  1.0904  0.3888
 4816TIP3    H235940   0.768   1.592   4.553  0.1427 -0.9660 -1.3361
 4817TIP3   OH235941   0.953   6.302   1.240  0.5785 -0.0614  0.8439
 4817TIP3    H135942   0.876   6.294   1.183  1.0590  1.0637  0.0153
 4817TIP3    H235943   1.023   6.331   1.181  0.9780  1.5933  2.1048
 4818TIP3   OH235944   0.193   0.586  16.045  0.0163  0.0695  0.2275
 4818TIP3    H135945   0.118   0.636  16.011  1.2290  0.0014 -2.6704
 4818TIP3    H235946   0.249   0.652  16.085 -0.0303  0.6028 -0.5656
 4819TIP3   OH235947   1.892   6.576   5.861  0.4862  0.2361  0.3809
 4819TIP3    H135948   1.801   6.551   5.841  0.2412 -0.3091  2.1369
 4819TIP3    H235949   1.926   6.504   5.913  2.1644  0.1311 -0.8138
 4820TIP3   OH235950   3.193   1.272  16.748  0.3747 -0.4580 -0.3438
 4820TIP3    H135951   3.102   1.283  16.720  0.1663 -2.3751 -0.4493
 4820TIP3    H235952   3.193   1.303  16.839 -0.3350 -0.2588 -0.4058
 4821TIP3   OH235953   5.293   0.565   2.796 -0.1985  0.4584  0.1730
 4821TIP3    H135954   5.336   0.507   2.859 -0.2011 -0.2400 -0.4610
 4821TIP3    H235955   5.238   0.621   2.849  1.8700  1.7146  1.0577
 4822TIP3   OH235956   2.857   1.851  14.824 -0.0635 -0.7620  0.1503
 4822TIP3    H135957   2.942   1.891  14.841 -0.2290 -1.2815  2.4587
 4822TIP3    H235958   2.870   1.799  14.745  2.0118 -1.5324  0.9689
 4823TIP3   OH235959   0.063   1.364   6.701  0.1404  0.1336 -0.2070
 4823TIP3    H135960   0.144   1.412   6.684  0.2157  1.8801  4.4340
 4823TIP3    H235961   0.087   1.300   6.769 -2.1163 -0.0351  0.4744
 4824TIP3   OH235962   1.052   1.610  16.934 -0.1034  0.8437 -0.3099
 4824TIP3    H135963   0.972   1.639  16.978 -0.5368 -0.6215 -0.1158
 4824TIP3    H235964   1.103   1.568  17.002 -0.2773 -0.4348 -0.9592
 4825TIP3   OH235965   5.780   3.818   6.885  0.1880  0.3209  0.3019
 4825TIP3    H135966   5.761   3.752   6.818 -1.6613  0.5430  0.5927
 4825TIP3    H235967   5.698   3.827   6.933  0.2533  3.2013 -0.0539
 4826TIP3   OH235968   0.249   0.262   4.977  0.1891 -0.6099  0.1892
 4826TIP3    H135969   0.285   0.226   4.896 -1.4256 -1.3850 -0.2079
 4826TIP3    H235970   0.271   0.355   4.974 -0.5539 -0.4626 -1.5459
 4827TIP3   OH235971   2.292   6.280   4.343  0.1338 -0.2447  0.2142
 4827TIP3    H135972   2.231   6.238   4.282  0.7624 -1.0984  0.1492
 4827TIP3    H235973   2.375   6.234   4.328  0.7846  0.8915  0.3064
 4828TIP3   OH235974   4.809   2.525  15.501  0.2476  0.0105 -0.2392
 4828TIP3    H135975   4.864   2.448  15.488 -1.9773 -1.5404 -0.7689
 4828TIP3    H235976   4.813   2.542  15.595  1.1997 -0.4066 -0.2017
 4829TIP3   OH235977   3.990   4.401  12.041 -0.4502 -0.3678 -0.6168
 4829TIP3    H135978   4.024   4.369  12.125 -1.0200 -0.0978 -0.2795
 4829TIP3    H235979   4.011   4.331  11.979 -1.7882 -1.4743  0.1371
 4830TIP3   OH235980   6.036   3.368   3.535  0.6491  0.1049 -0.2589
 4830TIP3    H135981   6.003   3.458   3.530 -0.2154 -0.1362  0.9912
 4830TIP3    H235982   6.122   3.376   3.578 -1.0824 -0.0379  3.3701
 4831TIP3   OH235983   5.178   2.580   0.331 -0.4154 -0.0977 -0.0062
 4831TIP3    H135984   5.225   2.507   0.290 -1.0543 -1.1643  1.1287
 4831TIP3    H235985   5.086   2.557   0.322 -0.6826  1.3283 -1.0183
 4832TIP3   OH235986   1.324   4.516   3.174 -0.2642 -0.7789  1.0425
 4832TIP3    H135987   1.356   4.443   3.228  0.9826 -2.3380 -1.7099
 4832TIP3    H235988   1.258   4.476   3.116  0.9623  0.0792 -0.9929
 4833TIP3   OH235989   3.928   2.165  11.585 -0.1226  0.3478 -0.4443
 4833TIP3    H135990   3.961   2.091  11.637  1.0349  0.9635 -0.2805
 4833TIP3    H235991   3.846   2.134  11.548 -0.0771 -0.7191  0.3372
 4834TIP3   OH235992   1.547   4.781   1.334 -0.0654 -0.3834  0.0821
 4834TIP3    H135993   1.585   4.697   1.310 -1.2098 -0.6298 -0.8903
 4834TIP3    H235994   1.563   4.837   1.257  0.2121  0.1246  0.5094
 4835TIP3   OH235995   4.066   0.293   3.028 -0.5352 -0.5610  0.3159
 4835TIP3    H135996   4.016   0.340   3.094  0.3010  1.1767 -0.2605
 4835TIP3    H235997   4.031   0.323   2.944  1.0891  0.2801 -0.0846
 4836TIP3   OH235998   5.371   4.909   3.240 -0.3102  0.2098 -0.0406
 4836TIP3    H135999   5.345   4.972   3.307 -2.1536 -0.5375 -0.0188
 4836TIP3    H236000   5.288   4.875   3.206  0.5513  0.7829 -2.9080
 4837TIP3   OH236001   0.043   3.037  12.375  0.2446  0.2640  0.2286
 4837TIP3    H136002   0.082   3.118  12.344 -0.9349  1.4775  1.8485
 4837TIP3    H236003   0.023   2.988  12.295  2.1912  0.9505 -0.7136
 4838TIP3   OH236004   5.902   4.514   6.263  0.3439  0.4327  0.5311
 4838TIP3    H136005   5.996   4.514   6.245 -0.0977  0.8620 -2.0184
 4838TIP3    H236006   5.885   4.598   6.306  0.7466  1.5621 -1.4447
 4839TIP3   OH236007   3.361   5.919   4.102 -0.1056 -0.0449  0.0114
 4839TIP3    H136008   3.370   5.862   4.178 -0.1842 -1.7220 -1.1936
 4839TIP3    H236009   3.289   5.881   4.052  0.0176  0.9599 -0.9589
 4840TIP3   OH236010   2.501   5.066  11.029 -0.1908 -0.3754  0.0449
 4840TIP3    H136011   2.426   5.007  11.027  0.5707 -1.3312 -1.7374
 4840TIP3    H236012   2.506   5.101  10.940  0.0510  1.5221  0.7718
 4841TIP3   OH236013   6.657   6.248  16.365 -0.4677  0.3746  0.3675
 4841TIP3    H136014   6.601   6.265  16.289 -0.0341  4.1016  0.7638
 4841TIP3    H236015   6.597   6.250  16.439 -0.1188  2.5869  0.6222
 4842TIP3   OH236016   4.564   4.098   3.041 -0.7275 -0.1855 -0.5211
 4842TIP3    H136017   4.537   4.066   2.955 -1.1814 -0.5627 -0.2412
 4842TIP3    H236018   4.592   4.188   3.026 -1.7582  0.0746 -0.8919
 4843TIP3   OH236019   1.800   4.489   2.037 -0.2640  0.8477  0.0610
 4843TIP3    H136020   1.826   4.576   2.005 -1.6305  1.0940 -0.4107
 4843TIP3    H236021   1.777   4.504   2.129  0.0652  0.8672  0.1418
 4844TIP3   OH236022   4.465   1.417  11.190  0.1059  0.0198  0.5433
 4844TIP3    H136023   4.415   1.483  11.140  0.4600 -0.2964 -0.2436
 4844TIP3    H236024   4.546   1.406  11.140  0.7748  0.2083  1.5822
 4845TIP3   OH236025   2.221   1.057   6.086 -0.4928 -0.4895 -0.3829
 4845TIP3    H136026   2.249   1.114   6.015 -0.3504 -1.4642 -1.1298
 4845TIP3    H236027   2.197   1.116   6.157 -0.1879  0.4805 -1.0792
 4846TIP3   OH236028   2.248   4.325  14.670 -0.4121 -0.4789  0.3941
 4846TIP3    H136029   2.285   4.238  14.658  0.1899 -0.1321 -0.2790
 4846TIP3    H236030   2.324   4.383  14.677 -0.8127  0.2506 -1.1553
 4847TIP3   OH236031   3.315   4.589   1.426  0.6812  0.3219  0.3269
 4847TIP3    H136032   3.397   4.613   1.382  0.5218  1.5140  0.6764
 4847TIP3    H236033   3.275   4.672   1.449  0.7623 -0.2765  2.7709
 4848TIP3   OH236034   4.482   0.152  11.878  0.1484  0.1230 -0.2139
 4848TIP3    H136035   4.571   0.126  11.904  0.5800  2.9677  1.3477
 4848TIP3    H236036   4.464   0.100  11.800  3.4688 -0.0276 -0.9562
 4849TIP3   OH236037   4.890   3.858  13.266 -0.4183 -0.2879 -0.7582
 4849TIP3    H136038   4.948   3.893  13.199 -1.4638  2.0132 -0.5253
 4849TIP3    H236039   4.803   3.862  13.227 -0.7453 -1.2409 -0.1564
 4850TIP3   OH236040   0.976   0.493  16.877 -0.1118 -0.3523 -0.0122
 4850TIP3    H136041   0.943   0.519  16.791  0.5922  0.8060  0.0490
 4850TIP3    H236042   0.927   0.548  16.939 -0.5967 -1.1614  0.3269
 4851TIP3   OH236043   4.383   3.357   5.457  0.3184  0.2200 -0.5386
 4851TIP3    H136044   4.431   3.285   5.416  1.9022  0.6899  0.4840
 4851TIP3    H236045   4.333   3.396   5.385  0.0918 -1.3545 -1.2635
 4852TIP3   OH236046   5.313   3.161  12.194  0.2185 -0.2310 -0.2639
 4852TIP3    H136047   5.304   3.074  12.157  1.0910 -0.4840  0.1165
 4852TIP3    H236048   5.394   3.158  12.244 -0.0263  0.6355  0.2000
 4853TIP3   OH236049   5.178   4.725   1.015 -0.8366 -0.2894 -0.0987
 4853TIP3    H136050   5.084   4.716   1.030 -0.6475 -1.0272  0.6821
 4853TIP3    H236051   5.216   4.647   1.055 -0.1568 -1.6337 -3.2752
 4854TIP3   OH236052   0.126   2.857  14.421  0.4659  0.0682 -0.5656
 4854TIP3    H136053   0.212   2.834  14.386  0.3249 -0.8941 -0.3014
 4854TIP3    H236054   0.129   2.952  14.433  1.2202  0.1344 -1.2822
 4855TIP3   OH236055   5.425   6.338   1.002  0.1812  0.2812 -0.2785
 4855TIP3    H136056   5.459   6.250   0.986  0.2728  0.1957  0.3726
 4855TIP3    H236057   5.334   6.324   1.027  0.5535  0.2699  1.1043
 4856TIP3   OH236058   4.754   1.463  14.247 -0.2807  0.4426  0.1480
 4856TIP3    H136059   4.771   1.477  14.154 -0.6421 -1.6555 -0.2488
 4856TIP3    H236060   4.826   1.508  14.291  0.6385  0.3030 -1.1701
 4857TIP3   OH236061   5.344   2.661   0.791  0.0713  0.1837  0.4610
 4857TIP3    H136062   5.281   2.731   0.773  0.5021 -0.0791 -2.1954
 4857TIP3    H236063   5.420   2.682   0.738  1.1412 -1.0401  1.4619
 4858TIP3   OH236064   1.646   5.397   5.019  0.0805 -0.1797  0.0723
 4858TIP3    H136065   1.678   5.395   4.929  0.1404  1.1637  0.0484
 4858TIP3    H236066   1.680   5.479   5.054 -0.8767 -0.1588  0.9706
 4859TIP3   OH236067   6.586   5.138  15.813  0.3616  0.6308  0.2123
 4859TIP3    H136068   6.675   5.105  15.817  0.7448  1.7591  1.5329
 4859TIP3    H236069   6.592   5.217  15.759 -0.0096  0.2165 -0.4467
 4860TIP3   OH236070   2.825   0.301  14.664  0.3366 -0.4327 -0.6100
 4860TIP3    H136071   2.785   0.215  14.674 -0.3893 -0.0902 -0.5090
 4860TIP3    H236072   2.906   0.296  14.713 -0.8310 -0.3057  1.3647
 4861TIP3   OH236073   3.418   6.385  13.318  0.1186 -0.2309 -0.2311
 4861TIP3    H136074   3.464   6.464  13.293  1.0365 -0.2742  1.2691
 4861TIP3    H236075   3.327   6.402  13.294  0.4374  0.9640 -0.6256
 4862TIP3   OH236076   2.351   5.507  12.584 -0.0318 -0.7386 -0.3358
 4862TIP3    H136077   2.377   5.595  12.556 -0.4122 -0.4709  0.1465
 4862TIP3    H236078   2.360   5.453  12.506  0.1044 -0.2481 -0.6568
 4863TIP3   OH236079   1.342   1.913   3.131  0.3468 -0.0124 -0.0036
 4863TIP3    H136080   1.373   1.830   3.168 -3.0080 -1.6745 -0.7638
 4863TIP3    H236081   1.285   1.949   3.199 -1.1272 -0.1730 -1.1257
 4864TIP3   OH236082   5.764   5.016   4.991 -0.1087  0.7856  0.4706
 4864TIP3    H136083   5.687   4.964   4.967  0.5385  0.3821 -0.7513
 4864TIP3    H236084   5.827   4.951   5.024 -0.3187  1.1245  1.5573
 4865TIP3   OH236085   6.804   0.045  13.757 -0.9109  0.0735 -0.2976
 4865TIP3    H136086   6.898   0.056  13.740 -1.0460  3.6300  0.9495
 4865TIP3    H236087   6.761   0.096  13.688 -1.8179  1.2322  1.1036
 4866TIP3   OH236088   5.428   6.113  16.361 -0.7065 -0.1125  0.2898
 4866TIP3    H136089   5.423   6.198  16.404  0.7253 -0.9403  2.1614
 4866TIP3    H236090   5.521   6.101  16.342 -0.6001 -2.1165  1.8751
 4867TIP3   OH236091   4.840   3.312   2.972  0.1252 -0.0883 -0.1504
 4867TIP3    H136092   4.832   3.407   2.959 -1.8507 -0.3259 -0.8243
 4867TIP3    H236093   4.878   3.303   3.059  2.1107  1.3485 -0.8312
 4868TIP3   OH236094   6.396   5.321  14.922 -0.1163  0.3247 -0.4472
 4868TIP3    H136095   6.362   5.380  14.990 -1.6045 -0.1149 -0.8076
 4868TIP3    H236096   6.326   5.315  14.858  0.3492 -1.2024 -0.8313
 4869TIP3   OH236097   0.639   3.089  16.731  0.0714  0.2060 -0.2775
 4869TIP3    H136098   0.568   3.153  16.743 -0.7730 -0.9320  0.8809
 4869TIP3    H236099   0.715   3.143  16.709 -0.5256  1.6522  1.0797
 4870TIP3   OH236100   0.587   1.117   2.613 -0.2490  0.8843  0.0014
 4870TIP3    H136101   0.503   1.075   2.630  1.1907 -2.5811 -1.1944
 4870TIP3    H236102   0.648   1.074   2.673  0.9545  2.4475 -0.0764
 4871TIP3   OH236103   1.371   3.696  12.667 -0.8440 -0.0271 -0.1007
 4871TIP3    H136104   1.439   3.635  12.696  0.4812  1.8759  0.9093
 4871TIP3    H236105   1.304   3.691  12.736 -0.1052  0.6429  0.6841
 4872TIP3   OH236106   6.192   2.676   1.894  0.0356 -0.2289 -0.0134
 4872TIP3    H136107   6.115   2.620   1.883 -2.0434  2.3214  1.2249
 4872TIP3    H236108   6.171   2.733   1.968  2.0165  2.3113 -1.3217
 4873TIP3   OH236109   5.894   0.799  16.667  0.7083 -0.3416 -0.3323
 4873TIP3    H136110   5.873   0.709  16.690 -2.0264  0.6628  1.2903
 4873TIP3    H236111   5.959   0.826  16.731 -0.0067 -0.5066  0.4638
 4874TIP3   OH236112   3.407   3.183  16.637  0.0394 -0.6244 -0.4720
 4874TIP3    H136113   3.326   3.184  16.689 -0.9512  0.6199 -1.9703
 4874TIP3    H236114   3.391   3.247  16.567  2.4550 -0.1202 -0.6145
 4875TIP3   OH236115   6.235   2.369  13.518  0.7338  0.3702 -0.6863
 4875TIP3    H136116   6.298   2.416  13.464 -0.2254  1.1969 -1.1213
 4875TIP3    H236117   6.150   2.401  13.488  0.1794  1.1169  1.5630
 4876TIP3   OH236118   3.517   2.703   4.690 -0.0034 -0.4064 -0.5215
 4876TIP3    H136119   3.578   2.777   4.690 -0.5647  0.0690  0.4565
 4876TIP3    H236120   3.506   2.682   4.597 -1.3765  2.0593 -0.9686
 4877TIP3   OH236121   0.770   1.221  11.675 -0.2442 -0.2036 -0.6109
 4877TIP3    H136122   0.815   1.160  11.616  0.3415  0.1541 -0.5326
 4877TIP3    H236123   0.717   1.276  11.617  0.4973  0.2900 -0.8316
 4878TIP3   OH236124   6.806   1.313  14.096 -0.0738  0.7798 -0.0815
 4878TIP3    H136125   6.764   1.295  14.180  0.4857  0.0367  0.0479
 4878TIP3    H236126   6.804   1.229  14.050 -0.2571  1.1513 -0.7509
 4879TIP3   OH236127   3.226   4.289  16.925 -0.1605  0.4309 -0.2995
 4879TIP3    H136128   3.303   4.346  16.922 -0.0397  0.2500 -0.6207
 4879TIP3    H236129   3.250   4.213  16.872 -0.6326  0.4645 -0.5616
 4880TIP3   OH236130   0.966   6.170   3.915  0.2268  0.2177  0.2466
 4880TIP3    H136131   1.013   6.171   3.998  0.7795  1.0750 -0.0698
 4880TIP3    H236132   0.984   6.256   3.876 -0.2421 -0.0758 -0.6331
 4881TIP3   OH236133   5.144   6.105  16.325  0.4835 -0.7211 -0.2153
 4881TIP3    H136134   5.115   6.032  16.270 -0.9578  0.0353 -0.4866
 4881TIP3    H236135   5.239   6.096  16.329  0.4684 -1.6551 -1.6047
 4882TIP3   OH236136   1.292   5.578   4.956  0.2427 -0.3413 -0.0981
 4882TIP3    H136137   1.237   5.522   4.902 -0.5065 -1.3914  1.7076
 4882TIP3    H236138   1.250   5.665   4.950 -2.3628 -1.3443  2.1231
 4883TIP3   OH236139   4.933   4.053   0.403  0.7350 -0.6176  0.1588
 4883TIP3    H136140   4.959   4.069   0.494  2.1963 -2.8948  0.1840
 4883TIP3    H236141   4.874   3.978   0.408 -0.9489  0.6356 -0.5693
 4884TIP3   OH236142   0.605   4.662  15.071  0.1330  0.4628  0.1252
 4884TIP3    H136143   0.515   4.673  15.101 -0.6123  0.7465 -2.0836
 4884TIP3    H236144   0.603   4.582  15.019  1.0908  0.5912 -0.1164
 4885TIP3   OH236145   0.767   0.036   1.982  0.2193  0.3959  0.3587
 4885TIP3    H136146   0.703   0.097   1.944 -0.5523  0.6517  2.0208
 4885TIP3    H236147   0.715  -0.039   2.008  1.0565 -0.6614 -0.9501
 4886TIP3   OH236148   0.116   4.172   0.147 -0.4531  0.1071 -0.0790
 4886TIP3    H136149   0.139   4.255   0.106  0.8152 -0.3829 -0.3816
 4886TIP3    H236150   0.047   4.194   0.210 -0.7696  1.2298 -0.8124
 4887TIP3   OH236151   1.946   1.774   3.210 -0.2905 -0.0086  0.2993
 4887TIP3    H136152   1.862   1.799   3.171 -0.1051 -0.4867 -0.4250
 4887TIP3    H236153   1.930   1.687   3.246  0.1485 -0.5141 -0.6938
 4888TIP3   OH236154   5.652   6.318   5.076 -0.4868 -0.0930 -0.2703
 4888TIP3    H136155   5.636   6.239   5.025  0.3392 -0.6220  0.2899
 4888TIP3    H236156   5.699   6.376   5.017  0.1472 -0.5639 -0.2308
 4889TIP3   OH236157   1.769   5.992   2.951 -0.0034  0.1742  0.0044
 4889TIP3    H136158   1.723   5.979   3.034  0.7922 -0.9340  0.2827
 4889TIP3    H236159   1.736   5.923   2.893 -0.2178  0.6592 -0.4570
 4890TIP3   OH236160   1.838   2.096   0.848 -0.4875 -0.6844 -0.2875
 4890TIP3    H136161   1.816   2.009   0.815 -0.0589 -0.3810 -1.3822
 4890TIP3    H236162   1.807   2.096   0.939 -0.3271 -2.0299 -0.2359
 4891TIP3   OH236163   1.301   4.310  15.158 -0.2939 -0.3774  0.7686
 4891TIP3    H136164   1.241   4.381  15.133 -0.0932 -0.7455 -0.7625
 4891TIP3    H236165   1.366   4.353  15.215 -0.2555  0.6442 -0.0330
 4892TIP3   OH236166   0.199   4.368   3.893 -0.1674  0.0456  0.0304
 4892TIP3    H136167   0.164   4.398   3.809 -1.0401 -1.0125  0.0040
 4892TIP3    H236168   0.283   4.413   3.901 -0.3797  0.6751 -1.0939
 4893TIP3   OH236169   2.348   4.168  16.535 -0.3165  0.3507  0.2713
 4893TIP3    H136170   2.282   4.183  16.468  0.4371  0.5034 -0.4380
 4893TIP3    H236171   2.369   4.075  16.527 -0.3323  0.3369  0.3938
 4894TIP3   OH236172   1.496   1.874   2.529 -0.3110 -0.0286 -0.3298
 4894TIP3    H136173   1.451   1.796   2.499 -0.6260 -0.9523  2.3899
 4894TIP3    H236174   1.426   1.935   2.552 -0.0988  0.1941 -0.2688
 4895TIP3   OH236175   1.876   3.632  10.846  0.5719  0.7606 -0.4225
 4895TIP3    H136176   1.943   3.633  10.778 -0.6230  1.6591 -1.5943
 4895TIP3    H236177   1.804   3.582  10.808  0.8870 -0.9511  1.1544
 4896TIP3   OH236178   0.058   0.481   2.834 -0.1688 -0.1353 -0.5347
 4896TIP3    H136179   0.067   0.396   2.791 -1.1429 -0.9346  0.7726
 4896TIP3    H236180   0.038   0.542   2.764  0.1168 -1.0738 -1.4381
 4897TIP3   OH236181   0.377   3.022   2.169  0.2245 -0.5800  0.1916
 4897TIP3    H136182   0.427   3.066   2.101  0.9054 -0.3465  0.8386
 4897TIP3    H236183   0.430   2.945   2.191  0.1104 -0.5447  0.5977
 4898TIP3   OH236184   1.965   0.104   5.379  0.0462 -0.8372 -0.7113
 4898TIP3    H136185   1.981   0.114   5.285  0.0075 -0.4835 -0.6807
 4898TIP3    H236186   1.872   0.125   5.389  0.4547  0.8476 -0.3442
 4899TIP3   OH236187   2.211   1.310  11.432 -0.1683 -0.4163 -0.0027
 4899TIP3    H136188   2.188   1.219  11.452 -0.2477 -0.5993 -0.9377
 4899TIP3    H236189   2.159   1.332  11.355 -2.1781  1.2662  1.7630
 4900TIP3   OH236190   4.391   1.784  17.177  0.3170 -0.0231 -0.1158
 4900TIP3    H136191   4.406   1.872  17.212 -0.4440  0.3653 -0.7367
 4900TIP3    H236192   4.298   1.785  17.152  0.1407 -1.2063  0.4532
 4901TIP3   OH236193   3.829   4.663   5.026  0.4775  0.5253 -0.2258
 4901TIP3    H136194   3.894   4.711   5.078 -0.5147  2.6210 -0.8672
 4901TIP3    H236195   3.868   4.659   4.938  1.0271 -0.7934  0.0681
 4902TIP3   OH236196   6.302   3.005  14.143 -0.1771  0.1587  0.4244
 4902TIP3    H136197   6.338   2.984  14.230  0.5602  1.8680  0.5418
 4902TIP3    H236198   6.305   3.100  14.138  1.5548  0.0186 -2.2366
 4903TIP3   OH236199   2.405   4.517   6.056 -0.1333 -0.6151  0.0516
 4903TIP3    H136200   2.333   4.561   6.013 -0.8092 -0.8161  0.9651
 4903TIP3    H236201   2.364   4.445   6.104  0.4041  0.5323  2.2874
 4904TIP3   OH236202   2.912   0.842  16.094  0.1774 -0.7574 -0.3279
 4904TIP3    H136203   2.851   0.803  16.156 -0.6462  0.3648 -0.4132
 4904TIP3    H236204   2.970   0.896  16.148 -0.0814 -0.3541 -0.4498
 4905TIP3   OH236205   5.709   5.043  14.949  0.0580  0.2855  0.5704
 4905TIP3    H136206   5.620   5.077  14.958  0.5230  1.5314  0.5530
 4905TIP3    H236207   5.748   5.097  14.881  0.3935 -1.1755 -0.4127
 4906TIP3   OH236208   5.887   2.322  16.652  0.2695  0.0296  0.0745
 4906TIP3    H136209   5.805   2.372  16.653  0.0545 -0.0934 -4.4214
 4906TIP3    H236210   5.859   2.230  16.650  0.5691 -0.0558 -0.0906
 4907TIP3   OH236211   1.193   0.436  15.248  0.1353 -0.0257 -0.2022
 4907TIP3    H136212   1.227   0.522  15.274  0.7627 -0.0659 -0.8742
 4907TIP3    H236213   1.268   0.377  15.255  0.2074 -0.1301 -1.6332
 4908TIP3   OH236214   6.523   5.831   1.166 -0.0355 -0.2297 -0.0095
 4908TIP3    H136215   6.580   5.881   1.224 -1.3165 -0.6015  1.5995
 4908TIP3    H236216   6.435   5.863   1.184 -0.3830  0.1699 -2.3005
 4909TIP3   OH236217   5.092   4.164  15.917  0.1291  0.1135  0.1768
 4909TIP3    H136218   5.149   4.228  15.959  0.7286 -0.8288  0.7936
 4909TIP3    H236219   5.091   4.089  15.976  0.8085 -1.1349 -1.3639
 4910TIP3   OH236220   2.425   5.721  16.069 -0.6893 -0.1552 -0.4293
 4910TIP3    H136221   2.349   5.732  16.012 -1.6077 -0.8622  0.6193
 4910TIP3    H236222   2.473   5.647  16.032 -1.0682 -0.3589 -0.5227
 4911TIP3   OH236223   5.949   5.882   3.776  0.3009  0.0176 -0.4636
 4911TIP3    H136224   5.856   5.890   3.757  0.0769  0.5474  0.7685
 4911TIP3    H236225   5.987   5.965   3.748  0.4329 -0.2723 -1.1412
 4912TIP3   OH236226   5.931   4.473  10.671 -0.1478  0.1468 -0.2505
 4912TIP3    H136227   5.975   4.556  10.689  0.0144  0.2433 -1.0777
 4912TIP3    H236228   5.873   4.460  10.745 -0.4606  1.1948 -0.3087
 4913TIP3   OH236229   3.657   3.970  14.896  0.4830 -0.0145  0.6225
 4913TIP3    H136230   3.678   3.939  14.984 -2.2566 -1.1621  0.9298
 4913TIP3    H236231   3.593   3.907  14.862  1.8014  0.1545 -2.3897
 4914TIP3   OH236232   5.439   3.395   2.796 -0.1303  0.0730  0.2767
 4914TIP3    H136233   5.379   3.326   2.768  0.9966 -0.8265  0.0657
 4914TIP3    H236234   5.395   3.436   2.871 -1.9936  0.8379 -1.1653
 4915TIP3   OH236235   4.860   3.663   1.712  0.1652  0.3362 -0.1734
 4915TIP3    H136236   4.885   3.753   1.690  2.2500 -0.5992 -1.7554
 4915TIP3    H236237   4.887   3.611   1.636  2.0427 -2.1022  2.0661
 4916TIP3   OH236238   4.616   0.789  12.257  0.4859  0.0355 -0.6835
 4916TIP3    H136239   4.632   0.812  12.348  0.8790 -1.2732 -0.4079
 4916TIP3    H236240   4.689   0.828  12.209  0.8085 -0.1066 -0.3127
 4917TIP3   OH236241   6.730   2.496   1.177 -0.4886  0.0165 -0.0060
 4917TIP3    H136242   6.715   2.590   1.170 -0.2930  0.0339 -0.1878
 4917TIP3    H236243   6.645   2.456   1.161 -0.7170  0.1913  0.7596
 4918TIP3   OH236244   1.163   2.929  11.813 -0.3420  0.1457  0.1906
 4918TIP3    H136245   1.106   2.852  11.818  1.0343 -0.8925  0.3035
 4918TIP3    H236246   1.210   2.918  11.730  0.9800  0.0611  0.9470
 4919TIP3   OH236247   3.319   0.517  16.946 -0.4265  0.5704 -0.8481
 4919TIP3    H136248   3.267   0.593  16.972  0.9052  1.4852 -0.7839
 4919TIP3    H236249   3.301   0.451  17.012 -1.7097  0.7816 -0.9838
 4920TIP3   OH236250   5.886   4.179  13.285  0.1121 -0.6271 -0.2014
 4920TIP3    H136251   5.942   4.199  13.359  0.5668  1.6094 -1.0896
 4920TIP3    H236252   5.939   4.123  13.228  1.5818  1.5963 -1.1131
 4921TIP3   OH236253   3.110   3.064   1.261  0.4922  0.0190  0.4898
 4921TIP3    H136254   3.041   3.036   1.200  0.8414 -0.0153  0.1109
 4921TIP3    H236255   3.162   2.985   1.276  0.7290  0.1601  0.4081
 4922TIP3   OH236256   5.211   1.917  15.420 -0.1451 -0.2141 -0.1520
 4922TIP3    H136257   5.207   1.930  15.515 -0.4907  0.6084 -0.2732
 4922TIP3    H236258   5.253   1.997  15.387  1.9084 -1.4260 -0.4958
 4923TIP3   OH236259   1.561   1.381  11.443 -0.2692  0.0945 -0.5486
 4923TIP3    H136260   1.528   1.326  11.515 -0.1460 -0.0934 -0.6366
 4923TIP3    H236261   1.647   1.345  11.422  0.7512  1.6369  0.8255
 4924TIP3   OH236262   4.337   0.042  16.431 -0.2197  0.2167 -0.0525
 4924TIP3    H136263   4.358  -0.048  16.454  0.8937  0.7237  1.0036
 4924TIP3    H236264   4.351   0.046  16.336  1.3022 -0.3250  0.1258
 4925TIP3   OH236265   2.179   1.245   3.406 -0.5550 -0.5701  0.5025
 4925TIP3    H136266   2.180   1.167   3.351 -0.1724 -0.2746  0.0940
 4925TIP3    H236267   2.088   1.253   3.434 -0.7915 -0.5739 -0.2824
 4926TIP3   OH236268   6.410   4.347   1.789 -0.3057  0.0785 -0.1695
 4926TIP3    H136269   6.448   4.266   1.756  0.8307  1.2782 -1.9044
 4926TIP3    H236270   6.438   4.352   1.880 -3.0109 -3.0202  0.9164
 4927TIP3   OH236271   0.717   2.529   1.291  0.3554  0.6417 -0.2874
 4927TIP3    H136272   0.637   2.564   1.252  0.8291  1.5773 -0.4362
 4927TIP3    H236273   0.691   2.444   1.327 -0.8547  1.2304  0.2510
 4928TIP3   OH236274   2.521   0.856   6.188 -0.2093  0.0461 -0.0520
 4928TIP3    H136275   2.568   0.825   6.111 -2.8197 -0.3543 -1.5453
 4928TIP3    H236276   2.536   0.950   6.189  2.1601 -0.3031  0.6100
 4929TIP3   OH236277   0.753   1.056  15.434 -0.1585  0.1648 -0.2823
 4929TIP3    H136278   0.660   1.068  15.453  0.3756  0.9319  1.9656
 4929TIP3    H236279   0.787   1.006  15.508  1.4857  1.0236 -0.4300
 4930TIP3   OH236280   0.693   2.946  12.359  0.1066  0.8235  0.5549
 4930TIP3    H136281   0.611   2.967  12.403 -0.3421 -0.8436  0.5231
 4930TIP3    H236282   0.668   2.888  12.287  1.2528  0.7351  0.2187
 4931TIP3   OH236283   5.652   2.362  16.319 -0.6886 -0.2624  0.0478
 4931TIP3    H136284   5.703   2.283  16.339  0.5436  0.6158  0.4396
 4931TIP3    H236285   5.592   2.335  16.249  0.1579 -1.3722 -0.2688
 4932TIP3   OH236286   6.467   2.672  17.094  0.6130  0.4538 -0.4495
 4932TIP3    H136287   6.408   2.716  17.032  0.5727  1.1796  0.0964
 4932TIP3    H236288   6.532   2.628  17.039  0.2092  0.5703 -1.0223
 4933TIP3   OH236289   2.613   2.271   1.063  0.0662 -0.2640 -0.0319
 4933TIP3    H136290   2.587   2.186   1.099 -0.3741 -0.2978 -0.4101
 4933TIP3    H236291   2.677   2.305   1.125 -1.1757 -0.0131  1.1540
 4934TIP3   OH236292   1.604   0.793  11.236  0.3452  0.4407 -0.1108
 4934TIP3    H136293   1.521   0.820  11.198 -0.1777  1.3043  1.6172
 4934TIP3    H236294   1.582   0.762  11.324  2.0535  2.4844  1.1077
 4935TIP3   OH236295   3.512   5.871   3.819  0.0967 -0.4176 -0.2513
 4935TIP3    H136296   3.434   5.877   3.764 -0.7151  1.9490  1.1051
 4935TIP3    H236297   3.479   5.868   3.909  1.5443  1.5722  0.4007
 4936TIP3   OH236298   4.599   2.927   0.496  0.2363  0.1610 -0.1447
 4936TIP3    H136299   4.639   2.841   0.502  1.2635  0.7021  1.0723
 4936TIP3    H236300   4.673   2.988   0.489 -0.4711  0.9381 -1.0023
 4937TIP3   OH236301   3.577   3.296   1.717  0.2930  0.3977  0.2000
 4937TIP3    H136302   3.519   3.369   1.693  0.6950  0.5402 -0.3453
 4937TIP3    H236303   3.589   3.306   1.811  0.2912  0.9988  0.1414
 4938TIP3   OH236304   2.699   2.424  12.196 -0.1425 -0.3558  0.0447
 4938TIP3    H136305   2.692   2.474  12.115  1.6008  0.7347  0.5399
 4938TIP3    H236306   2.609   2.413  12.226 -0.5998  1.9970 -0.3860
 4939TIP3   OH236307   3.597   3.625  14.321  0.1989 -0.8788  0.3842
 4939TIP3    H136308   3.539   3.694  14.353  1.4552  0.0820  0.6184
 4939TIP3    H236309   3.549   3.585  14.249  0.0461  1.1697 -0.6881
 4940TIP3   OH236310   0.011   3.984  11.988 -0.2242  0.4335 -0.3894
 4940TIP3    H136311   0.038   3.978  12.079 -0.1098  0.9082 -0.3948
 4940TIP3    H236312   0.059   4.059  11.952 -0.1397  0.1481 -0.8833
 4941TIP3   OH236313   4.332   1.028  15.095  0.2987 -0.0788  0.2628
 4941TIP3    H136314   4.334   1.104  15.037 -0.1468  0.3100  0.7537
 4941TIP3    H236315   4.270   0.968  15.054 -1.9262  1.2382  1.6061
 4942TIP3   OH236316   4.226   0.542  16.675  0.2879  0.1960 -0.2949
 4942TIP3    H136317   4.219   0.510  16.765 -0.0898  1.4578  0.1421
 4942TIP3    H236318   4.313   0.583  16.671 -0.1476  1.1498 -0.1562
 4943TIP3   OH236319   0.002   1.036  13.998  0.0359 -0.2672 -0.2114
 4943TIP3    H136320   0.094   1.061  13.998  0.1340 -0.6339 -0.1853
 4943TIP3    H236321   0.001   0.946  13.964 -0.0920 -1.1190  1.9734
 4944TIP3   OH236322   2.450   4.196  11.931 -0.2582 -0.2969 -0.0687
 4944TIP3    H136323   2.472   4.263  11.996  0.9177 -0.2161 -0.5282
 4944TIP3    H236324   2.411   4.126  11.982  0.2898 -0.0705  0.6827
 4945TIP3   OH236325   1.583   6.360   3.593 -0.2057 -0.4810  0.1028
 4945TIP3    H136326   1.525   6.294   3.630  2.3418 -2.4730  0.7613
 4945TIP3    H236327   1.614   6.321   3.511  1.8785 -0.4909  0.8539
 4946TIP3   OH236328   5.862   6.799   3.395  0.4300 -0.5930 -0.2616
 4946TIP3    H136329   5.845   6.801   3.489  1.4551 -2.1961 -0.0296
 4946TIP3    H236330   5.828   6.883   3.363 -0.2240 -0.1691  1.4715
 4947TIP3   OH236331   3.084   2.771   2.902 -0.3897 -0.0298  0.8503
 4947TIP3    H136332   3.080   2.860   2.869  1.1604 -0.0312  0.6063
 4947TIP3    H236333   3.134   2.723   2.835  1.8448 -0.2717  2.6464
 4948TIP3   OH236334   5.627   3.227  15.849 -0.0780 -0.1076  0.6857
 4948TIP3    H136335   5.563   3.298  15.855 -0.0738  0.1427 -2.0293
 4948TIP3    H236336   5.711   3.269  15.864 -0.2257  0.1408  0.8323
 4949TIP3   OH236337   6.179   5.984  13.803 -0.1259 -0.3348 -0.0940
 4949TIP3    H136338   6.115   5.974  13.732  0.7924  0.4146 -1.0500
 4949TIP3    H236339   6.255   6.024  13.761  0.4433  0.1077  1.3161
 4950TIP3   OH236340   3.506   5.280  12.444 -0.0189  0.5093 -0.3356
 4950TIP3    H136341   3.583   5.237  12.482 -0.4467  0.2330  0.2313
 4950TIP3    H236342   3.447   5.209  12.423  0.3560  0.6417 -1.8660
 4951TIP3   OH236343   2.112   5.706   1.615  0.7261  0.2541 -0.1656
 4951TIP3    H136344   2.180   5.728   1.679  1.5342 -2.6007 -0.0075
 4951TIP3    H236345   2.159   5.662   1.544 -0.2713  2.6243 -2.4129
 4952TIP3   OH236346   1.262   0.321   2.970 -0.6182  1.1586  0.4049
 4952TIP3    H136347   1.282   0.264   3.045 -0.2114  2.6685  1.4506
 4952TIP3    H236348   1.191   0.275   2.924 -0.5543 -0.0092  1.4436
 4953TIP3   OH236349   0.097   1.977   4.568 -0.0211  0.2171  0.2919
 4953TIP3    H136350   0.106   1.920   4.644  2.9512  0.7422  0.4045
 4953TIP3    H236351   0.105   2.066   4.604  2.4852  0.4438 -0.6764
 4954TIP3   OH236352   4.410   4.520  13.141 -0.3017 -0.4586  0.2717
 4954TIP3    H136353   4.484   4.464  13.164  0.9057  1.0106  0.0290
 4954TIP3    H236354   4.410   4.589  13.208  0.8071  1.5972 -1.7880
 4955TIP3   OH236355   5.364   6.651  12.376 -0.1031 -0.0173 -0.0322
 4955TIP3    H136356   5.373   6.743  12.353  0.5036  0.4126  1.8352
 4955TIP3    H236357   5.308   6.614  12.308  0.5927  1.4723 -1.4135
 4956TIP3   OH236358   6.113   2.623  17.035 -0.0248 -0.4587  0.5839
 4956TIP3    H136359   6.169   2.657  16.965 -1.5741 -0.4948 -0.7160
 4956TIP3    H236360   6.146   2.534  17.050 -0.4240 -0.8823 -0.9518
 4957TIP3   OH236361   2.667   6.601  14.472 -0.3330  0.2054 -0.0790
 4957TIP3    H136362   2.677   6.613  14.377  0.7141  0.8398  0.1016
 4957TIP3    H236363   2.601   6.666  14.497 -0.5865  0.0612 -0.3625
 4958TIP3   OH236364   1.650   4.099   3.171 -0.0080  0.4967 -0.9363
 4958TIP3    H136365   1.633   4.115   3.264 -1.2683  1.8895 -1.3879
 4958TIP3    H236366   1.724   4.038   3.171 -1.0140 -0.7975  0.9917
 4959TIP3   OH236367   1.567   4.929  11.356  0.1508 -0.0106 -0.3796
 4959TIP3    H136368   1.538   4.933  11.265 -1.6088  0.0197  0.1561
 4959TIP3    H236369   1.660   4.908  11.351  0.1485  0.3390 -2.1907
 4960TIP3   OH236370   0.720   4.587  14.637  0.1850 -0.1980  0.2351
 4960TIP3    H136371   0.802   4.573  14.590  1.2627  1.2315  1.6597
 4960TIP3    H236372   0.732   4.542  14.721  0.3937  1.9026  1.3652
 4961TIP3   OH236373   3.554   0.666   1.880 -0.6128 -0.1799  0.4353
 4961TIP3    H136374   3.585   0.587   1.835 -0.8932 -0.5295  0.8421
 4961TIP3    H236375   3.543   0.731   1.810  0.8113 -0.1133  0.2691
 4962TIP3   OH236376   0.543   0.244   4.281 -0.4843  0.0206 -0.1924
 4962TIP3    H136377   0.537   0.331   4.241 -0.2926 -0.7051 -1.8644
 4962TIP3    H236378   0.609   0.199   4.228  1.2417 -0.3438  2.1922
 4963TIP3   OH236379   0.655   2.120  15.237 -0.4323 -0.1440  0.5073
 4963TIP3    H136380   0.621   2.091  15.321 -1.7450 -0.3989 -0.0939
 4963TIP3    H236381   0.592   2.087  15.173  0.8019 -0.3671 -0.6123
 4964TIP3   OH236382   2.986   1.117  15.096 -0.5733  0.1194 -0.3646
 4964TIP3    H136383   2.896   1.093  15.115 -0.4232 -0.4882 -0.3884
 4964TIP3    H236384   3.006   1.188  15.156  0.0261 -2.0123  2.0614
 4965TIP3   OH236385   5.728   2.184  12.144  0.2066 -0.5486  0.3396
 4965TIP3    H136386   5.747   2.091  12.160  0.0387 -0.4844  0.9384
 4965TIP3    H236387   5.736   2.224  12.231 -0.2390 -0.0950  0.1657
 4966TIP3   OH236388   6.415   5.988  15.446  0.1020  0.4262  0.8905
 4966TIP3    H136389   6.372   6.053  15.390 -0.8653  1.8269  3.1726
 4966TIP3    H236390   6.345   5.955  15.502  0.6570 -2.3992  0.0048
 4967TIP3   OH236391   4.110   2.406   3.649 -0.1710 -0.2500 -0.9056
 4967TIP3    H136392   4.178   2.364   3.702 -1.2875 -3.9643 -2.3013
 4967TIP3    H236393   4.031   2.403   3.703 -0.1437  0.6542 -0.7933
 4968TIP3   OH236394   1.868   5.457   4.291  0.0897  0.1795  0.1757
 4968TIP3    H136395   1.786   5.490   4.327 -0.6317 -1.3226 -0.0926
 4968TIP3    H236396   1.846   5.372   4.252  1.4441  0.4509 -1.2590
 4969TIP3   OH236397   4.804   1.533  11.363 -1.1437  0.3457 -0.3922
 4969TIP3    H136398   4.801   1.625  11.335 -2.5108 -0.0986 -1.7618
 4969TIP3    H236399   4.854   1.489  11.295 -0.0845  0.1386  0.5041
 4970TIP3   OH236400   3.661   0.624   5.176  0.1710  0.2643  0.6015
 4970TIP3    H136401   3.585   0.680   5.192  0.5457  0.5884  1.2624
 4970TIP3    H236402   3.714   0.674   5.114 -0.7458 -0.5077 -0.8377
 4971TIP3   OH236403   5.106   4.909  13.513  0.2357  0.3207  0.0133
 4971TIP3    H136404   5.136   4.943  13.598  0.9264 -0.5975  0.1434
 4971TIP3    H236405   5.011   4.919  13.515  0.4916  3.5214 -0.4956
 4972TIP3   OH236406   2.699   2.209  13.896 -0.7833 -0.1748 -0.5761
 4972TIP3    H136407   2.765   2.140  13.892 -0.5072  0.0661 -0.2544
 4972TIP3    H236408   2.616   2.163  13.896 -0.5779 -0.6400  1.8845
 4973TIP3   OH236409   6.125   4.516   1.481 -0.6062  0.4411 -0.3543
 4973TIP3    H136410   6.208   4.547   1.518 -0.0917  0.9042 -1.8637
 4973TIP3    H236411   6.109   4.433   1.526  0.7701  0.2551 -0.1779
 4974TIP3   OH236412   2.432   1.359  12.363  0.1724  0.1223  0.3766
 4974TIP3    H136413   2.398   1.412  12.436  0.9638  1.4175 -0.1731
 4974TIP3    H236414   2.523   1.389  12.353 -0.4335  1.1823 -2.2496
 4975TIP3   OH236415   2.564   5.863  17.177  0.0814  0.1380 -0.3448
 4975TIP3    H136416   2.482   5.913  17.177 -0.9319 -1.4633  0.7949
 4975TIP3    H236417   2.624   5.914  17.231  0.0489  1.6540 -1.7337
 4976TIP3   OH236418   2.887   3.441   1.601  0.1977 -0.4840 -0.1952
 4976TIP3    H136419   2.827   3.439   1.527  1.0207  0.2025 -0.8882
 4976TIP3    H236420   2.936   3.360   1.594  1.4560  0.3621 -1.4025
 4977TIP3   OH236421   3.754   3.613  16.264  0.0649  0.4475  0.3339
 4977TIP3    H136422   3.694   3.613  16.190  0.1290 -2.6034  0.2358
 4977TIP3    H236423   3.698   3.622  16.341 -0.2992  0.0348  0.1163
 4978TIP3   OH236424   6.065   0.510   4.998 -0.0647 -0.3039  0.0386
 4978TIP3    H136425   6.031   0.424   4.974 -1.6016 -0.1288  1.4990
 4978TIP3    H236426   6.129   0.491   5.067 -0.9309 -0.2338  0.8721
 4979TIP3   OH236427   6.342   1.874  15.330  0.1651 -0.4884 -0.7512
 4979TIP3    H136428   6.429   1.869  15.292  0.2795  1.2151 -0.7405
 4979TIP3    H236429   6.285   1.834  15.265  0.7990 -0.5743 -1.2602
 4980TIP3   OH236430   6.467   6.337  13.878 -0.8327  0.2167  0.2097
 4980TIP3    H136431   6.490   6.414  13.825  1.4033 -1.5842 -1.6132
 4980TIP3    H236432   6.378   6.315  13.851  0.0280 -0.2760 -2.4485
 4981TIP3   OH236433   2.232   6.162  16.910  0.4272 -0.1087 -0.6147
 4981TIP3    H136434   2.164   6.126  16.853 -0.5999  0.6864  0.1013
 4981TIP3    H236435   2.303   6.186  16.850  1.3764 -3.7749 -1.0688
 4982TIP3   OH236436   0.827   0.309   6.267  0.2357  0.2673 -0.4869
 4982TIP3    H136437   0.759   0.318   6.200 -0.5111  0.8967  0.3663
 4982TIP3    H236438   0.900   0.362   6.234  0.2947 -0.3272 -1.3503
 4983TIP3   OH236439   5.878   2.692  16.637  0.1392  0.5698  0.1245
 4983TIP3    H136440   5.940   2.737  16.580  0.7098  1.1961  1.2133
 4983TIP3    H236441   5.803   2.751  16.643  0.7112  1.2110  1.2122
 4984TIP3   OH236442   4.174   4.826  11.049  0.3840 -0.1225  0.3551
 4984TIP3    H136443   4.196   4.781  10.967  0.4821 -0.6794  0.6798
 4984TIP3    H236444   4.079   4.817  11.056  0.3609  0.0329  0.2392
 4985TIP3   OH236445   1.499   1.615  17.250  0.3481  0.5824  1.0070
 4985TIP3    H136446   1.427   1.634  17.190  2.1607  1.6984 -0.8972
 4985TIP3    H236447   1.481   1.527  17.282 -1.9699  0.9225  0.7471
 4986TIP3   OH236448   0.489   3.637  13.945 -0.1090 -0.2245 -0.5906
 4986TIP3    H136449   0.484   3.657  13.852  0.7122  0.1207 -0.5602
 4986TIP3    H236450   0.527   3.550  13.950  1.3449  0.4108 -0.5206
 4987TIP3   OH236451   5.144   3.283  12.371  0.1961  0.0426  0.7576
 4987TIP3    H136452   5.199   3.239  12.306  3.0576  0.3390  2.8800
 4987TIP3    H236453   5.055   3.275  12.337  1.0405 -4.1891 -0.7022
 4988TIP3   OH236454   4.443   3.841  13.101 -0.5677 -0.3313  0.1075
 4988TIP3    H136455   4.410   3.778  13.037  0.8052 -0.6935 -0.2654
 4988TIP3    H236456   4.374   3.848  13.166 -1.9683  0.0077 -1.3841
 4989TIP3   OH236457   5.697   6.398  17.193 -0.2437 -0.8289 -0.3670
 4989TIP3    H136458   5.686   6.459  17.120 -0.4056 -1.5886 -0.9842
 4989TIP3    H236459   5.707   6.312  17.151  0.4804 -1.1671  0.4678
 4990TIP3   OH236460   3.169   2.137   0.862 -0.3438  0.0356 -0.0838
 4990TIP3    H136461   3.157   2.231   0.856  0.7089  0.1643 -0.2367
 4990TIP3    H236462   3.223   2.124   0.940  0.3813 -0.3560 -0.6395
 4991TIP3   OH236463   3.846   0.011   2.259  0.1731 -0.3535  0.3969
 4991TIP3    H136464   3.905  -0.059   2.288 -0.1846 -0.7597  0.1394
 4991TIP3    H236465   3.792  -0.029   2.192 -0.6952 -0.0905  0.9388
 4992TIP3   OH236466   6.115   1.437   5.104 -0.1215  0.2966  0.4466
 4992TIP3    H136467   6.020   1.442   5.102 -0.2639 -0.7519  2.5588
 4992TIP3    H236468   6.135   1.346   5.082  0.3470  0.3123  0.7955
 4993TIP3   OH236469   3.140   4.401   4.409  0.0580  0.2715 -0.7029
 4993TIP3    H136470   3.151   4.352   4.328 -3.0960  1.2794 -1.7817
 4993TIP3    H236471   3.064   4.361   4.451  0.3418  1.1768  0.6953
 4994TIP3   OH236472   3.687   3.328  12.962 -0.7227 -0.4393  0.3107
 4994TIP3    H136473   3.700   3.407  13.014  0.5770 -0.0965 -0.5034
 4994TIP3    H236474   3.705   3.256  13.022 -0.5224 -0.0716  0.6903
 4995TIP3   OH236475   5.380   5.863  11.862 -0.3179 -0.1664  0.0056
 4995TIP3    H136476   5.306   5.919  11.838 -1.0942 -0.9147  0.6446
 4995TIP3    H236477   5.373   5.788  11.802  0.5654  0.2853 -0.6717
 4996TIP3   OH236478   0.058   3.801   2.640  0.1306 -0.7246 -0.4938
 4996TIP3    H136479   0.013   3.851   2.572 -1.1826 -1.5214 -0.2545
 4996TIP3    H236480   0.086   3.721   2.596  2.8238  0.4639 -1.0432
 4997TIP3   OH236481   3.398   1.569  14.840  0.3657 -0.2585  0.2740
 4997TIP3    H136482   3.447   1.598  14.764 -0.9037  1.2844  0.0112
 4997TIP3    H236483   3.464   1.546  14.905  1.4337 -0.2693 -0.8098
 4998TIP3   OH236484   3.451   5.720  13.095 -0.3290 -0.2873  0.3383
 4998TIP3    H136485   3.365   5.740  13.132  0.8151  1.6460  2.0661
 4998TIP3    H236486   3.474   5.797  13.043 -0.2920 -1.4344 -1.3726
 4999TIP3   OH236487   1.601   2.652  10.385 -0.8383 -0.2437  0.0801
 4999TIP3    H136488   1.563   2.692  10.463  0.4977 -0.8128  1.0343
 4999TIP3    H236489   1.692   2.633  10.409 -1.0600 -2.5898 -0.7874
 5000TIP3   OH236490   4.301   5.211   2.660 -0.2037 -0.4414 -0.1778
 5000TIP3    H136491   4.348   5.157   2.596  0.3517  0.4078 -0.4965
 5000TIP3    H236492   4.362   5.282   2.681 -1.5105  0.9394 -0.9547
 5001TIP3   OH236493   0.364   1.557   1.904  0.0541 -0.2100 -0.0820
 5001TIP3    H136494   0.393   1.573   1.993 -0.8614  0.9421  0.0204
 5001TIP3    H236495   0.443   1.530   1.857  0.7180  0.0866  0.8610
 5002TIP3   OH236496   5.847   6.429   2.946  0.0460 -0.2299  0.2588
 5002TIP3    H136497   5.844   6.433   2.850  1.0036 -1.2169  0.1708
 5002TIP3    H236498   5.758   6.447   2.974  0.0585  1.4608 -0.7670
 5003TIP3   OH236499   2.886   0.723  11.273 -0.1068 -0.3329  0.3731
 5003TIP3    H136500   2.924   0.760  11.352  0.9510  0.4925 -0.4954
 5003TIP3    H236501   2.962   0.694  11.222 -0.7118  0.0635 -0.7840
 5004TIP3   OH236502   4.254   3.455   5.234 -0.2404 -0.4669  0.0591
 5004TIP3    H136503   4.212   3.539   5.250  0.9812  0.5325 -1.8295
 5004TIP3    H236504   4.193   3.409   5.175 -0.2663 -0.3816  0.0200
 5005TIP3   OH236505   3.633   0.116  11.121  0.5427  0.1293 -0.1418
 5005TIP3    H136506   3.564   0.077  11.066  0.2098  0.9787 -0.3468
 5005TIP3    H236507   3.704   0.053  11.119  0.5263  0.1373 -1.5512
 5006TIP3   OH236508   0.889   0.372   3.714 -0.3440 -0.4966 -0.9921
 5006TIP3    H136509   0.946   0.432   3.760 -0.3466 -2.1958  1.2861
 5006TIP3    H236510   0.943   0.335   3.644  0.3880  0.2127 -0.7984
 5007TIP3   OH236511   0.487   5.393  12.651 -0.4207  0.5304  0.3482
 5007TIP3    H136512   0.478   5.313  12.599 -1.5605  0.2750  0.9209
 5007TIP3    H236513   0.573   5.427  12.628 -0.2006 -0.5103 -0.4002
 5008TIP3   OH236514   4.338   5.531   4.039  0.5269 -0.0042 -0.7661
 5008TIP3    H136515   4.294   5.607   4.001  1.0580 -0.3475 -2.1108
 5008TIP3    H236516   4.269   5.483   4.083  0.1283  1.0978 -0.1783
 5009TIP3   OH236517   3.759   5.018  16.208 -0.0798  0.4278 -0.0698
 5009TIP3    H136518   3.768   4.931  16.249 -1.3423 -0.6914 -2.0575
 5009TIP3    H236519   3.701   5.066  16.267 -1.1278 -0.8494 -0.0289
 5010TIP3   OH236520   6.261   1.677  15.817 -0.4930 -0.0550 -0.4961
 5010TIP3    H136521   6.266   1.652  15.725 -1.1100 -0.7413 -0.3570
 5010TIP3    H236522   6.185   1.735  15.822 -0.5093 -0.0832 -0.4121
 5011TIP3   OH236523   0.477   5.112   5.257 -0.4707 -0.0856 -0.0964
 5011TIP3    H136524   0.396   5.069   5.232 -1.2892  2.1216 -1.3952
 5011TIP3    H236525   0.452   5.170   5.329  0.9957 -3.0814  2.9537
 5012TIP3   OH236526   4.686   4.797   4.404 -0.0588  0.2084 -0.3983
 5012TIP3    H136527   4.630   4.869   4.372 -2.7219 -1.8806 -0.6439
 5012TIP3    H236528   4.754   4.841   4.454 -1.6608  2.9385 -0.4815
 5013TIP3   OH236529   5.505   0.166   4.974  0.0189 -0.0403  0.1441
 5013TIP3    H136530   5.542   0.207   5.053  1.9172 -1.2927 -0.0553
 5013TIP3    H236531   5.422   0.129   5.003 -0.0003  0.7987  1.2027
 5014TIP3   OH236532   4.653   0.077  15.379 -1.2035 -0.1365  0.0726
 5014TIP3    H136533   4.607  -0.007  15.370  2.8293 -2.5772  1.1170
 5014TIP3    H236534   4.690   0.076  15.467  1.4390  1.3559 -0.9446
 5015TIP3   OH236535   6.525   0.605  15.868  0.0154 -0.1611 -0.1368
 5015TIP3    H136536   6.539   0.698  15.851  2.1770 -0.6890 -1.3630
 5015TIP3    H236537   6.448   0.603  15.925 -1.5387  2.2273 -2.0392
 5016TIP3   OH236538   0.305   0.108  15.460 -0.4566 -0.1057  0.3825
 5016TIP3    H136539   0.328   0.099  15.368  2.7447  0.0064  1.1276
 5016TIP3    H236540   0.290   0.019  15.490  0.4864 -0.3080  0.2489
 5017TIP3   OH236541   5.406   3.673   2.705 -0.6009 -0.1736  0.4791
 5017TIP3    H136542   5.406   3.715   2.791 -1.2381 -1.8820  1.3422
 5017TIP3    H236543   5.452   3.591   2.719  1.3100  0.5384 -1.3545
 5018TIP3   OH236544   6.071   1.349   0.416 -0.1049  0.4970  0.2811
 5018TIP3    H136545   5.995   1.395   0.453 -0.1857  2.9512 -2.6779
 5018TIP3    H236546   6.128   1.420   0.386  2.9721 -1.3312  1.6279
 5019TIP3   OH236547   1.143   0.900   2.654 -0.1012 -0.1048 -0.3075
 5019TIP3    H136548   1.129   0.995   2.649 -1.7974 -0.2869  0.7349
 5019TIP3    H236549   1.124   0.869   2.565 -2.1588  0.2230 -0.0194
 5020TIP3   OH236550   1.290   3.993   6.412  0.4683 -0.0545  0.1436
 5020TIP3    H136551   1.363   4.014   6.354  0.0583  1.5449  0.1698
 5020TIP3    H236552   1.212   4.019   6.363  0.0773  0.6197  1.0986
 5021TIP3   OH236553   4.574   2.951   3.853  0.1221 -0.1440 -0.0288
 5021TIP3    H136554   4.527   2.898   3.918 -0.5998  0.2891 -0.1854
 5021TIP3    H236555   4.625   2.887   3.803 -1.7004 -0.8843 -1.0380
 5022TIP3   OH236556   0.476   5.498  17.039  0.2691 -0.3438  0.3657
 5022TIP3    H136557   0.422   5.573  17.017 -0.3949 -0.9924 -0.2641
 5022TIP3    H236558   0.566   5.529  17.028  0.0430  0.8022  1.6243
 5023TIP3   OH236559   2.122   3.657  17.272  0.0608 -0.0987  0.1779
 5023TIP3    H136560   2.106   3.577  17.223 -0.1930 -0.1714  0.3797
 5023TIP3    H236561   2.107   3.728  17.209 -0.4415 -0.1846  0.2004
 5024TIP3   OH236562   1.105   3.192   4.391  0.8501  0.0966  0.5502
 5024TIP3    H136563   1.125   3.147   4.309  2.1381 -0.8843  1.3835
 5024TIP3    H236564   1.186   3.239   4.413  0.2208  1.0694  0.8160
 5025TIP3   OH236565   1.153   6.037  15.871 -0.3727 -0.0080 -0.0726
 5025TIP3    H136566   1.114   6.035  15.784  0.3508  1.7320 -0.4610
 5025TIP3    H236567   1.246   6.051  15.856 -0.2872  0.6411  0.9776
 5026TIP3   OH236568   2.983   2.609   6.014  0.2392  0.0181  0.1193
 5026TIP3    H136569   2.950   2.699   6.023  1.1558  0.5655 -1.7214
 5026TIP3    H236570   2.950   2.563   6.091 -0.6669  1.8119  0.8188
 5027TIP3   OH236571   0.158   5.256   0.458 -0.2389 -0.2395 -0.0773
 5027TIP3    H136572   0.091   5.215   0.512 -0.6785 -0.6048 -0.8753
 5027TIP3    H236573   0.224   5.288   0.519 -0.9016 -0.3300  0.6791
 5028TIP3   OH236574   3.342   5.148  14.427 -0.0492  0.0507 -0.3942
 5028TIP3    H136575   3.426   5.188  14.408  0.6183 -1.9420 -1.8767
 5028TIP3    H236576   3.286   5.174  14.353 -0.2785  0.0690 -0.2175
 5029TIP3   OH236577   4.195   0.909   2.343  0.2052 -0.0346 -0.3371
 5029TIP3    H136578   4.124   0.854   2.377  0.1295  1.6967  2.3979
 5029TIP3    H236579   4.152   0.962   2.275 -0.2852 -1.4817 -1.1945
 5030TIP3   OH236580   5.502   2.518   0.539  0.2772  0.0115 -0.1341
 5030TIP3    H136581   5.556   2.468   0.600  0.1849 -0.3943 -0.3865
 5030TIP3    H236582   5.538   2.607   0.542 -0.1477  0.1485  1.0115
 5031TIP3   OH236583   0.295   2.193  11.524 -0.4518 -0.4510  0.1725
 5031TIP3    H136584   0.345   2.273  11.540 -0.9353  0.1012 -1.0341
 5031TIP3    H236585   0.207   2.214  11.556 -0.2626 -0.9657  1.0627
 5032TIP3   OH236586   5.656   2.760  10.720 -0.2892  0.1806 -0.2811
 5032TIP3    H136587   5.676   2.805  10.638 -0.3371  0.6971 -0.0135
 5032TIP3    H236588   5.706   2.809  10.786 -0.6228  0.0572  0.0601
 5033TIP3   OH236589   1.180   6.023  11.513  0.4661 -0.5753 -0.0666
 5033TIP3    H136590   1.093   5.998  11.481 -0.0500  2.3706 -1.1066
 5033TIP3    H236591   1.240   5.968  11.462 -0.7174 -2.0370  0.0614
 5034TIP3   OH236592   0.625   3.516   3.492  0.4534  0.1039 -0.5642
 5034TIP3    H136593   0.548   3.513   3.549  0.5606 -0.4969 -0.4495
 5034TIP3    H236594   0.599   3.467   3.414  1.2042 -1.3054  0.0661
 5035TIP3   OH236595   0.549   5.927   1.275 -0.5673 -0.2381 -0.0267
 5035TIP3    H136596   0.505   6.007   1.303 -0.6530 -0.6751  1.1172
 5035TIP3    H236597   0.480   5.860   1.275 -0.5246 -0.2876 -1.0982
 5036TIP3   OH236598   2.507   3.231  11.423  0.3287  0.7111  0.4657
 5036TIP3    H136599   2.557   3.257  11.346 -1.5696  0.4048 -0.9255
 5036TIP3    H236600   2.461   3.311  11.450 -1.2450  0.1569 -0.4936
 5037TIP3   OH236601   2.391   1.178   3.184  0.3672  0.5849  0.3691
 5037TIP3    H136602   2.452   1.251   3.193  0.6389  0.3298  0.6599
 5037TIP3    H236603   2.441   1.111   3.137 -0.3751  1.1396 -1.2411
 5038TIP3   OH236604   5.377   3.898   0.987 -0.0019 -0.4945  0.1971
 5038TIP3    H136605   5.335   3.920   0.903 -3.1119 -0.1163  1.7574
 5038TIP3    H236606   5.304   3.870   1.043  1.5715  2.0606  3.6819
 5039TIP3   OH236607   2.733   3.997  13.305  0.1436 -0.1709  0.5153
 5039TIP3    H136608   2.687   4.050  13.240  0.6724  2.1548  2.0001
 5039TIP3    H236609   2.819   3.981  13.267 -0.4833 -1.1520 -0.5274
 5040TIP3   OH236610   4.668   5.506   6.171  0.0343  1.0406  0.0168
 5040TIP3    H136611   4.613   5.525   6.247 -0.1141  1.3421 -0.1625
 5040TIP3    H236612   4.755   5.493   6.208  0.0674  1.7168  0.1887
 5041TIP3   OH236613   5.395   0.304   4.258 -0.0507  0.1467  0.0575
 5041TIP3    H136614   5.466   0.334   4.315 -0.0646  2.1438 -0.9279
 5041TIP3    H236615   5.439   0.259   4.187  0.1857  0.5257 -0.0407
 5042TIP3   OH236616   1.749   6.645   1.507 -0.5971  0.0572 -0.4483
 5042TIP3    H136617   1.667   6.673   1.548 -1.7325 -1.5897 -1.5561
 5042TIP3    H236618   1.813   6.643   1.579 -1.6566  0.7676  0.5261
 5043TIP3   OH236619   4.733   2.608  13.566 -0.3435 -0.1871 -0.0965
 5043TIP3    H136620   4.719   2.549  13.492  0.1830  0.9380 -1.1374
 5043TIP3    H236621   4.814   2.654  13.544  0.0603 -0.1572  1.4135
 5044TIP3   OH236622   5.572   1.532   3.977  0.1291 -0.8556  0.0529
 5044TIP3    H136623   5.495   1.588   3.963  0.0987 -0.4418  1.7830
 5044TIP3    H236624   5.647   1.591   3.969  0.1696 -0.8604  0.3890
 5045TIP3   OH236625   4.991   3.497  15.349 -0.5308 -0.1357 -0.1931
 5045TIP3    H136626   4.900   3.471  15.336 -0.2905 -0.5516 -1.0858
 5045TIP3    H236627   5.001   3.576  15.295 -0.6102  0.4497  0.6388
 5046TIP3   OH236628   3.718   1.288  11.469 -0.6478  0.2997 -0.2919
 5046TIP3    H136629   3.798   1.333  11.443 -0.6082  1.4170  1.6923
 5046TIP3    H236630   3.715   1.210  11.413  1.2976  0.7435 -1.0561
 5047TIP3   OH236631   3.931   4.223   1.984 -0.0093 -0.2625 -0.4889
 5047TIP3    H136632   3.871   4.173   2.040  0.6902 -0.4572  0.0989
 5047TIP3    H236633   3.874   4.262   1.917 -0.7748 -0.5346 -0.0113
 5048TIP3   OH236634   5.613   1.531   6.019 -0.4657  0.7648 -0.2507
 5048TIP3    H136635   5.613   1.594   5.947  0.3139  0.2696 -0.6907
 5048TIP3    H236636   5.622   1.446   5.976 -2.7528  0.2245  0.2512
 5049TIP3   OH236637   1.501   5.917   1.612 -0.0324  0.3699  0.3691
 5049TIP3    H136638   1.419   5.867   1.617  0.1731  0.0131  0.2261
 5049TIP3    H236639   1.501   5.971   1.691 -1.0320  1.3465 -0.2761
 5050TIP3   OH236640   5.120   5.169  13.364 -0.4991  0.1213  0.6045
 5050TIP3    H136641   5.206   5.187  13.402 -0.3123  0.2361  0.1319
 5050TIP3    H236642   5.093   5.086  13.403 -0.2334  0.1491  0.8486
 5051TIP3   OH236643   3.769   2.829  16.191 -0.6278  0.2517  0.2934
 5051TIP3    H136644   3.818   2.765  16.242 -1.5359  0.7711  1.8665
 5051TIP3    H236645   3.725   2.778  16.123 -0.4502 -0.6406  0.8433
 5052TIP3   OH236646   6.075   5.820   5.432  0.5849 -0.2166 -0.1890
 5052TIP3    H136647   6.166   5.824   5.402  0.3934  0.9717 -0.6607
 5052TIP3    H236648   6.030   5.766   5.367  1.3286 -2.3975  1.0743
 5053TIP3   OH236649   2.931   1.255   0.146 -0.5137 -0.3163  0.2883
 5053TIP3    H136650   2.862   1.195   0.174 -0.7044  0.5326  1.6922
 5053TIP3    H236651   2.949   1.309   0.223  1.1707 -0.0043 -0.2994
 5054TIP3   OH236652   2.314   4.677  14.076 -0.0450  0.3145  0.5871
 5054TIP3    H136653   2.395   4.639  14.042 -0.0662  0.0341  0.8432
 5054TIP3    H236654   2.292   4.622  14.151 -1.1512 -0.3791 -0.2381
 5055TIP3   OH236655   4.162   0.403   2.165 -0.3569 -0.0959 -0.5013
 5055TIP3    H136656   4.071   0.430   2.178 -0.5749 -1.5519  1.2082
 5055TIP3    H236657   4.157   0.308   2.155  0.9935 -0.2068 -0.1464
 5056TIP3   OH236658   0.069   5.973  12.634 -1.1134  0.2830 -0.4523
 5056TIP3    H136659   0.081   6.067  12.649 -0.0147  0.2250 -0.9246
 5056TIP3    H236660   0.044   5.939  12.720 -0.6099  0.8661 -0.0702
 5057TIP3   OH236661   5.731   2.447  15.952 -0.7041  0.0015  0.2771
 5057TIP3    H136662   5.668   2.491  16.010 -1.5260 -2.7470  1.5154
 5057TIP3    H236663   5.707   2.355  15.955  1.8946 -0.7728 -1.1713
 5058TIP3   OH236664   6.814   6.196  17.198  0.2651 -0.6108  0.2387
 5058TIP3    H136665   6.801   6.229  17.287 -1.8344 -1.0195  0.1208
 5058TIP3    H236666   6.767   6.259  17.143 -1.0483 -2.0042 -0.2772
 5059TIP3   OH236667   4.421   5.465   3.547 -0.0619 -0.2402 -0.2076
 5059TIP3    H136668   4.464   5.482   3.631 -1.2976 -0.4227  0.4834
 5059TIP3    H236669   4.342   5.416   3.570 -1.2031  1.0192 -1.3379
 5060TIP3   OH236670   2.617   6.111  16.268  0.0989  0.0047 -0.6649
 5060TIP3    H136671   2.656   6.097  16.355  1.6001 -1.6405 -1.5724
 5060TIP3    H236672   2.580   6.027  16.245 -1.4539  0.7911 -1.0970
 5061TIP3   OH236673   5.498   6.437  13.578 -0.0973  0.7810 -0.7319
 5061TIP3    H136674   5.438   6.366  13.556  1.5005 -0.6339 -0.6101
 5061TIP3    H236675   5.444   6.500  13.627 -1.4966 -0.3936 -0.7321
 5062TIP3   OH236676   5.573   4.891  10.404 -0.0707 -0.1192 -0.4832
 5062TIP3    H136677   5.497   4.909  10.350  0.6918  0.7061 -1.2975
 5062TIP3    H236678   5.627   4.832  10.351 -0.8427 -1.9260  0.7050
 5063TIP3   OH236679   1.292   2.260  14.026  0.1293 -0.4270  0.2192
 5063TIP3    H136680   1.273   2.280  14.118 -0.2293  0.1938  0.0141
 5063TIP3    H236681   1.381   2.226  14.027  0.3261  0.0886  0.7353
 5064TIP3   OH236682   6.706   5.347   6.838 -0.0380 -0.2312  0.2435
 5064TIP3    H136683   6.650   5.349   6.760  1.0619  1.8790 -0.5467
 5064TIP3    H236684   6.681   5.427   6.886  0.8866 -0.3287  0.8922
 5065TIP3   OH236685   3.428   0.669  14.682  0.3787  0.0822 -0.5610
 5065TIP3    H136686   3.340   0.646  14.651  1.2800 -1.6351 -1.9178
 5065TIP3    H236687   3.464   0.724  14.612 -0.2948  2.4071  0.8700
 5066TIP3   OH236688   6.176   1.773  15.117 -0.0580 -0.3771 -0.0376
 5066TIP3    H136689   6.229   1.708  15.070 -0.7800 -0.2555 -1.0337
 5066TIP3    H236690   6.123   1.815  15.049 -0.5393  0.3598  0.7773
 5067TIP3   OH236691   5.086   4.726  13.318 -0.0617  0.1402  0.8709
 5067TIP3    H136692   5.044   4.648  13.354  3.1024 -1.2880  1.6336
 5067TIP3    H236693   5.103   4.782  13.393 -0.3658  0.6102  0.5954
 5068TIP3   OH236694   3.618   5.835  14.636  0.7833 -0.0010  0.6800
 5068TIP3    H136695   3.590   5.922  14.665 -0.3971  0.3155 -1.3308
 5068TIP3    H236696   3.691   5.852  14.577 -0.5868 -0.2249 -1.1184
 5069TIP3   OH236697   4.528   5.122   4.560 -0.4286  0.2548  0.0461
 5069TIP3    H136698   4.532   5.204   4.511 -3.2100  0.5797  0.3066
 5069TIP3    H236699   4.456   5.134   4.621  0.3197 -1.7200  1.3429
 5070TIP3   OH236700   3.064   0.755  12.439 -0.0841  0.8068  0.2044
 5070TIP3    H136701   3.054   0.769  12.344  1.4745 -0.3960 -0.1613
 5070TIP3    H236702   2.979   0.777  12.475 -0.4356  2.1673 -1.3794
 5071TIP3   OH236703   1.876   5.711   2.707 -0.0069  0.3896 -0.1340
 5071TIP3    H136704   1.807   5.777   2.712 -1.0899 -0.7111 -0.3110
 5071TIP3    H236705   1.863   5.658   2.786  0.8346  0.3488 -0.0133
 5072TIP3   OH236706   0.861   0.081  15.710  0.3221 -0.0950 -0.3435
 5072TIP3    H136707   0.890   0.013  15.771 -0.2486 -0.9064 -0.9734
 5072TIP3    H236708   0.869   0.162  15.760 -2.9714 -1.0190  1.9059
 5073TIP3   OH236709   0.642   6.022   5.993 -0.2527 -0.1581  0.3064
 5073TIP3    H136710   0.699   6.069   5.932 -1.1006 -1.4414 -1.5379
 5073TIP3    H236711   0.703   5.979   6.054  0.6743  0.1324 -0.4026
 5074TIP3   OH236712   5.999   0.611  14.603 -0.0903  0.0411  0.7266
 5074TIP3    H136713   5.909   0.628  14.629 -0.2542 -0.0983  0.2525
 5074TIP3    H236714   6.018   0.524  14.639 -0.0924  0.1326  0.9532
 5075TIP3   OH236715   2.788   4.387   5.937 -0.5633 -0.6767  0.1905
 5075TIP3    H136716   2.704   4.423   5.909  0.1902  0.6679 -0.3396
 5075TIP3    H236717   2.815   4.330   5.865 -0.8214 -0.7864  0.1799
 5076TIP3   OH236718   4.852   3.257  13.247  0.1784  0.8389  0.3930
 5076TIP3    H136719   4.923   3.211  13.292 -1.2165 -0.8499  0.9342
 5076TIP3    H236720   4.837   3.205  13.167 -0.1546  1.4269  0.0685
 5077TIP3   OH236721   3.662   1.910  14.140  0.3224  0.0030  0.7457
 5077TIP3    H136722   3.580   1.904  14.188  0.2307  0.7766  0.6949
 5077TIP3    H236723   3.642   1.965  14.064  0.7529 -0.2503  0.4469
 5078TIP3   OH236724   0.072   0.272   0.281  0.2433  0.5376 -0.0051
 5078TIP3    H136725   0.060   0.328   0.204  1.8302  1.3392  0.3047
 5078TIP3    H236726  -0.017   0.249   0.309 -0.3359 -0.1004 -2.3119
 5079TIP3   OH236727   6.487   0.700  16.719 -0.0719 -0.1170  0.0566
 5079TIP3    H136728   6.470   0.744  16.636 -0.8307 -0.4728  0.0178
 5079TIP3    H236729   6.539   0.623  16.694  0.9145  0.5408  0.0813
 5080TIP3   OH236730   3.342   2.823   1.912 -0.2736  0.0830 -0.3766
 5080TIP3    H136731   3.396   2.885   1.861 -0.8059  0.9780  0.1402
 5080TIP3    H236732   3.279   2.789   1.848 -1.0179  1.2952 -0.3105
 5081TIP3   OH236733   1.772   4.290  12.631 -0.2095 -0.2288 -0.4108
 5081TIP3    H136734   1.705   4.300  12.564  0.7679  0.2066 -1.3502
 5081TIP3    H236735   1.766   4.199  12.658 -1.6661 -0.0091  0.0499
 5082TIP3   OH236736   6.128   1.341  15.415 -0.1497  0.0500 -0.0032
 5082TIP3    H136737   6.044   1.317  15.454  0.3660  0.6442  1.4995
 5082TIP3    H236738   6.106   1.393  15.339 -1.1407  0.2351  0.4110
 5083TIP3   OH236739   6.395   1.677   2.313 -0.3037 -0.0158 -0.3139
 5083TIP3    H136740   6.342   1.757   2.312  0.5396  0.5464 -1.3779
 5083TIP3    H236741   6.393   1.648   2.404  2.0725  3.0335  0.8025
 5084TIP3   OH236742   5.922   5.404  15.617 -0.0541 -0.0926  0.3802
 5084TIP3    H136743   5.893   5.375  15.530 -0.1742 -0.7235  0.6256
 5084TIP3    H236744   5.846   5.451  15.653  0.7915  2.1995 -0.7737
 5085TIP3   OH236745   0.852   1.256   4.319 -0.1199  0.5256  0.0746
 5085TIP3    H136746   0.817   1.342   4.296 -0.1193  0.3519 -0.6001
 5085TIP3    H236747   0.946   1.271   4.331 -0.3212  0.8707  1.2700
 5086TIP3   OH236748   2.607   1.812   1.384 -0.0896  0.9033 -0.0495
 5086TIP3    H136749   2.607   1.905   1.362  1.3875  0.6387 -1.3103
 5086TIP3    H236750   2.659   1.772   1.314  1.5268 -0.5035  1.9036
 5087TIP3   OH236751   6.711   1.770   0.668  0.2586  0.3893 -0.3048
 5087TIP3    H136752   6.740   1.740   0.754  0.0433 -0.1554 -0.4162
 5087TIP3    H236753   6.784   1.752   0.610 -0.3745 -1.2274 -0.6357
 5088TIP3   OH236754   1.674   0.099  15.203 -0.7469 -0.0590 -0.0584
 5088TIP3    H136755   1.675   0.162  15.275  0.7733  1.4140 -1.3600
 5088TIP3    H236756   1.604   0.037  15.227 -1.7603  1.6755  1.5763
 5089TIP3   OH236757   4.500   3.507  15.495 -0.3959  0.2472  0.5807
 5089TIP3    H136758   4.576   3.448  15.490  0.7939  1.6817  1.3969
 5089TIP3    H236759   4.520   3.565  15.569 -2.2730  0.6798  0.7746
 5090TIP3   OH236760   4.748   4.757   6.509  0.0396  0.0188  0.1985
 5090TIP3    H136761   4.769   4.833   6.564  0.2154 -0.5991  1.0034
 5090TIP3    H236762   4.802   4.687   6.545  0.5284 -0.2718 -1.1005
 5091TIP3   OH236763   1.505   1.467   0.893 -0.6811  0.2162  0.5378
 5091TIP3    H136764   1.456   1.385   0.885 -1.4591  0.6534  0.7878
 5091TIP3    H236765   1.438   1.535   0.894  0.0292  0.9798 -1.3638
 5092TIP3   OH236766   1.998   2.347  12.175  0.5045 -0.5553 -0.2217
 5092TIP3    H136767   2.011   2.423  12.233 -0.4309 -1.1360  0.7730
 5092TIP3    H236768   2.050   2.278  12.216 -1.6388 -1.4870  0.9843
 5093TIP3   OH236769   4.828   4.871  16.808  0.6311 -0.5599 -0.2399
 5093TIP3    H136770   4.875   4.816  16.871 -0.1729 -0.8219  0.1408
 5093TIP3    H236771   4.737   4.870  16.839  0.9665  2.7413  0.9918
 5094TIP3   OH236772   0.978   4.766   2.582  0.1511 -0.3146  0.5811
 5094TIP3    H136773   0.990   4.707   2.656  0.0239  1.0376  1.7035
 5094TIP3    H236774   0.886   4.755   2.557  0.2385 -0.9003  0.5258
 5095TIP3   OH236775   2.928   0.959  15.380  0.0051  0.2800  0.4952
 5095TIP3    H136776   2.872   1.031  15.409 -0.9314 -0.2501  0.0104
 5095TIP3    H236777   2.868   0.894  15.345  0.9186 -0.3330  0.0417
 5096TIP3   OH236778   2.639   6.694  10.919  0.2258 -0.7003 -0.0397
 5096TIP3    H136779   2.561   6.695  10.975  0.0912  0.7120 -0.2408
 5096TIP3    H236780   2.702   6.641  10.967  0.1229  0.5248  1.4833
 5097TIP3   OH236781   4.044   6.614  12.233 -0.5685 -0.1073 -0.2481
 5097TIP3    H136782   4.029   6.551  12.162 -1.1749  0.4859 -0.6560
 5097TIP3    H236783   4.139   6.626  12.235 -0.6703  1.1436 -2.0823
 5098TIP3   OH236784   1.273   4.706   1.224 -0.0483  0.0398  0.1229
 5098TIP3    H136785   1.358   4.748   1.240  0.2434 -0.7288  0.5756
 5098TIP3    H236786   1.288   4.614   1.243 -1.0758 -0.0417  0.5430
 5099TIP3   OH236787   1.925   4.565  14.078 -0.2114  0.7481  0.0771
 5099TIP3    H136788   1.949   4.488  14.027 -2.3833  0.1801 -0.1374
 5099TIP3    H236789   1.902   4.631  14.013 -1.4492  0.5365  0.2889
 5100TIP3   OH236790   2.706   4.616   3.526 -0.4671  0.5183  0.8059
 5100TIP3    H136791   2.653   4.596   3.604 -0.0370  0.9203  1.2055
 5100TIP3    H236792   2.649   4.672   3.473 -1.1807 -0.6667  0.2994
 5101TIP3   OH236793   1.152   5.363  11.288  0.2970  0.6575  0.0362
 5101TIP3    H136794   1.205   5.442  11.278  0.5545  0.3585 -1.0223
 5101TIP3    H236795   1.182   5.305  11.218 -1.1410  0.3288 -0.3185
 5102TIP3   OH236796   6.541   4.749  12.307  0.0528  1.0803  0.1544
 5102TIP3    H136797   6.513   4.839  12.289 -1.9598  0.7149  1.2768
 5102TIP3    H236798   6.459   4.699  12.307  1.0722 -0.5984  0.4345
 5103TIP3   OH236799   4.532   4.144  14.541  0.1609  0.1467  0.0010
 5103TIP3    H136800   4.606   4.165  14.598 -0.1508  0.7687  0.1741
 5103TIP3    H236801   4.496   4.229  14.515  0.1873 -0.1284 -0.9777
 5104TIP3   OH236802   6.653   0.496  14.303  0.1258  0.1743  0.3815
 5104TIP3    H136803   6.681   0.463  14.218 -1.8517 -0.1284 -0.1763
 5104TIP3    H236804   6.630   0.418  14.354  1.8456  0.3161  1.4138
 5105TIP3   OH236805   3.295   3.507   5.543 -0.1021  0.3015  0.0084
 5105TIP3    H136806   3.281   3.427   5.593  1.7136  0.4309  0.7340
 5105TIP3    H236807   3.293   3.577   5.609 -1.3531  0.8540 -0.5784
 5106TIP3   OH236808   4.835   0.915  12.715 -0.0012 -0.0554  0.3862
 5106TIP3    H136809   4.823   0.827  12.750 -0.8166  0.2648  0.9188
 5106TIP3    H236810   4.773   0.921  12.642 -0.8700  0.5230  1.1679
 5107TIP3   OH236811   6.405   4.261  13.515 -0.5630 -0.1382 -0.1110
 5107TIP3    H136812   6.463   4.320  13.562 -2.9078  0.3760  2.3072
 5107TIP3    H236813   6.462   4.193  13.480  1.9068  2.3360 -1.0357
 5108TIP3   OH236814   3.177   2.249   1.356  0.2350  0.1986  0.1525
 5108TIP3    H136815   3.107   2.218   1.412 -1.6036  1.5006 -1.3733
 5108TIP3    H236816   3.186   2.181   1.289  0.1363  0.2332  0.1041
 5109TIP3   OH236817   1.413   0.447   0.693 -0.1610  0.0080 -0.1647
 5109TIP3    H136818   1.390   0.533   0.730 -0.4222 -0.4240  0.6925
 5109TIP3    H236819   1.458   0.467   0.611  0.4529  0.9859  0.4041
 5110TIP3   OH236820   2.963   1.313  13.899 -0.2760  0.2396  0.1517
 5110TIP3    H136821   2.880   1.277  13.867  1.0243 -1.4228 -1.4582
 5110TIP3    H236822   2.981   1.264  13.979  0.6546 -1.6134 -1.1503
 5111TIP3   OH236823   1.082   0.338   4.458 -0.1334 -0.2667 -0.0931
 5111TIP3    H136824   1.000   0.333   4.410 -0.3756 -1.0441  0.4043
 5111TIP3    H236825   1.096   0.432   4.472 -0.1631 -0.0405 -1.5023
 5112TIP3   OH236826   5.936   0.284  17.186 -0.6826  0.1072 -0.7918
 5112TIP3    H136827   5.937   0.376  17.161 -0.6205  0.4375  0.3986
 5112TIP3    H236828   5.857   0.274  17.238  1.8836  0.7214  3.4744
 5113TIP3   OH236829   5.600   0.450  11.971 -0.2308 -0.6365  0.5616
 5113TIP3    H136830   5.675   0.501  11.941 -1.1204 -0.9188 -2.3804
 5113TIP3    H236831   5.527   0.512  11.972 -0.7958 -1.2473 -0.6562
 5114TIP3   OH236832   3.941   1.721   2.669  0.2007  0.0280  0.4135
 5114TIP3    H136833   3.881   1.764   2.730 -1.4005  0.4735 -1.4115
 5114TIP3    H236834   3.891   1.645   2.637  1.4251 -0.8029  0.4393
 5115TIP3   OH236835   0.154   6.494   1.611 -0.3564  0.4234  0.3336
 5115TIP3    H136836   0.160   6.568   1.671 -1.6532 -0.8007  2.0192
 5115TIP3    H236837   0.060   6.484   1.595 -0.0926  0.0632 -1.0773
 5116TIP3   OH236838   0.092   1.830   1.943  0.7641  0.2177  0.3560
 5116TIP3    H136839   0.006   1.858   1.910  2.0157  0.8654 -2.4300
 5116TIP3    H236840   0.089   1.734   1.938  0.4427  0.2632 -0.3559
 5117TIP3   OH236841   3.574   4.888  13.758 -0.1132 -0.2181 -0.1529
 5117TIP3    H136842   3.612   4.975  13.746  1.0019 -0.6455  0.1816
 5117TIP3    H236843   3.591   4.844  13.674 -0.6286 -0.1305 -0.3036
 5118TIP3   OH236844   3.478   6.109  13.258  1.1906 -0.0685 -0.1992
 5118TIP3    H136845   3.421   6.089  13.183  0.5517  0.7489  0.0719
 5118TIP3    H236846   3.478   6.204  13.264  1.9660 -0.0934  0.2948
 5119TIP3   OH236847   1.185   3.578  16.455  0.0060  0.0066  0.1433
 5119TIP3    H136848   1.278   3.586  16.434 -0.1910 -0.4473 -0.9362
 5119TIP3    H236849   1.149   3.666  16.440 -0.2236 -0.4142 -1.9562
 5120TIP3   OH236850   5.861   6.152   2.885  0.3807 -0.1963  0.4484
 5120TIP3    H136851   5.800   6.110   2.946  1.7673 -0.4528  1.6579
 5120TIP3    H236852   5.871   6.241   2.918 -0.6275  0.3829 -0.7222
 5121TIP3   OH236853   5.295   3.667  12.727 -0.3678  0.4907 -0.0115
 5121TIP3    H136854   5.350   3.680  12.805  0.3630 -1.1562 -0.2292
 5121TIP3    H236855   5.292   3.753  12.686  1.1856  0.8471  0.5793
 5122TIP3   OH236856   2.740   3.372   2.010 -0.2128  0.9537 -0.3434
 5122TIP3    H136857   2.791   3.413   1.940  1.2013  1.4525  0.9275
 5122TIP3    H236858   2.656   3.419   2.009  0.7188  2.6778 -0.0845
 5123TIP3   OH236859   4.734   5.084   3.298 -0.4650 -0.2900  0.0340
 5123TIP3    H136860   4.704   5.158   3.352  0.0695  0.9623 -1.3464
 5123TIP3    H236861   4.718   5.007   3.352  0.7810  1.0006  2.3276
 5124TIP3   OH236862   0.149   2.856   6.340  0.0494  0.0914  0.2986
 5124TIP3    H136863   0.140   2.941   6.382 -0.5960  0.1730  0.0058
 5124TIP3    H236864   0.068   2.845   6.291  0.4712 -0.3365 -0.3134
 5125TIP3   OH236865   2.649   4.483   1.268  0.3185  0.1028 -0.3532
 5125TIP3    H136866   2.701   4.527   1.335  1.6201 -2.6096  0.5348
 5125TIP3    H236867   2.558   4.499   1.293  0.7656  2.0446  0.0536
 5126TIP3   OH236868   3.176   0.894   5.054 -0.3090 -0.8327 -0.0061
 5126TIP3    H136869   3.123   0.820   5.083 -0.3329 -0.0822  1.9374
 5126TIP3    H236870   3.205   0.936   5.135  0.1350  0.9837 -1.0761
 5127TIP3   OH236871   1.400   3.796   2.112  0.0937 -0.0029 -0.3364
 5127TIP3    H136872   1.481   3.844   2.096  0.7836 -1.3011 -0.7974
 5127TIP3    H236873   1.331   3.855   2.081  0.7479  1.6248  1.1851
 5128TIP3   OH236874   1.875   3.139  17.032  0.1804  0.1854  0.3368
 5128TIP3    H136875   1.892   3.203  16.964  1.1471  0.0448  0.4341
 5128TIP3    H236876   1.899   3.184  17.114 -1.7464  0.6383  0.6767
 5129TIP3   OH236877   3.983   3.085  16.941  0.2960  0.0667  0.0271
 5129TIP3    H136878   3.948   3.000  16.913  0.6948  0.0674 -0.4807
 5129TIP3    H236879   4.078   3.073  16.940  0.3489  0.5026  0.0198
 5130TIP3   OH236880   6.598   2.189  16.274 -0.0335 -0.0058 -0.6882
 5130TIP3    H136881   6.671   2.180  16.212  0.2294 -1.4326 -0.1790
 5130TIP3    H236882   6.520   2.174  16.222  0.0871  0.4281 -1.0023
 5131TIP3   OH236883   3.969   3.967  12.372 -0.4330  0.6098 -0.6835
 5131TIP3    H136884   4.053   3.926  12.390 -0.6989  0.1721 -0.4206
 5131TIP3    H236885   3.906   3.919  12.427 -0.4856  2.4825  0.9922
 5132TIP3   OH236886   4.189   0.219   0.964 -0.4027  0.0287  0.5296
 5132TIP3    H136887   4.113   0.264   0.929  1.7021  2.0407 -1.6899
 5132TIP3    H236888   4.208   0.262   1.047 -1.7957 -0.6497  1.2079
 5133TIP3   OH236889   3.399   2.170  11.246 -0.3410  0.1439  0.0293
 5133TIP3    H136890   3.397   2.214  11.161 -0.4640 -1.2898 -0.7269
 5133TIP3    H236891   3.317   2.197  11.289 -0.6075  0.3194 -0.5906
 5134TIP3   OH236892   3.498   3.603   2.071  0.1073  0.0319 -0.3222
 5134TIP3    H136893   3.436   3.662   2.114 -0.6942 -1.5390  0.7402
 5134TIP3    H236894   3.462   3.589   1.983 -0.4968 -0.0666 -0.0571
 5135TIP3   OH236895   4.150   1.390   1.829 -0.2649 -0.0103  0.3610
 5135TIP3    H136896   4.072   1.361   1.782 -0.9644  2.7487 -0.2618
 5135TIP3    H236897   4.204   1.311   1.836 -2.4178 -1.6229 -0.5379
 5136TIP3   OH236898   0.054   6.340   3.591 -0.2489 -0.3357 -0.3687
 5136TIP3    H136899  -0.033   6.347   3.631  0.6720 -1.7192  1.9733
 5136TIP3    H236900   0.106   6.407   3.635 -0.1784  0.7573 -2.0457
 5137TIP3   OH236901   5.420   1.823  17.111 -0.2804 -0.0777  0.2663
 5137TIP3    H136902   5.482   1.752  17.097 -1.2427 -0.8746  0.0450
 5137TIP3    H236903   5.476   1.900  17.126  0.7638 -0.6308 -0.6774
 5138TIP3   OH236904   3.386   6.332  14.696  0.3634 -0.3688  0.8143
 5138TIP3    H136905   3.439   6.368  14.625  0.6938 -1.4089  0.5249
 5138TIP3    H236906   3.327   6.270  14.652 -0.4292  0.0577  1.2622
 5139TIP3   OH236907   3.371   2.294  17.149  0.2555  0.1144 -0.1634
 5139TIP3    H136908   3.414   2.230  17.093  2.7263  1.0711  0.5914
 5139TIP3    H236909   3.356   2.370  17.093 -0.8944 -0.3841 -0.5452
 5140TIP3   OH236910   1.937   6.787  12.131 -0.6239 -0.1001 -0.0708
 5140TIP3    H136911   1.874   6.747  12.071 -1.4403 -1.2944  1.5407
 5140TIP3    H236912   1.883   6.838  12.192 -0.0448 -1.0669  1.2699
 5141TIP3   OH236913   6.613   6.564   1.218 -0.1890 -0.7443 -0.1403
 5141TIP3    H136914   6.549   6.581   1.286 -0.4384 -2.5993  0.1311
 5141TIP3    H236915   6.564   6.517   1.150  0.6262 -1.2563 -0.3917
 5142TIP3   OH236916   2.169   3.139  15.311 -0.2295  0.5779 -0.6871
 5142TIP3    H136917   2.254   3.099  15.294  0.5099  2.2129 -0.9538
 5142TIP3    H236918   2.132   3.156  15.225  0.6830  2.9778 -0.6217
 5143TIP3   OH236919   0.732   3.537  12.452  0.0741 -0.2290 -0.2522
 5143TIP3    H136920   0.821   3.572  12.444  0.8208 -1.7279  1.0886
 5143TIP3    H236921   0.698   3.579  12.531  0.2391 -0.9849  0.2232
 5144TIP3   OH236922   0.229   1.829  13.975 -0.3225 -0.3432  0.2319
 5144TIP3    H136923   0.198   1.776  14.048 -1.9834  0.3121  0.0325
 5144TIP3    H236924   0.252   1.766  13.907 -0.6337 -0.8816  0.6281
 5145TIP3   OH236925   1.733   0.076  16.724 -0.2770 -0.2075 -0.0505
 5145TIP3    H136926   1.816   0.073  16.771 -0.2814 -0.0199 -0.0319
 5145TIP3    H236927   1.740   0.006  16.659  0.5995  0.9294 -1.2016
 5146TIP3   OH236928   2.967   3.356   0.469  0.8353  0.0900 -0.3352
 5146TIP3    H136929   2.944   3.434   0.418  1.0832 -0.9347 -2.0506
 5146TIP3    H236930   2.894   3.344   0.529 -0.2171  0.3979 -1.5433
 5147TIP3   OH236931   1.813   2.458   4.339 -0.2706  0.2846 -0.6621
 5147TIP3    H136932   1.828   2.417   4.424  0.6906 -1.2032 -1.5072
 5147TIP3    H236933   1.747   2.525   4.355 -3.0294 -2.5629  0.5394
 5148TIP3   OH236934   4.184   2.096   4.698  0.0176 -0.1027 -0.8321
 5148TIP3    H136935   4.126   2.038   4.747  1.6952 -1.9427 -0.9875
 5148TIP3    H236936   4.141   2.107   4.613 -0.1866 -1.2983 -0.8837
 5149TIP3   OH236937   5.050   2.806   2.650  0.4850 -0.2935 -0.6869
 5149TIP3    H136938   4.976   2.795   2.710  0.1551 -0.2017 -1.0715
 5149TIP3    H236939   5.011   2.803   2.563  0.9031  0.0051 -0.8892
 5150TIP3   OH236940   1.631   3.602  14.328  0.0068  0.3090 -0.6971
 5150TIP3    H136941   1.634   3.694  14.352 -1.1440  0.0911  0.3029
 5150TIP3    H236942   1.662   3.600  14.237 -0.2174  1.6972 -0.8066
 5151TIP3   OH236943   1.724   2.551   4.733  0.1428 -0.0852 -0.2249
 5151TIP3    H136944   1.716   2.456   4.737 -0.0063 -0.0847 -0.4830
 5151TIP3    H236945   1.651   2.579   4.678 -0.0254  0.2105  0.1472
 5152TIP3   OH236946   4.361   1.257  10.657 -0.2325  0.0798  0.2392
 5152TIP3    H136947   4.440   1.278  10.607 -0.2784  0.5950  0.3801
 5152TIP3    H236948   4.308   1.206  10.596  0.7962 -1.4201  0.5922
 5153TIP3   OH236949   2.722   0.073  15.086  0.1227 -0.0985  0.2916
 5153TIP3    H136950   2.744   0.166  15.092  1.4177 -0.3408 -0.4752
 5153TIP3    H236951   2.789   0.029  15.138 -0.4477 -0.6155  0.5986
 5154TIP3   OH236952   2.910   1.579  16.467  0.3116  0.3765 -0.2255
 5154TIP3    H136953   2.970   1.563  16.394  1.3523  0.1621  0.6679
 5154TIP3    H236954   2.845   1.508  16.461  0.8234 -0.0685 -0.5016
 5155TIP3   OH236955   3.017   2.704   0.069  0.6930  0.1594 -0.0560
 5155TIP3    H136956   2.944   2.648   0.095  1.1591  0.5733  2.2215
 5155TIP3    H236957   3.091   2.673   0.122  0.8931  3.0440  1.4081
 5156TIP3   OH236958   5.602   1.123   6.606  0.0394 -0.4052 -0.3012
 5156TIP3    H136959   5.567   1.057   6.545 -2.3667 -0.7556  1.3683
 5156TIP3    H236960   5.639   1.071   6.678 -0.7924  0.0341  0.4506
 5157TIP3   OH236961   6.310   5.507  12.986  0.4199  0.0692  0.8064
 5157TIP3    H136962   6.405   5.504  12.981  0.3774 -0.4992  0.3431
 5157TIP3    H236963   6.290   5.599  13.001  0.9602  0.4739 -0.8730
 5158TIP3   OH236964   6.578   2.848   5.220 -0.6204 -0.2544 -0.1358
 5158TIP3    H136965   6.528   2.767   5.228  1.5802 -1.5885  0.8792
 5158TIP3    H236966   6.646   2.828   5.156  0.2183  0.6262  0.4510
 5159TIP3   OH236967   0.294   2.481  12.264  0.4179  0.2971  0.2522
 5159TIP3    H136968   0.275   2.473  12.357 -0.6879  0.2988  0.0335
 5159TIP3    H236969   0.313   2.392  12.235 -1.1262  0.0024  0.0918
 5160TIP3   OH236970   6.630   1.174   3.520 -0.5551 -0.0877 -0.2465
 5160TIP3    H136971   6.697   1.242   3.527 -1.1513  0.6865 -1.7409
 5160TIP3    H236972   6.553   1.220   3.487 -0.8287 -1.5815 -1.7761
 5161TIP3   OH236973   1.854   1.065  16.653  0.0387 -0.4395  0.2611
 5161TIP3    H136974   1.904   1.018  16.586 -0.7393 -0.6518 -0.1794
 5161TIP3    H236975   1.818   0.996  16.709  1.8087 -0.2184  1.7380
 5162TIP3   OH236976   2.772   3.710  11.467  0.0798  0.4670  0.5957
 5162TIP3    H136977   2.819   3.632  11.495  0.1960  1.3032  2.8083
 5162TIP3    H236978   2.784   3.773  11.538  0.0202  2.5264 -1.1418
 5163TIP3   OH236979   2.707   6.367   0.467 -0.8440  0.4576 -0.0776
 5163TIP3    H136980   2.665   6.281   0.471  1.0420 -0.5044 -0.1655
 5163TIP3    H236981   2.800   6.348   0.450 -0.0919  2.4351  1.5483
 5164TIP3   OH236982   4.375   3.346  15.881  0.7862  0.0271  0.3483
 5164TIP3    H136983   4.402   3.312  15.966  1.5432 -2.8706 -0.9795
 5164TIP3    H236984   4.456   3.379  15.842  0.3650  1.7550  0.9020
 5165TIP3   OH236985   3.254   1.099   5.227 -0.7224  0.0990  0.3804
 5165TIP3    H136986   3.324   1.161   5.209  0.3538 -0.7299  1.5417
 5165TIP3    H236987   3.185   1.151   5.266  0.4505  0.4906  1.9972
 5166TIP3   OH236988   6.780   4.784   0.452 -0.7816 -0.0893 -0.3156
 5166TIP3    H136989   6.817   4.697   0.441  0.3726  0.3222  0.2787
 5166TIP3    H236990   6.805   4.830   0.372 -0.0563  0.1688  0.0575
 5167TIP3   OH236991   4.627   2.038   1.728 -0.0040  0.9225 -0.9785
 5167TIP3    H136992   4.686   1.980   1.776  0.0862  0.5453 -1.5332
 5167TIP3    H236993   4.606   2.108   1.790  0.7848  0.8992 -0.6787
 5168TIP3   OH236994   3.217   5.091  16.795 -0.1247 -0.5726 -0.4676
 5168TIP3    H136995   3.166   5.172  16.791 -0.4085 -0.7479 -0.3832
 5168TIP3    H236996   3.222   5.070  16.888  2.2791  0.8264 -0.2521
 5169TIP3   OH236997   1.376   6.378   4.326 -0.2919  0.6398  0.2601
 5169TIP3    H136998   1.467   6.378   4.354 -0.3669 -1.6507  0.6185
 5169TIP3    H236999   1.381   6.388   4.231  0.2533  2.1473  0.4432
 5170TIP3   OH237000   0.820   2.342  12.909 -0.7363  0.3518 -0.1436
 5170TIP3    H137001   0.825   2.397  12.830  2.0915  1.2493  0.6372
 5170TIP3    H237002   0.757   2.274  12.885 -1.0611  1.4556 -2.6630
 5171TIP3   OH237003   1.378   6.105  13.222  0.4421 -0.1176 -0.3090
 5171TIP3    H137004   1.432   6.038  13.264  0.2091 -0.6252 -0.8041
 5171TIP3    H237005   1.399   6.098  13.128  3.4908  3.2918 -0.0089
 5172TIP3   OH237006   0.574   2.223  13.419 -0.1805 -0.2375 -0.0349
 5172TIP3    H137007   0.561   2.312  13.450  1.5524  0.4473 -1.2064
 5172TIP3    H237008   0.662   2.200  13.447  0.1478 -0.8332 -1.5200
 5173TIP3   OH237009   0.634   1.185   5.763 -0.2504 -0.4600 -0.2486
 5173TIP3    H137010   0.552   1.227   5.787 -0.1606 -0.7632  0.5997
 5173TIP3    H237011   0.626   1.096   5.797  1.0922 -0.0164  1.2902
 5174TIP3   OH237012   3.128   5.229   0.774 -0.0938  0.5978 -0.0855
 5174TIP3    H137013   3.171   5.177   0.842 -0.8841 -2.3204 -1.6859
 5174TIP3    H237014   3.198   5.254   0.715  0.2234  0.7907  0.3780
 5175TIP3   OH237015   4.060   0.282  13.746  0.5078 -0.0294 -0.2447
 5175TIP3    H137016   4.069   0.363  13.696 -1.3337  0.9742  0.9867
 5175TIP3    H237017   4.047   0.214  13.679  1.5455  0.7582 -1.2568
 5176TIP3   OH237018   0.518   2.945  13.560  0.2651 -0.3070  0.1414
 5176TIP3    H137019   0.528   2.892  13.639 -1.7954 -2.2814 -0.8521
 5176TIP3    H237020   0.574   2.901  13.495 -0.3350 -0.4278 -0.2956
 5177TIP3   OH237021   2.663   3.285   0.170  0.5535 -0.1185 -0.4715
 5177TIP3    H137022   2.669   3.236   0.088 -1.5527 -0.7744 -0.2625
 5177TIP3    H237023   2.733   3.350   0.165  1.5680 -1.3095 -1.9983
 5178TIP3   OH237024   0.417   0.349   2.256  0.5401 -0.9768  0.1523
 5178TIP3    H137025   0.341   0.332   2.201 -0.8099 -0.0188  1.6777
 5178TIP3    H237026   0.430   0.268   2.306 -2.2337  0.2630  3.0867
 5179TIP3   OH237027   6.367   6.428  16.511 -0.1955 -0.2522 -0.2632
 5179TIP3    H137028   6.324   6.469  16.436  0.4586 -0.9372 -1.0363
 5179TIP3    H237029   6.368   6.334  16.489  0.0025 -0.4585  0.6079
 5180TIP3   OH237030   0.554   0.811   5.726  0.3912 -0.2570  0.4848
 5180TIP3    H137031   0.609   0.774   5.657 -0.0349 -0.4976  0.2724
 5180TIP3    H237032   0.583   0.767   5.806 -0.5125 -1.4977  0.1502
 5181TIP3   OH237033   6.493   1.131  12.751  0.0404 -0.5121 -0.7761
 5181TIP3    H137034   6.551   1.169  12.684  1.2381 -1.6561 -0.4205
 5181TIP3    H237035   6.411   1.116  12.705 -0.0225  1.2179 -1.2766
 5182TIP3   OH237036   5.928   3.653  12.277 -0.1339 -0.3458 -0.0877
 5182TIP3    H137037   5.923   3.692  12.364  2.1234 -0.8952  0.3137
 5182TIP3    H237038   5.973   3.718  12.223  1.4681 -1.3617 -0.0057
 5183TIP3   OH237039   3.227   2.079   1.153 -0.2734 -0.1308 -0.4652
 5183TIP3    H137040   3.317   2.069   1.184 -0.4430  0.9125  0.3736
 5183TIP3    H237041   3.192   1.990   1.154  0.3724 -0.3832  0.3788
 5184TIP3   OH237042   3.186   2.537   2.280  0.5699 -0.2340  0.2726
 5184TIP3    H137043   3.177   2.557   2.187  2.1267  0.6715  0.3028
 5184TIP3    H237044   3.151   2.614   2.324 -1.2133 -1.1313  0.4611
 5185TIP3   OH237045   3.383   4.932   1.211 -0.5346 -0.2546  0.3623
 5185TIP3    H137046   3.289   4.916   1.214 -0.6067  0.1210  0.0176
 5185TIP3    H237047   3.416   4.869   1.146 -0.2901 -1.6618  1.8122
 5186TIP3   OH237048   1.334   1.631  15.909  0.4623  0.2423 -0.2436
 5186TIP3    H137049   1.413   1.667  15.949 -0.8544  2.7482  0.1709
 5186TIP3    H237050   1.346   1.645  15.815  1.8945 -2.2764 -0.4756
 5187TIP3   OH237051   5.258   4.319   4.285 -0.1036 -0.4648  0.0772
 5187TIP3    H137052   5.316   4.356   4.220  1.4453 -1.0588  1.0818
 5187TIP3    H237053   5.178   4.296   4.237  0.8066 -0.4056 -1.4790
 5188TIP3   OH237054   6.435   4.731   4.372 -0.0296 -0.8402 -0.1269
 5188TIP3    H137055   6.485   4.781   4.436 -1.3957  0.3629  0.0091
 5188TIP3    H237056   6.500   4.671   4.333  1.5676  0.8694 -0.1538
 5189TIP3   OH237057   0.322   2.141  13.470  0.0902  0.1152 -0.6695
 5189TIP3    H137058   0.405   2.165  13.427 -0.0309 -0.7944 -1.4107
 5189TIP3    H237059   0.255   2.177  13.412 -0.0349  2.0829  0.6496
 5190TIP3   OH237060   5.845   2.598  12.646 -0.2028 -0.2120  0.5935
 5190TIP3    H137061   5.848   2.592  12.551  1.0201 -0.4351  0.6442
 5190TIP3    H237062   5.754   2.578  12.668 -0.8888  1.4340 -0.6298
 5191TIP3   OH237063   1.943   2.168  11.313 -0.3002 -1.0247  0.5769
 5191TIP3    H137064   1.986   2.196  11.394  0.6937 -1.5957  0.2554
 5191TIP3    H237065   2.003   2.196  11.243 -0.6905 -1.3943  0.0931
 5192TIP3   OH237066   1.635   3.265   3.276 -0.1411  0.2542 -0.1405
 5192TIP3    H137067   1.672   3.297   3.194 -0.9122  1.8611  0.1117
 5192TIP3    H237068   1.553   3.224   3.251  1.2065 -2.2531 -0.5568
 5193TIP3   OH237069   5.952   4.821  10.407  0.4066 -0.0513 -0.1107
 5193TIP3    H137070   5.901   4.878  10.464 -1.3438 -0.4595 -1.2521
 5193TIP3    H237071   6.040   4.860  10.407 -1.0514  3.3703 -1.8567
 5194TIP3   OH237072   1.740   6.439   5.598  0.1838 -0.4851 -0.3039
 5194TIP3    H137073   1.665   6.497   5.587  0.4054  0.0330  0.8097
 5194TIP3    H237074   1.813   6.487   5.558 -0.0776 -0.9926 -1.3926
 5195TIP3   OH237075   4.073   5.736  16.743  0.2296 -0.1642 -0.4233
 5195TIP3    H137076   4.095   5.688  16.823  1.7572  2.4526  0.8106
 5195TIP3    H237077   4.149   5.725  16.686  0.3423  0.2968 -0.3652
 5196TIP3   OH237078   0.411   3.499   3.992  0.6181 -0.0316 -0.1024
 5196TIP3    H137079   0.477   3.530   4.053 -0.1795 -1.2575  1.4090
 5196TIP3    H237080   0.428   3.406   3.982  0.8043  0.1709 -1.8539
 5197TIP3   OH237081   1.530   2.023  13.258 -0.6874 -0.5001  0.4472
 5197TIP3    H137082   1.568   1.963  13.194  1.0394  1.1684 -0.1511
 5197TIP3    H237083   1.580   2.008  13.338 -0.6665 -0.2963  0.4738
 5198TIP3   OH237084   2.808   1.529  15.970  0.0885  0.3674  0.5313
 5198TIP3    H137085   2.760   1.607  15.997  0.0666  0.3576  0.5200
 5198TIP3    H237086   2.741   1.464  15.952  0.1179  0.2521  0.8322
 5199TIP3   OH237087   2.045   4.365   4.940  0.3289 -0.1045 -0.0181
 5199TIP3    H137088   2.119   4.318   4.903 -0.6933 -2.1785  0.4790
 5199TIP3    H237089   2.079   4.451   4.962  2.4514 -0.8595 -0.2662
 5200TIP3   OH237090   6.713   3.679  11.593 -0.1916 -0.4207 -0.3992
 5200TIP3    H137091   6.770   3.691  11.669 -1.2392 -2.0293  0.6790
 5200TIP3    H237092   6.760   3.720  11.521  0.4006  1.9982  1.2967
 5201TIP3   OH237093   4.303   2.074  15.213 -0.4635  0.3998 -0.0086
 5201TIP3    H137094   4.232   2.117  15.166  0.5076 -0.2102 -2.0638
 5201TIP3    H237095   4.368   2.143  15.226 -1.0525  0.7550  1.1498
 5202TIP3   OH237096   6.576   1.594  13.722  0.3106 -0.1497 -0.3444
 5202TIP3    H137097   6.559   1.665  13.785 -0.1743  0.2341 -0.9000
 5202TIP3    H237098   6.626   1.529  13.772  1.5057  0.9638 -0.0522
 5203TIP3   OH237099   0.949   4.330  14.049 -0.1416  0.1893 -0.6105
 5203TIP3    H137100   0.932   4.369  14.135 -0.2283  0.4422 -0.7392
 5203TIP3    H237101   1.037   4.293  14.056 -0.1788  0.1425 -0.3881
 5204TIP3   OH237102   4.673   0.554   5.262 -0.3085  0.4165  0.0948
 5204TIP3    H137103   4.675   0.507   5.180 -0.7395 -0.3942  0.5494
 5204TIP3    H237104   4.582   0.582   5.273 -0.4865 -0.4511  0.8467
 5205TIP3   OH237105   2.572   5.754   4.024 -0.2758  0.0418  0.4386
 5205TIP3    H137106   2.563   5.664   3.994  0.8028 -0.0299  0.3061
 5205TIP3    H237107   2.651   5.753   4.078  0.2101  1.0772 -0.2376
 5206TIP3   OH237108   4.129   1.278  13.569 -0.0044 -0.3112 -0.9382
 5206TIP3    H137109   4.130   1.217  13.642 -1.4679 -1.4973 -1.8916
 5206TIP3    H237110   4.113   1.364  13.609 -3.3254 -1.2721 -0.0548
 5207TIP3   OH237111   0.944   5.221  17.145  0.3571  0.1185  0.3549
 5207TIP3    H137112   0.943   5.131  17.113  1.0715  0.8968 -2.0414
 5207TIP3    H237113   1.035   5.236  17.172  0.3889  0.3058  0.1491
 5208TIP3   OH237114   3.639   3.796   1.651  0.7015 -0.2276  0.2773
 5208TIP3    H137115   3.630   3.842   1.734  1.0036  0.5186 -0.0999
 5208TIP3    H237116   3.729   3.765   1.651  1.0259  0.6940 -0.2366
 5209TIP3   OH237117   6.735   3.037  17.115 -0.1214 -0.0948  0.1850
 5209TIP3    H137118   6.816   3.056  17.069  1.1881 -0.3208  2.3232
 5209TIP3    H237119   6.695   2.966  17.065  2.4970 -2.0574  0.7479
 5210TIP3   OH237120   3.959   1.622  13.488  0.4154 -0.0539  0.4678
 5210TIP3    H137121   4.049   1.655  13.482  0.9138 -1.7290 -2.1437
 5210TIP3    H237122   3.944   1.608  13.582  1.9133  2.7721  1.1621
 5211TIP3   OH237123   3.754   0.705  13.248  0.2885  0.2345 -0.0434
 5211TIP3    H137124   3.822   0.749  13.197 -1.5432  1.9287 -1.1093
 5211TIP3    H237125   3.677   0.762  13.239 -1.5653 -2.1452  0.2760
 5212TIP3   OH237126   5.210   5.622   1.154  0.0559  0.3477  0.2140
 5212TIP3    H137127   5.247   5.607   1.066  0.3507 -1.0444  0.5584
 5212TIP3    H237128   5.177   5.711   1.151  2.3698  1.2277 -0.5061
 5213TIP3   OH237129   1.282   1.918   3.488  0.2916 -0.5439 -0.3707
 5213TIP3    H137130   1.203   1.946   3.443 -0.0888 -0.8562  0.0986
 5213TIP3    H237131   1.337   1.996   3.491 -0.8852  0.2415  1.1780
 5214TIP3   OH237132   0.945   0.625  12.111 -0.4623 -0.2250 -0.4751
 5214TIP3    H137133   0.891   0.646  12.034 -0.7366 -1.0635 -0.5132
 5214TIP3    H237134   1.035   0.641  12.083 -0.6590  0.8290 -0.5273
 5215TIP3   OH237135   3.797   5.326   3.313  0.2153 -0.0315 -0.3134
 5215TIP3    H137136   3.877   5.322   3.365  1.3949 -0.4017 -2.1134
 5215TIP3    H237137   3.737   5.380   3.365  1.7913  0.6613  0.8215
 5216TIP3   OH237138   5.989   6.753   1.361 -0.2984 -0.2332 -0.3612
 5216TIP3    H137139   6.063   6.726   1.307 -0.3751 -0.2467 -0.4622
 5216TIP3    H237140   5.952   6.829   1.314 -1.4259 -1.3135 -1.2771
 5217TIP3   OH237141   6.224   4.127  15.570  0.5705 -0.0517  0.6954
 5217TIP3    H137142   6.243   4.208  15.616  0.7049  1.0881 -1.3088
 5217TIP3    H237143   6.132   4.109  15.590  0.3474  0.9602  0.6044
 5218TIP3   OH237144   4.426   2.606  15.965  0.2860  0.1460  0.1057
 5218TIP3    H137145   4.480   2.550  15.909 -1.4902 -0.3595 -1.1510
 5218TIP3    H237146   4.353   2.550  15.991 -1.1659  1.6601 -0.6163
 5219TIP3   OH237147   5.693   4.444   5.194  0.1445  0.4743 -0.0979
 5219TIP3    H137148   5.747   4.472   5.268 -0.3843 -0.4639  0.6637
 5219TIP3    H237149   5.754   4.428   5.123  0.6681  1.2944  0.1574
 5220TIP3   OH237150   2.863   2.858  15.820  0.3157 -0.2805 -0.0311
 5220TIP3    H137151   2.872   2.781  15.877 -0.6779  0.0004  0.5066
 5220TIP3    H237152   2.780   2.844  15.774  0.3071  0.3017 -0.1882
 5221TIP3   OH237153   3.814   1.620   5.346 -0.5805 -0.5429 -0.0371
 5221TIP3    H137154   3.792   1.573   5.427  0.7856 -0.7828  0.1994
 5221TIP3    H237155   3.898   1.583   5.318 -0.7582 -0.0653 -1.2642
 5222TIP3   OH237156   5.864   4.606   5.356 -0.0846  0.0980  0.1374
 5222TIP3    H137157   5.817   4.678   5.398  0.5320  0.6690 -0.1401
 5222TIP3    H237158   5.942   4.593   5.411 -1.2323 -1.7521  1.3755
 5223TIP3   OH237159   5.335   4.962  11.090  0.2443 -0.3884  0.1528
 5223TIP3    H137160   5.274   5.034  11.071 -0.2875 -0.5193  1.3324
 5223TIP3    H237161   5.313   4.895  11.026 -0.0579  0.0325 -0.1901
 5224TIP3   OH237162   4.019   6.739   3.676  0.2660 -0.0869  0.1857
 5224TIP3    H137163   3.954   6.782   3.733  0.1678  0.0477 -0.0256
 5224TIP3    H237164   4.019   6.648   3.704  0.6807  0.1008  0.8327
 5225TIP3   OH237165   6.280   2.928  12.298  0.0596 -0.4149  0.3481
 5225TIP3    H137166   6.193   2.905  12.329 -0.7513  1.3545 -0.5900
 5225TIP3    H237167   6.328   2.953  12.377 -0.3815 -1.0504  0.8197
 5226TIP3   OH237168   5.345   0.550   4.423  0.4478 -0.1960  0.1163
 5226TIP3    H137169   5.403   0.481   4.455  1.2989  0.2021 -0.5537
 5226TIP3    H237170   5.404   0.618   4.390 -0.3464  1.5589  2.1981
 5227TIP3   OH237171   4.053   4.657   0.520  0.0342  0.3436  1.0173
 5227TIP3    H137172   4.119   4.676   0.587  0.1027  0.1616  1.0034
 5227TIP3    H237173   3.998   4.735   0.517  1.0021  1.0112  0.1435
 5228TIP3   OH237174   6.804   0.024  14.279 -0.1998 -0.3636 -0.0248
 5228TIP3    H137175   6.852   0.106  14.289 -1.9501  0.4700  1.8605
 5228TIP3    H237176   6.808   0.005  14.185  2.9801  0.1315 -0.0374
 5229TIP3   OH237177   3.279   5.329  14.680  0.1766 -0.5468 -0.3192
 5229TIP3    H137178   3.326   5.249  14.703 -1.9309 -1.3952  1.2619
 5229TIP3    H237179   3.214   5.302  14.616 -1.2119 -0.3423  0.9612
 5230TIP3   OH237180   0.303   2.007   3.928 -0.1545 -0.9948 -0.2489
 5230TIP3    H137181   0.245   2.077   3.959  0.1997  0.0348 -1.8513
 5230TIP3    H237182   0.391   2.038   3.948 -0.0281 -1.2747 -0.3713
 5231TIP3   OH237183   3.962   2.096  12.575 -0.2377  0.2146 -0.1012
 5231TIP3    H137184   4.025   2.027  12.599 -0.8189 -0.2431  0.1222
 5231TIP3    H237185   3.981   2.113  12.482 -0.1081 -0.2720 -0.1686
 5232TIP3   OH237186   1.272   1.634   2.727  0.6824 -0.4125 -0.5600
 5232TIP3    H137187   1.293   1.647   2.819  0.1468 -0.3169 -0.4512
 5232TIP3    H237188   1.282   1.721   2.687  0.4059 -0.3475 -0.4894
 5233TIP3   OH237189   4.642   5.146   2.678 -0.3467 -0.3822  0.0299
 5233TIP3    H137190   4.712   5.088   2.707 -0.1946  1.3925  3.4541
 5233TIP3    H237191   4.562   5.097   2.693 -0.0845 -0.7043  0.3727
 5234TIP3   OH237192   6.305   1.449   5.442  0.4287  0.1617  1.0187
 5234TIP3    H137193   6.244   1.452   5.516  0.7776 -0.1008  1.3183
 5234TIP3    H237194   6.322   1.541   5.422 -1.6726  0.2610 -0.4090
 5235TIP3   OH237195   6.310   3.922  14.100 -0.6587 -0.3514  0.5947
 5235TIP3    H137196   6.269   3.891  14.181 -1.0046  2.0933  1.3758
 5235TIP3    H237197   6.246   3.981  14.061  0.7448  0.8502  0.0724
 5236TIP3   OH237198   6.003   4.258  14.895  0.0369 -0.0460 -0.5320
 5236TIP3    H137199   6.097   4.263  14.906 -0.0367  1.0300 -0.3488
 5236TIP3    H237200   5.980   4.337  14.845 -0.5270 -1.2231 -2.1955
 5237TIP3   OH237201   5.881   1.702   4.905 -0.6852 -0.5849 -0.1540
 5237TIP3    H137202   5.789   1.729   4.899 -0.2791  0.6619 -0.9682
 5237TIP3    H237203   5.921   1.734   4.824  0.9546  0.7158  1.1322
 5238TIP3   OH237204   1.114   4.843   5.390 -0.0738  0.0982  0.1378
 5238TIP3    H137205   1.169   4.848   5.311  0.6853  0.5729  0.6886
 5238TIP3    H237206   1.032   4.805   5.359  1.0250 -1.9040 -0.4570
 5239TIP3   OH237207   6.485   6.004  16.870  0.1148 -0.7717  0.0375
 5239TIP3    H137208   6.549   5.935  16.884  1.4589  0.6587  1.1485
 5239TIP3    H237209   6.494   6.062  16.946 -3.9008 -1.5744  1.2590
 5240TIP3   OH237210   5.779   2.798   3.203 -0.3964  0.2277 -0.5854
 5240TIP3    H137211   5.738   2.856   3.139  0.2921  0.4306 -0.8439
 5240TIP3    H237212   5.705   2.752   3.244 -0.9356  1.1610 -0.4969
 5241TIP3   OH237213   6.679   1.639   5.226 -0.3409  0.3856  0.1863
 5241TIP3    H137214   6.767   1.641   5.262  0.2099  1.7420 -1.2081
 5241TIP3    H237215   6.671   1.552   5.187 -0.6798 -0.8264  2.8469
 5242TIP3   OH237216   0.376   1.744   4.019 -0.1475 -0.2291  0.1732
 5242TIP3    H137217   0.346   1.819   4.070 -1.4406 -0.4947 -0.1736
 5242TIP3    H237218   0.323   1.745   3.940  0.0147 -1.3339  0.0321
 5243TIP3   OH237219   2.267   2.813  14.452  0.4334  0.3393  0.3972
 5243TIP3    H137220   2.317   2.731  14.456 -0.2756 -0.0369  2.5145
 5243TIP3    H237221   2.284   2.847  14.365  0.8964 -1.9893 -0.4795
 5244TIP3   OH237222   1.414   6.161   4.596  0.1614  0.6142  0.2742
 5244TIP3    H137223   1.414   6.255   4.610  0.0426  0.7108 -0.3619
 5244TIP3    H237224   1.336   6.144   4.543  0.3192  0.1893  0.1724
 5245TIP3   OH237225   6.685   2.674   6.122  0.0772  0.1835  0.9220
 5245TIP3    H137226   6.691   2.765   6.151  0.3867 -0.1611  1.9562
 5245TIP3    H237227   6.775   2.651   6.099 -0.4514  1.1162 -2.4514
 5246TIP3   OH237228   6.306   2.961   3.715  0.1278  0.5960  0.4645
 5246TIP3    H137229   6.309   2.965   3.810  2.6909  0.3663  0.4392
 5246TIP3    H237230   6.331   2.871   3.694 -1.8090  0.2304 -0.4042
 5247TIP3   OH237231   5.136   5.906   4.993 -0.1468  0.3228  0.3928
 5247TIP3    H137232   5.155   5.861   4.911  0.0271  1.1527 -0.0224
 5247TIP3    H237233   5.216   5.897   5.045  0.4662  1.5228 -0.3183
 5248TIP3   OH237234   1.110   0.926   0.408  0.1557 -0.3613 -0.1133
 5248TIP3    H137235   1.204   0.922   0.422  0.0189 -2.5353  0.4392
 5248TIP3    H237236   1.096   1.008   0.360  2.3828 -0.2914 -0.7081
 5249TIP3   OH237237   6.802   1.772   3.220  0.2090  0.1304 -0.1651
 5249TIP3    H137238   6.847   1.725   3.149  1.0394  0.6726 -0.0096
 5249TIP3    H237239   6.844   1.739   3.299 -1.3036 -1.1076  0.1476
 5250TIP3   OH237240   4.124   0.497   5.364  0.0772 -0.1583 -0.4733
 5250TIP3    H137241   4.077   0.580   5.377 -0.6736 -0.6191 -0.2679
 5250TIP3    H237242   4.094   0.440   5.434 -1.9179 -1.7263 -2.5422
 5251TIP3   OH237243   5.515   6.097   0.938  0.5593  0.8203  0.3396
 5251TIP3    H137244   5.610   6.107   0.934  0.5970  1.2823  2.1849
 5251TIP3    H237245   5.502   6.005   0.961  0.5007  0.3564 -1.4273
 5252TIP3   OH237246   5.391   3.443  10.803 -0.3472  0.5921  0.5959
 5252TIP3    H137247   5.312   3.430  10.751  0.5677  1.4174 -1.0572
 5252TIP3    H237248   5.428   3.356  10.812 -0.5706  0.4267 -0.0575
 5253TIP3   OH237249   2.651   1.545   0.309  0.2204 -0.6852  0.0415
 5253TIP3    H137250   2.694   1.562   0.393 -0.9426  0.5795  0.3936
 5253TIP3    H237251   2.711   1.582   0.244  0.0871  0.2848  0.4632
 5254TIP3   OH237252   4.016   3.463  14.303 -0.2159 -0.3768  0.5216
 5254TIP3    H137253   4.042   3.551  14.277  0.5143 -0.5520  0.6542
 5254TIP3    H237254   4.098   3.419  14.327 -0.6505 -0.8637  1.1483
 5255TIP3   OH237255   5.221   5.602   5.184 -0.0480  0.2089  0.3071
 5255TIP3    H137256   5.137   5.564   5.157 -0.3343  1.0033  0.0712
 5255TIP3    H237257   5.269   5.615   5.103  0.7956 -1.3418  0.5241
 5256TIP3   OH237258   2.867   3.814   2.650  0.3243 -0.1838  0.0684
 5256TIP3    H137259   2.864   3.910   2.644  1.1978 -0.1783 -0.4098
 5256TIP3    H237260   2.906   3.786   2.567 -2.4355 -1.1329 -0.9609
 5257TIP3   OH237261   2.977   5.122  13.304 -0.7459  0.5706  0.0559
 5257TIP3    H137262   2.929   5.204  13.299  1.4270  1.8292 -0.6314
 5257TIP3    H237263   3.009   5.107  13.215  1.2070  0.4252  0.7594
 5258TIP3   OH237264   4.830   5.696   0.269 -0.1683  0.0622 -0.1272
 5258TIP3    H137265   4.874   5.779   0.288 -1.0213 -0.0244  2.4305
 5258TIP3    H237266   4.742   5.708   0.306 -0.0346 -2.2727  0.9781
 5259TIP3   OH237267   6.574   3.379  15.487  0.0762 -0.0125  0.5701
 5259TIP3    H137268   6.548   3.291  15.514  0.4135  1.0712  4.8190
 5259TIP3    H237269   6.491   3.425  15.475 -0.0919 -0.6714 -0.8756
 5260TIP3   OH237270   2.701   1.143  15.156 -0.4696 -0.6170  0.3509
 5260TIP3    H137271   2.669   1.184  15.076 -0.7650 -1.0239  0.2586
 5260TIP3    H237272   2.714   1.216  15.216 -1.2982 -0.4112  0.2932
 5261TIP3   OH237273   4.324   6.363   2.813  0.1774 -0.3225 -0.0082
 5261TIP3    H137274   4.336   6.277   2.853 -0.6753 -0.0081  0.9458
 5261TIP3    H237275   4.272   6.346   2.734  0.6302 -0.7658 -0.2165
 5262TIP3   OH237276   4.374   5.479   0.519 -0.9764  0.3262 -0.0360
 5262TIP3    H137277   4.420   5.399   0.493  2.8783  2.2475  0.5493
 5262TIP3    H237278   4.389   5.540   0.447  1.4242  2.4771  2.1985
 5263TIP3   OH237279   4.252   1.538  14.178  0.2502  0.0867 -0.2059
 5263TIP3    H137280   4.337   1.556  14.137  0.4496 -1.2349 -0.4068
 5263TIP3    H237281   4.233   1.615  14.231  1.2850  0.6509 -0.6577
 5264TIP3   OH237282   3.809   2.653   0.291  0.0957 -0.0575 -0.1091
 5264TIP3    H137283   3.827   2.567   0.329  0.4988 -0.2943 -0.8341
 5264TIP3    H237284   3.866   2.658   0.214 -1.1421  0.1715 -1.0378
 5265TIP3   OH237285   2.521   6.763  16.684  0.0571 -0.0940  0.1106
 5265TIP3    H137286   2.509   6.842  16.736 -1.7994  0.2261 -0.7778
 5265TIP3    H237287   2.610   6.771  16.649 -0.1012  1.5892  0.0588
 5266TIP3   OH237288   1.530   1.107  13.368  0.1542  0.3606 -0.2189
 5266TIP3    H137289   1.566   1.062  13.445 -1.4264  0.6483  0.7239
 5266TIP3    H237290   1.537   1.200  13.388  1.8642  0.5265 -1.4475
 5267TIP3   OH237291   0.533   5.862   4.455 -0.2139 -0.1783  0.2545
 5267TIP3    H137292   0.615   5.821   4.480  0.6775  0.9028 -0.8527
 5267TIP3    H237293   0.471   5.836   4.523  0.2515 -3.5685 -0.5425
 5268TIP3   OH237294   1.927   3.336   4.210 -0.2623  0.0479  0.6721
 5268TIP3    H137295   1.867   3.261   4.212 -0.6037  0.3118  0.2247
 5268TIP3    H237296   1.979   3.323   4.130 -0.5038  0.4332  0.4537
 5269TIP3   OH237297   1.171   1.176  15.654  0.2860 -0.3119 -0.3495
 5269TIP3    H137298   1.146   1.228  15.577 -2.1985  0.6637  1.0711
 5269TIP3    H237299   1.178   1.087  15.620 -1.5162 -0.0191 -1.6152
 5270TIP3   OH237300   6.314   6.639   5.518  0.1105  0.2592  0.4720
 5270TIP3    H137301   6.285   6.549   5.502  0.2857  0.2062  0.4528
 5270TIP3    H237302   6.342   6.670   5.432 -0.9422  0.6905  0.2795
 5271TIP3   OH237303   5.975   2.942  14.525 -0.4555 -0.3543  0.6237
 5271TIP3    H137304   6.003   2.946  14.434 -0.1171 -0.4440  0.7217
 5271TIP3    H237305   5.972   2.849  14.546 -2.0918 -0.4017  0.2396
 5272TIP3   OH237306   2.661   4.443  12.458  0.2421  0.0578  0.5028
 5272TIP3    H137307   2.566   4.437  12.458  0.2608 -0.3182  1.2650
 5272TIP3    H237308   2.685   4.451  12.550  1.0187 -1.0781  0.4132
 5273TIP3   OH237309   2.704   4.723  17.233 -0.5814 -0.0031 -0.0787
 5273TIP3    H137310   2.775   4.661  17.243 -1.2147 -0.8549 -0.7792
 5273TIP3    H237311   2.680   4.748  17.322  0.1042 -0.2663  0.1776
 5274TIP3   OH237312   3.950   1.066   1.969  0.1634  0.4779  0.6414
 5274TIP3    H137313   3.883   0.997   1.966 -1.1839  1.7842 -0.0491
 5274TIP3    H237314   3.928   1.124   1.896  3.1765 -0.0588 -0.7526
 5275TIP3   OH237315   3.227   6.662  16.276 -0.7064  0.1501 -0.2037
 5275TIP3    H137316   3.222   6.648  16.371 -1.1654 -0.9777 -0.3841
 5275TIP3    H237317   3.136   6.656  16.246 -0.3293 -1.6438 -1.0063
 5276TIP3   OH237318   1.012   6.408  16.890  0.1499 -0.7967  0.3402
 5276TIP3    H137319   1.101   6.381  16.913  0.3407 -0.0424  0.5045
 5276TIP3    H237320   1.023   6.459  16.810 -0.1354 -0.6821  0.3774
 5277TIP3   OH237321   2.238   2.498  14.823  0.1491 -0.7771  0.1969
 5277TIP3    H137322   2.171   2.555  14.859 -0.8017 -2.1433  0.6337
 5277TIP3    H237323   2.217   2.491  14.730  0.6000  0.0336  0.0345
 5278TIP3   OH237324   2.131   0.278   4.212 -0.3602  0.4620  0.3984
 5278TIP3    H137325   2.162   0.199   4.257  1.3353  0.9716  0.1442
 5278TIP3    H237326   2.190   0.347   4.241 -0.8865  1.3367 -0.5879
 5279TIP3   OH237327   0.428   2.785   0.149  0.2531  0.2483  0.6171
 5279TIP3    H137328   0.494   2.834   0.100  0.1260  0.5220  0.7217
 5279TIP3    H237329   0.406   2.711   0.091 -2.1104  2.2163 -1.0612
 5280TIP3   OH237330   1.762   6.399  12.761  0.2242  0.1830  0.5432
 5280TIP3    H137331   1.856   6.390  12.777  0.1355  1.8759  2.3720
 5280TIP3    H237332   1.727   6.427  12.846 -2.2075 -2.1869  0.3649
 5281TIP3   OH237333   4.918   3.618   1.413 -0.2929  0.3364  0.2950
 5281TIP3    H137334   4.992   3.618   1.473 -0.4796 -1.3310  0.5424
 5281TIP3    H237335   4.878   3.532   1.423  0.2120 -0.3398 -2.8944
 5282TIP3   OH237336   6.108   6.736   1.611 -0.0481 -0.3544  0.2470
 5282TIP3    H137337   6.147   6.821   1.590 -0.4414 -0.1914  0.1682
 5282TIP3    H237338   6.059   6.712   1.532  0.7609 -1.0595 -0.0469
 5283TIP3   OH237339   4.463   3.231  12.503  0.0307 -0.0620 -0.0081
 5283TIP3    H137340   4.500   3.177  12.573 -1.0241  0.7037  1.1603
 5283TIP3    H237341   4.368   3.224  12.516 -0.1066  2.4483  0.4517
 5284TIP3   OH237342   0.622   3.349  14.420  0.2093  0.2807  0.4326
 5284TIP3    H137343   0.702   3.298  14.409 -0.0476 -0.0857  0.2705
 5284TIP3    H237344   0.564   3.319  14.350  0.0960  0.8683  0.2707
 5285TIP3   OH237345   3.627   0.202  14.371  0.0116 -0.0893 -0.2343
 5285TIP3    H137346   3.545   0.218  14.324 -0.3521 -0.7608  0.1533
 5285TIP3    H237347   3.644   0.283  14.419  0.6684  0.8062 -1.9206
 5286TIP3   OH237348   0.132   2.886  11.039  0.7584  0.8773  0.4138
 5286TIP3    H137349   0.168   2.946  11.104  1.9756  0.9152 -0.2830
 5286TIP3    H237350   0.207   2.863  10.984 -0.3528  1.1768 -1.2327
 5287TIP3   OH237351   1.504   6.174  11.836  0.0749  0.1637 -0.3541
 5287TIP3    H137352   1.537   6.090  11.804  0.1104 -0.6259  1.7002
 5287TIP3    H237353   1.419   6.183  11.794 -0.3738 -1.3953  0.1735
 5288TIP3   OH237354   4.330   1.207   0.663  0.0641  0.6968 -0.0466
 5288TIP3    H137355   4.290   1.213   0.576  0.3622 -0.4396 -0.2774
 5288TIP3    H237356   4.343   1.298   0.690  0.5751  1.0743 -1.4860
 5289TIP3   OH237357   2.134   2.496   3.067 -0.3907  0.1949  0.5668
 5289TIP3    H137358   2.106   2.563   3.129 -2.3306  0.3063 -0.3985
 5289TIP3    H237359   2.078   2.420   3.086  1.3127 -0.9476  1.1960
 5290TIP3   OH237360   6.799   1.036   5.484  0.2273 -0.3284  0.6051
 5290TIP3    H137361   6.791   0.966   5.549  1.2419  0.2008  1.3019
 5290TIP3    H237362   6.734   1.013   5.417 -2.2315  0.1656  2.7499
 5291TIP3   OH237363   5.239   2.576   5.577 -0.8639 -0.2296 -0.6529
 5291TIP3    H137364   5.301   2.632   5.530 -2.3323  0.1657 -2.1450
 5291TIP3    H237365   5.231   2.617   5.663  1.1586 -0.4478 -0.3279
 5292TIP3   OH237366   1.847   2.439  13.803  0.0402 -0.2198  0.0398
 5292TIP3    H137367   1.822   2.510  13.862 -0.6588  0.2545 -0.8099
 5292TIP3    H237368   1.919   2.475  13.751 -0.3984 -0.0923 -0.4789
 5293TIP3   OH237369   3.270   4.399  12.177  0.4762 -0.3112  0.3883
 5293TIP3    H137370   3.220   4.455  12.118 -0.1196 -0.2276  0.9636
 5293TIP3    H237371   3.344   4.368  12.125  0.0862 -0.0433 -0.3212
 5294TIP3   OH237372   2.236   3.024  11.369  0.3543  0.3105 -0.6467
 5294TIP3    H137373   2.316   3.057  11.328  0.4486 -0.8930 -1.4744
 5294TIP3    H237374   2.175   3.013  11.295  0.6443 -2.2414 -0.5514
 5295TIP3   OH237375   2.000   0.006  14.546 -0.6538 -0.1831 -0.1381
 5295TIP3    H137376   2.069  -0.006  14.610  0.4098 -2.2176 -1.6108
 5295TIP3    H237377   2.027   0.081  14.494 -1.5290  1.4796  1.7630
 5296TIP3   OH237378   6.321   3.207  13.576 -0.5134  0.0341  0.2585
 5296TIP3    H137379   6.253   3.143  13.557 -0.2417 -0.3413  0.5446
 5296TIP3    H237380   6.315   3.221  13.671 -0.6307  0.5000  0.1857
 5297TIP3   OH237381   2.247   2.832  16.113  0.2211 -0.2058  0.8661
 5297TIP3    H137382   2.275   2.846  16.203  0.7818  0.1144  0.6439
 5297TIP3    H237383   2.321   2.860  16.060 -0.2782  0.0477  0.2877
 5298TIP3   OH237384   6.454   0.587  14.074  1.0705  0.0043  0.2664
 5298TIP3    H137385   6.504   0.509  14.049  0.0856  0.2053 -2.4571
 5298TIP3    H237386   6.517   0.659  14.068  1.4907 -0.2938  0.9451
 5299TIP3   OH237387   6.716   1.755  16.073  0.1095  0.2377  0.9635
 5299TIP3    H137388   6.686   1.776  16.161  0.7232  3.2363  0.5164
 5299TIP3    H237389   6.753   1.667  16.080 -3.3324 -1.1499  2.8048
 5300TIP3   OH237390   0.859   3.736   6.285  0.1759  0.3981  0.3130
 5300TIP3    H137391   0.773   3.695   6.292  0.0410  0.7172  0.5458
 5300TIP3    H237392   0.884   3.754   6.376 -0.8764  3.1278  0.0985
 5301TIP3   OH237393   5.260   5.904  13.824 -0.0781  0.0460 -0.2995
 5301TIP3    H137394   5.312   5.963  13.769 -0.3807  1.3668  0.8125
 5301TIP3    H237395   5.170   5.918  13.795 -0.2062  0.5213  0.3217
 5302TIP3   OH237396   5.873   5.486  16.655 -0.3088 -0.5118  0.3093
 5302TIP3    H137397   5.901   5.505  16.566 -0.5418 -0.4090  0.2579
 5302TIP3    H237398   5.945   5.517  16.710  0.1959 -1.3289  0.1125
 5303TIP3   OH237399   2.703   0.817  14.708  0.1194 -0.5166 -0.5533
 5303TIP3    H137400   2.623   0.806  14.758 -0.2525  1.5338 -0.6649
 5303TIP3    H237401   2.770   0.836  14.774  0.4647 -1.9497 -0.4837
 5304TIP3   OH237402   3.120   4.935   1.235  0.2178 -0.1618 -0.8012
 5304TIP3    H137403   3.067   4.855   1.237 -0.3702  0.1943 -1.6632
 5304TIP3    H237404   3.058   5.005   1.255  0.6202  0.1394 -0.5982
 5305TIP3   OH237405   3.843   5.530  13.797 -0.1482 -0.2223 -0.2179
 5305TIP3    H137406   3.877   5.616  13.821 -0.5243 -0.3128  0.6519
 5305TIP3    H237407   3.771   5.514  13.859  0.8966 -1.8105  0.6361
 5306TIP3   OH237408   2.946   0.838   4.280 -0.0770  0.1929 -0.0936
 5306TIP3    H137409   3.039   0.838   4.300 -0.2189  1.3077  0.6545
 5306TIP3    H237410   2.905   0.875   4.359 -0.9161  2.0278 -1.3381
 5307TIP3   OH237411   0.337   2.809   2.733  0.5351 -0.4933 -0.1679
 5307TIP3    H137412   0.285   2.874   2.686  0.8853 -1.1498 -1.5149
 5307TIP3    H237413   0.424   2.814   2.692  0.8043 -1.1729  0.3146
 5308TIP3   OH237414   1.133   4.975   4.418  0.0919  0.2859  0.2511
 5308TIP3    H137415   1.098   5.029   4.489 -0.1439  1.7973 -1.0127
 5308TIP3    H237416   1.228   4.974   4.434 -0.2050 -1.7323  2.2083
 5309TIP3   OH237417   1.241   2.536  13.390 -0.5240  0.1041 -0.5745
 5309TIP3    H137418   1.322   2.498  13.357  0.7428  2.2182  0.0226
 5309TIP3    H237419   1.181   2.534  13.315  0.5409 -0.1599 -1.4346
 5310TIP3   OH237420   5.090   0.746  12.090 -0.2355  0.2734 -0.3873
 5310TIP3    H137421   5.025   0.770  12.024 -0.4702 -0.3378 -0.3858
 5310TIP3    H237422   5.127   0.829  12.119 -2.3247  0.7630  0.9388
 5311TIP3   OH237423   5.760   5.636   2.760  0.3386  0.4826  0.1507
 5311TIP3    H137424   5.842   5.609   2.801  0.4846  3.1598  1.6887
 5311TIP3    H237425   5.692   5.601   2.816  0.3210 -3.0715 -1.9535
 5312TIP3   OH237426   6.338   3.251  11.818  0.3121  0.0593  0.3255
 5312TIP3    H137427   6.321   3.271  11.726  2.5608  3.1037  0.4630
 5312TIP3    H237428   6.252   3.239  11.857 -0.7692  1.0058 -1.7012
 5313TIP3   OH237429   4.665   0.783  11.147 -0.1462 -0.2328 -0.3605
 5313TIP3    H137430   4.692   0.692  11.151  0.0819 -0.2204 -1.3046
 5313TIP3    H237431   4.575   0.784  11.179 -0.1356 -0.7852 -0.3194
 5314TIP3   OH237432   4.763   0.439  14.973  0.2333  0.5035 -0.6020
 5314TIP3    H137433   4.677   0.481  14.968  0.2613  0.7023  0.4674
 5314TIP3    H237434   4.785   0.442  15.066  0.1660 -2.0289 -0.4772
 5315TIP3   OH237435   1.261   2.233   1.707 -0.8205 -0.0865 -0.0976
 5315TIP3    H137436   1.324   2.213   1.777 -1.1012 -1.2052 -0.1663
 5315TIP3    H237437   1.176   2.212   1.745 -1.0891  0.5958 -0.3159
 5316TIP3   OH237438   3.102   5.584   0.756 -0.1327  0.3045  0.0985
 5316TIP3    H137439   3.176   5.554   0.810  0.4355  0.6702 -0.4667
 5316TIP3    H237440   3.140   5.595   0.669 -0.6998  1.1604 -0.0399
 5317TIP3   OH237441   2.032   6.699  15.378 -0.5424  0.1111  0.3905
 5317TIP3    H137442   2.124   6.725  15.372 -0.7216  1.0482  1.4557
 5317TIP3    H237443   1.989   6.744  15.305 -0.0033 -1.0834 -0.6835
 5318TIP3   OH237444   4.293   3.620  17.177  0.1095  0.1178  0.3585
 5318TIP3    H137445   4.269   3.711  17.197  1.1137  0.9294 -1.8932
 5318TIP3    H237446   4.387   3.616  17.195 -0.1984 -0.9112  1.8409
 5319TIP3   OH237447   0.155   0.940  12.778 -0.1465 -0.3184  0.0357
 5319TIP3    H137448   0.129   0.957  12.869  0.1295 -0.1854  0.0895
 5319TIP3    H237449   0.250   0.927  12.782  0.1415  1.4578 -0.4873
 5320TIP3   OH237450   2.721   0.507   0.820 -0.8856  0.0993  0.4426
 5320TIP3    H137451   2.795   0.508   0.759 -0.5075  0.0361  0.8908
 5320TIP3    H237452   2.651   0.464   0.773 -0.1808 -1.1600  0.5220
 5321TIP3   OH237453   2.696   2.168  10.522 -0.5358  0.1381 -0.1828
 5321TIP3    H137454   2.623   2.226  10.546 -0.2199  0.5189 -0.1422
 5321TIP3    H237455   2.724   2.199  10.436 -0.3645  0.0462 -0.1600
 5322TIP3   OH237456   5.553   2.860  14.500 -0.1883 -0.4373  0.3769
 5322TIP3    H137457   5.628   2.811  14.467 -0.3028 -1.1340  1.1422
 5322TIP3    H237458   5.584   2.899  14.582 -1.0683 -1.8546  1.4044
 5323TIP3   OH237459   4.708   4.411  11.759  0.1898  0.3769  0.2199
 5323TIP3    H137460   4.653   4.347  11.714  1.2948 -0.1672 -0.3823
 5323TIP3    H237461   4.688   4.495  11.718 -1.5621  0.4877  1.2827
 5324TIP3   OH237462   2.510   0.697   1.194 -0.0567 -0.1196  0.5498
 5324TIP3    H137463   2.444   0.634   1.162 -0.2504  1.1996 -1.7410
 5324TIP3    H237464   2.584   0.685   1.134  1.5420 -1.0823  2.6771
 5325TIP3   OH237465   4.822   4.857  10.299 -0.0042 -0.1155 -0.0503
 5325TIP3    H137466   4.796   4.766  10.304  1.3613 -0.5231 -0.0623
 5325TIP3    H237467   4.750   4.906  10.339 -1.0464 -1.1370 -0.6928
 5326TIP3   OH237468   4.896   0.191   3.412  0.7384  0.3447 -0.5743
 5326TIP3    H137469   4.874   0.099   3.430  0.0149  0.6437  0.1031
 5326TIP3    H237470   4.924   0.191   3.320  0.1748 -0.4546 -0.7573
 5327TIP3   OH237471   4.330   3.731  11.454 -0.1462  0.4969  0.1223
 5327TIP3    H137472   4.352   3.739  11.361  0.5543  1.2629  0.3625
 5327TIP3    H237473   4.314   3.820  11.483 -2.5206  0.0782  0.2165
 5328TIP3   OH237474   0.585   2.568  13.887 -0.6585  0.6499 -0.3265
 5328TIP3    H137475   0.593   2.612  13.972 -1.3200 -2.2641  1.3029
 5328TIP3    H237476   0.540   2.486  13.906 -0.8731 -0.0518 -3.5269
 5329TIP3   OH237477   1.090   3.311  11.567 -0.3158  0.5870  0.3477
 5329TIP3    H137478   1.146   3.389  11.573  0.2688  0.1396  0.8234
 5329TIP3    H237479   1.095   3.286  11.475  1.3920 -0.2406  0.6303
 5330TIP3   OH237480   1.733   5.674   2.014 -0.4650 -0.0205  1.1603
 5330TIP3    H137481   1.646   5.709   1.995 -0.6988 -0.2593  1.7749
 5330TIP3    H237482   1.717   5.585   2.045  0.1346 -0.7397 -0.5176
 5331TIP3   OH237483   0.596   4.435  16.521  0.2015  0.0139 -0.7282
 5331TIP3    H137484   0.619   4.349  16.484  0.8190 -0.0647 -0.1709
 5331TIP3    H237485   0.542   4.476  16.454 -1.0479 -1.2663 -0.5509
 5332TIP3   OH237486   0.311   1.684  16.207 -0.0800 -0.0628  0.0128
 5332TIP3    H137487   0.373   1.715  16.274  1.1797 -0.5175 -0.9147
 5332TIP3    H237488   0.307   1.757  16.144  1.0816 -0.8254 -0.9655
 5333TIP3   OH237489   1.887   6.033   3.275 -0.0861  0.0897  0.0593
 5333TIP3    H137490   1.961   6.036   3.335  0.8640 -2.5497 -0.8711
 5333TIP3    H237491   1.914   6.086   3.200  0.9788 -1.0204 -0.3628
 5334TIP3   OH237492   5.568   3.293   4.971 -0.0254 -0.5054  0.0249
 5334TIP3    H137493   5.570   3.381   4.934  0.3330  0.4655  2.2750
 5334TIP3    H237494   5.477   3.279   4.996  0.6145  0.8985  3.4236
 5335TIP3   OH237495   6.309   2.207   4.154  0.2544  0.0063  0.6192
 5335TIP3    H137496   6.260   2.279   4.192 -1.0598 -0.4880 -0.0938
 5335TIP3    H237497   6.292   2.213   4.060  0.2297 -1.1570  0.5386
 5336TIP3   OH237498   4.422   2.049  17.261 -0.4229  0.1440  0.1795
 5336TIP3    H137499   4.459   2.022  17.345  0.9628 -0.9337 -0.7737
 5336TIP3    H237500   4.483   2.115  17.228  0.8229 -1.8139 -1.5049
 5337TIP3   OH237501   3.948   0.113  11.595 -0.3475 -0.2771  0.0432
 5337TIP3    H137502   3.858   0.112  11.563 -0.6312  0.3185  0.7980
 5337TIP3    H237503   3.957   0.032  11.646 -0.7090  0.0470  0.6281
 5338TIP3   OH237504   4.017   5.877   0.918 -0.1698  0.7495  0.3086
 5338TIP3    H137505   4.065   5.798   0.942  1.5366  2.4582  2.7253
 5338TIP3    H237506   3.968   5.900   0.997 -1.1196  1.7987 -0.5703
 5339TIP3   OH237507   1.550   2.671   1.622 -0.3505 -0.1549 -0.0199
 5339TIP3    H137508   1.500   2.671   1.540 -1.1555  2.0590  0.4312
 5339TIP3    H237509   1.611   2.598   1.613 -1.7953 -1.2053 -1.7430
 5340TIP3   OH237510   1.018   0.426  12.557  0.0964 -0.0745 -0.3454
 5340TIP3    H137511   0.999   0.480  12.634  1.5246  1.9026 -1.3251
 5340TIP3    H237512   0.969   0.468  12.486 -0.4361 -1.3011 -0.7045
 5341TIP3   OH237513   1.834   3.521   3.506 -0.1738 -0.1116 -0.4270
 5341TIP3    H137514   1.799   3.593   3.453  1.0720  0.1331 -0.9502
 5341TIP3    H237515   1.927   3.518   3.483 -0.0329 -1.3158  0.2622
 5342TIP3   OH237516   5.837   1.481   4.659 -0.0243  0.9593 -0.1915
 5342TIP3    H137517   5.912   1.486   4.717  0.6720  0.4400 -1.0295
 5342TIP3    H237518   5.871   1.439   4.580 -1.1234  0.9950 -0.6899
 5343TIP3   OH237519   2.233   1.633   4.817 -0.3197 -0.2220  0.1972
 5343TIP3    H137520   2.290   1.707   4.838  1.9761 -1.7116 -0.5219
 5343TIP3    H237521   2.274   1.558   4.862 -0.9444 -1.5732 -1.4271
 5344TIP3   OH237522   5.692   6.371   4.193 -0.2098  0.2074  0.3919
 5344TIP3    H137523   5.706   6.292   4.142  1.9176  0.5993  0.3308
 5344TIP3    H237524   5.599   6.368   4.216 -0.1286 -2.4092  0.5822
 5345TIP3   OH237525   2.753   2.293  16.693  0.3211 -0.1204  0.3290
 5345TIP3    H137526   2.812   2.365  16.719  1.3659 -1.1644  0.9064
 5345TIP3    H237527   2.728   2.315  16.603 -1.1751  2.1255  1.2445
 5346TIP3   OH237528   0.120   5.920  17.199  0.4178  0.3924  0.8206
 5346TIP3    H137529   0.168   5.920  17.282 -0.8798  0.0331  1.5980
 5346TIP3    H237530   0.050   5.985  17.213  0.1203  0.2375  0.0527
 5347TIP3   OH237531   6.077   1.988  12.941 -0.8131  0.0066  0.7773
 5347TIP3    H137532   6.081   1.909  12.995  0.0587 -0.2780  0.2974
 5347TIP3    H237533   6.153   2.039  12.967 -0.9780  0.3629  0.5689
 5348TIP3   OH237534   1.907   3.180  11.184 -0.1389 -0.0481  0.3010
 5348TIP3    H137535   1.917   3.085  11.191  1.0330  0.2566  3.3199
 5348TIP3    H237536   1.812   3.194  11.182 -0.3885 -1.1585  2.5794
 5349TIP3   OH237537   3.910   4.352   0.303  0.2634 -0.8775  0.0656
 5349TIP3    H137538   3.955   4.360   0.219 -1.7693 -0.6061 -1.0419
 5349TIP3    H237539   3.978   4.328   0.365  1.3573 -4.1147 -2.2368
 5350TIP3   OH237540   2.982   5.230   5.157  0.2743  0.4399  0.0518
 5350TIP3    H137541   2.983   5.270   5.244  0.4898 -0.9249  0.6892
 5350TIP3    H237542   3.058   5.171   5.157 -1.6470 -2.1006  0.1528
 5351TIP3   OH237543   2.690   5.921   2.440  0.0483 -0.2537 -0.2283
 5351TIP3    H137544   2.681   5.954   2.530 -0.4830 -0.4841 -0.1905
 5351TIP3    H237545   2.766   5.967   2.405 -0.1261  0.3218  0.1295
 5352TIP3   OH237546   3.980   4.796   3.324  0.3246 -0.0411 -0.2126
 5352TIP3    H137547   3.902   4.780   3.378  1.3446  1.0143  1.5949
 5352TIP3    H237548   3.989   4.716   3.272 -0.2776 -1.3785  1.6920
 5353TIP3   OH237549   6.021   3.461   1.331 -0.1613  0.1189 -0.4240
 5353TIP3    H137550   6.028   3.372   1.297 -0.0669 -0.7920  1.8406
 5353TIP3    H237551   6.071   3.515   1.270  1.4498 -1.7082 -0.7673
 5354TIP3   OH237552   2.913   4.899  14.553  0.2066 -0.3126 -0.1875
 5354TIP3    H137553   2.840   4.957  14.576  0.5380  0.7291 -1.7228
 5354TIP3    H237554   2.991   4.945  14.584  0.4376 -0.1119 -1.0649
 5355TIP3   OH237555   2.159   0.807  14.129 -0.1811  0.2998 -0.1057
 5355TIP3    H137556   2.201   0.727  14.097 -0.2926  0.0584  0.3523
 5355TIP3    H237557   2.068   0.798  14.103  0.0329  0.7871 -1.0316
 5356TIP3   OH237558   3.995   3.681   0.993 -0.4009 -0.3145  0.4269
 5356TIP3    H137559   3.961   3.770   0.993 -1.2549 -0.6372  0.8891
 5356TIP3    H237560   3.997   3.656   0.900  0.2869  0.3469  0.2585
 5357TIP3   OH237561   2.171   5.068   4.598  0.2180  0.5527  0.2099
 5357TIP3    H137562   2.081   5.038   4.580  0.2747  0.5540 -0.0794
 5357TIP3    H237563   2.226   5.000   4.560  0.3350  0.0679  1.2333
 5358TIP3   OH237564   3.336   1.082  15.133  0.0084  0.2002 -0.3073
 5358TIP3    H137565   3.425   1.055  15.109  0.0491 -0.2569  0.3471
 5358TIP3    H237566   3.299   1.116  15.051  0.7857  0.4027 -0.5817
 5359TIP3   OH237567   6.540   1.327  12.979 -0.5362 -0.0904 -0.2278
 5359TIP3    H137568   6.519   1.273  12.903 -2.9424  2.4123 -1.4045
 5359TIP3    H237569   6.610   1.384  12.950  0.7202 -1.2424  0.4529
 5360TIP3   OH237570   6.051   3.677   2.760 -0.0148 -0.8409  0.5044
 5360TIP3    H137571   6.050   3.756   2.706 -0.4832  0.2016  2.0112
 5360TIP3    H237572   5.998   3.614   2.711 -1.1784  0.3760  0.1593
 5361TIP3   OH237573   6.262   2.489   3.492 -0.4145 -0.3731 -0.1123
 5361TIP3    H137574   6.315   2.509   3.415 -0.5633 -2.5669 -0.8114
 5361TIP3    H237575   6.226   2.403   3.475 -2.6543  0.2634  1.2336
 5362TIP3   OH237576   6.468   4.063   3.647  0.4224 -0.3630 -0.0256
 5362TIP3    H137577   6.552   4.050   3.691  0.0739  0.8080  1.0409
 5362TIP3    H237578   6.479   4.145   3.598  0.3243 -0.8939 -0.9383
 5363TIP3   OH237579   2.746   0.983   4.132  0.1024  0.6540  0.1391
 5363TIP3    H137580   2.826   0.936   4.154  0.3338  0.5860 -0.8108
 5363TIP3    H237581   2.760   1.071   4.169  2.2542  1.8299 -3.1560
 5364TIP3   OH237582   0.254   0.596  14.361  1.1376  0.0754  0.0835
 5364TIP3    H137583   0.312   0.619  14.434 -0.0044  0.5799  0.8416
 5364TIP3    H237584   0.268   0.502  14.349  2.8618  0.3762 -0.4154
 5365TIP3   OH237585   2.057   3.054   1.226  0.0081 -0.3860 -0.2100
 5365TIP3    H137586   2.032   3.022   1.139  0.8337 -2.2163  0.1841
 5365TIP3    H237587   2.060   3.149   1.218 -1.7952 -0.4251 -1.6659
 5366TIP3   OH237588   2.841   1.342  12.629  0.6937 -0.2094 -0.2815
 5366TIP3    H137589   2.858   1.395  12.706 -2.3704  0.1726  0.1901
 5366TIP3    H237590   2.871   1.254  12.654 -2.2745 -0.5984  2.2307
 5367TIP3   OH237591   1.716   3.754   1.760 -0.2644  0.4263 -0.1147
 5367TIP3    H137592   1.635   3.703   1.763 -0.2613  0.4553  0.8299
 5367TIP3    H237593   1.737   3.770   1.852  0.5912  0.7751 -0.3645
 5368TIP3   OH237594   2.269   3.933  15.695 -0.7879 -0.1980 -0.7316
 5368TIP3    H137595   2.362   3.921  15.676 -0.2191  1.4853  0.8493
 5368TIP3    H237596   2.241   3.850  15.734  0.7323  0.2510  1.3531
 5369TIP3   OH237597   6.500   4.330   4.681 -0.0118  0.3108 -0.1984
 5369TIP3    H137598   6.547   4.400   4.636  0.2477  0.5665  0.4631
 5369TIP3    H237599   6.530   4.335   4.772 -2.0077  1.0773  0.4474
 5370TIP3   OH237600   2.079   4.789  14.140 -0.1120  0.2632 -0.8657
 5370TIP3    H137601   2.051   4.701  14.115  2.1184 -0.8492  0.3921
 5370TIP3    H237602   2.169   4.795  14.109  1.4100  0.2739  3.2864
 5371TIP3   OH237603   3.940   3.180   2.752 -0.2007 -0.5412  0.1888
 5371TIP3    H137604   4.014   3.121   2.736 -0.5531 -0.8768 -0.2333
 5371TIP3    H237605   3.975   3.249   2.807  0.3172 -0.9425  0.3625
 5372TIP3   OH237606   3.401   6.343  11.205  0.1326 -0.0588 -0.0474
 5372TIP3    H137607   3.428   6.373  11.118 -0.7268 -1.6347 -0.8877
 5372TIP3    H237608   3.306   6.340  11.200  0.1203 -0.8910  0.6973
 5373TIP3   OH237609   2.233   4.689  16.758 -0.2151  0.0945  0.3986
 5373TIP3    H137610   2.313   4.657  16.798 -0.7646 -2.6145 -0.5419
 5373TIP3    H237611   2.254   4.696  16.665 -0.6311  0.7898  0.3576
 5374TIP3   OH237612   3.622   2.087  12.096  0.2486  0.5767 -0.2982
 5374TIP3    H137613   3.659   2.043  12.019 -1.5894 -1.6267  0.0084
 5374TIP3    H237614   3.687   2.076  12.164  0.1279 -1.1450 -0.4233
 5375TIP3   OH237615   4.236   5.226  10.543  0.5361  0.2090 -0.4491
 5375TIP3    H137616   4.226   5.286  10.616 -0.9290 -0.8320  0.2145
 5375TIP3    H237617   4.309   5.170  10.568  2.0558  1.8017 -1.1642
 5376TIP3   OH237618   3.491   0.263  11.413 -0.7739 -0.0444  0.2818
 5376TIP3    H137619   3.479   0.332  11.348 -0.3155 -0.0810  0.1568
 5376TIP3    H237620   3.572   0.219  11.387 -2.4890 -2.4094 -1.2573
 5377TIP3   OH237621   0.458   1.765   6.048  0.7723 -0.2564  0.0287
 5377TIP3    H137622   0.463   1.670   6.053 -0.4024 -0.2827  1.2908
 5377TIP3    H237623   0.464   1.793   6.140 -1.2957  0.7259 -0.1141
 5378TIP3   OH237624   3.775   4.564   2.852 -0.0848 -0.2778  0.6841
 5378TIP3    H137625   3.871   4.563   2.860  0.0488  2.5339 -0.1497
 5378TIP3    H237626   3.744   4.558   2.942  0.8471 -1.4650  0.9492
 5379TIP3   OH237627   2.863   6.522   0.170 -0.3999  0.0015 -0.4759
 5379TIP3    H137628   2.803   6.503   0.099  0.1788  1.6633 -1.4374
 5379TIP3    H237629   2.819   6.589   0.223 -1.0138 -1.5294  0.9953
 5380TIP3   OH237630   3.865   3.997   5.844  0.6995  0.1389  0.0298
 5380TIP3    H137631   3.793   4.059   5.847  0.7054  0.3777 -3.1192
 5380TIP3    H237632   3.822   3.912   5.832  0.8816  0.1222 -0.5087
 5381TIP3   OH237633   4.989   3.205   1.586  0.1820 -0.1010  0.4368
 5381TIP3    H137634   5.046   3.198   1.663  0.1580 -1.0868  0.3654
 5381TIP3    H237635   5.025   3.142   1.524 -0.1819  0.2414 -0.1250
 5382TIP3   OH237636   6.729   5.352  16.789 -0.2001  0.2713 -0.1164
 5382TIP3    H137637   6.677   5.409  16.845  0.4987  1.5404 -0.7463
 5382TIP3    H237638   6.810   5.339  16.838 -0.1091  0.3228 -0.2520
 5383TIP3   OH237639   5.872   4.937   0.622  0.6329  0.0848 -0.0393
 5383TIP3    H137640   5.850   4.896   0.706 -0.6051  1.0403  0.1097
 5383TIP3    H237641   5.920   5.016   0.646 -0.0729  0.5697 -0.2123
 5384TIP3   OH237642   6.391   6.439  12.759 -0.4882 -0.8050 -0.1128
 5384TIP3    H137643   6.319   6.404  12.707 -1.5283  1.0958  0.0231
 5384TIP3    H237644   6.411   6.524  12.720  0.9155 -0.7886  0.5724
 5385TIP3   OH237645   6.468   1.951   3.930 -0.5555  0.2803  0.0942
 5385TIP3    H137646   6.452   1.914   4.017 -0.5678 -0.1742 -0.0987
 5385TIP3    H237647   6.400   2.019   3.920 -2.2044 -1.4072 -0.5790
 5386TIP3   OH237648   4.122   3.307   4.310  0.6295 -0.2820  0.6111
 5386TIP3    H137649   4.147   3.324   4.400  1.2656 -0.4417  0.4667
 5386TIP3    H237650   4.104   3.394   4.273 -0.0208 -0.2489  0.9964
 5387TIP3   OH237651   6.035   5.837   3.418  0.0067  0.6198 -0.0564
 5387TIP3    H137652   6.070   5.756   3.381 -1.4372 -1.0606  2.0983
 5387TIP3    H237653   6.111   5.893   3.430  1.3685 -1.2868  0.4798
 5388TIP3   OH237654   6.393   4.979  12.327 -0.3433  0.5907 -0.2963
 5388TIP3    H137655   6.479   5.021  12.337 -0.2893  0.9234 -1.9991
 5388TIP3    H237656   6.331   5.051  12.330 -0.4511  0.5070 -0.5180
 5389TIP3   OH237657   4.370   4.483   4.193  0.5078 -0.0325 -0.0144
 5389TIP3    H137658   4.401   4.559   4.143  2.9781 -0.3812  0.9151
 5389TIP3    H237659   4.446   4.424   4.195 -1.1013 -2.1274  0.0607
 5390TIP3   OH237660   5.575   0.635   2.000 -0.4008 -0.3204  0.2810
 5390TIP3    H137661   5.570   0.721   1.958  0.0411  2.0727  4.8285
 5390TIP3    H237662   5.661   0.601   1.974 -0.1659  1.0145 -0.7724
 5391TIP3   OH237663   1.032   6.800  13.268  0.4298 -0.0585  0.6065
 5391TIP3    H137664   1.070   6.714  13.251  0.2119 -0.2910  1.2740
 5391TIP3    H237665   1.108   6.858  13.273  0.5665 -0.1781 -0.0116
 5392TIP3   OH237666   4.845   1.545   1.363  0.0827 -0.5062 -0.2446
 5392TIP3    H137667   4.793   1.617   1.328  1.9145  1.1478  0.3266
 5392TIP3    H237668   4.916   1.534   1.299 -0.2187 -1.8570 -0.3578
 5393TIP3   OH237669   2.462   0.130  16.874  0.0237 -0.2877 -0.3774
 5393TIP3    H137670   2.540   0.161  16.919 -0.6667  0.4180  0.3455
 5393TIP3    H237671   2.397   0.117  16.943 -0.3293 -1.4302 -0.8995
 5394TIP3   OH237672   6.046   0.064   2.580  0.5526 -0.4072  0.2792
 5394TIP3    H137673   6.033   0.151   2.617  0.7985 -0.0289 -0.5130
 5394TIP3    H237674   6.109   0.022   2.640 -1.3854 -0.9178  2.0052
 5395TIP3   OH237675   3.706   4.494   6.044  0.3892 -0.5792  0.5406
 5395TIP3    H137676   3.674   4.579   6.073 -0.2486 -1.3021  1.9868
 5395TIP3    H237677   3.800   4.497   6.059  0.3767 -0.1028  0.5269
 5396TIP3   OH237678   4.651   6.322   6.405 -0.4093 -0.1105 -0.3945
 5396TIP3    H137679   4.606   6.311   6.489 -0.2093 -2.1907 -0.5202
 5396TIP3    H237680   4.585   6.300   6.339 -0.4775  1.2280 -0.7867
 5397TIP3   OH237681   2.777   0.439   4.618 -0.0445  0.1363 -0.1844
 5397TIP3    H137682   2.769   0.403   4.707  0.3368  0.3357 -0.0679
 5397TIP3    H237683   2.858   0.490   4.621  0.7259 -1.0101 -1.0390
 5398TIP3   OH237684   0.367   3.235  16.701 -0.3127 -0.4161  0.9301
 5398TIP3    H137685   0.306   3.276  16.639 -0.1383 -0.3941  0.7709
 5398TIP3    H237686   0.340   3.144  16.705 -0.8779 -0.2220  1.4993
 5399TIP3   OH237687   2.350   5.863   3.282  0.9484  0.2393 -0.3906
 5399TIP3    H137688   2.261   5.876   3.251  0.5794 -0.0926  0.4994
 5399TIP3    H237689   2.399   5.937   3.247  0.0141  1.1977  0.2872
 5400TIP3   OH237690   3.986   4.403  15.736  0.0793 -0.7232 -0.6734
 5400TIP3    H137691   4.028   4.419  15.821 -0.3684  1.2802 -0.8046
 5400TIP3    H237692   3.976   4.308  15.732 -3.1337 -0.6437  3.1066
 5401TIP3   OH237693   4.657   0.886  13.352  0.1935 -0.3645  0.6294
 5401TIP3    H137694   4.574   0.926  13.325  0.7211  0.9832  0.9825
 5401TIP3    H237695   4.718   0.960  13.360  1.1663 -1.2367  1.3548
 5402TIP3   OH237696   2.162   3.246  16.362  0.0774  0.4160 -0.2872
 5402TIP3    H137697   2.225   3.297  16.412  0.3003  0.7744 -0.9239
 5402TIP3    H237698   2.094   3.223  16.425 -0.1476  1.7124 -0.0484
 5403TIP3   OH237699   5.206   3.111   1.726  0.6846 -0.2811  0.5943
 5403TIP3    H137700   5.175   3.055   1.797  1.1121 -1.6799 -0.3170
 5403TIP3    H237701   5.278   3.063   1.686  0.9459  0.8324 -0.3099
 5404TIP3   OH237702   6.637   5.116  14.883  0.1118  0.0904 -0.1180
 5404TIP3    H137703   6.684   5.141  14.804  0.9936 -0.1231  0.3385
 5404TIP3    H237704   6.546   5.142  14.866  0.5386  1.2457 -0.6693
 5405TIP3   OH237705   4.735   0.052   0.474 -0.1915 -0.3559 -0.2783
 5405TIP3    H137706   4.728   0.141   0.509  0.5008 -1.0203  1.6627
 5405TIP3    H237707   4.801   0.010   0.530 -0.6763 -2.1478 -1.0192
 5406TIP3   OH237708   2.829   1.172   2.962 -0.2945  0.3402  0.9245
 5406TIP3    H137709   2.826   1.107   3.033 -0.8705 -0.9714 -0.2689
 5406TIP3    H237710   2.738   1.195   2.947 -0.1119  1.1855  1.1150
 5407TIP3   OH237711   1.307   3.180   0.304  0.1910  0.0797 -0.0705
 5407TIP3    H137712   1.352   3.232   0.237 -0.8624  0.8162 -0.2089
 5407TIP3    H237713   1.273   3.104   0.256 -0.7416  0.7095 -0.4162
 5408TIP3   OH237714   0.839   0.052  16.733  0.6151  1.0039 -0.1268
 5408TIP3    H137715   0.923   0.092  16.711  1.3665  0.3952  1.5321
 5408TIP3    H237716   0.855   0.008  16.817 -1.3202  0.7663  0.1327
 5409TIP3   OH237717   6.546   3.241  17.116 -0.0474 -0.0108 -0.6031
 5409TIP3    H137718   6.620   3.182  17.128 -0.1033 -0.5918 -2.8359
 5409TIP3    H237719   6.513   3.257  17.204  2.7858  0.3515  0.4305
 5410TIP3   OH237720   0.859   6.262  11.045  0.0728  0.1441 -0.1778
 5410TIP3    H137721   0.843   6.193  10.981  0.7143  0.2396 -0.4409
 5410TIP3    H237722   0.910   6.328  10.998  1.4893 -0.2819  0.7196
 5411TIP3   OH237723   0.226   5.860  13.185  0.1990  0.1173 -0.4848
 5411TIP3    H137724   0.274   5.943  13.188 -0.3715  0.4041  1.7540
 5411TIP3    H237725   0.289   5.797  13.150  0.4800  1.5816 -2.6875
 5412TIP3   OH237726   5.246   6.133  12.672  0.0134  0.5534  0.0213
 5412TIP3    H137727   5.176   6.077  12.706  1.8253 -2.0216 -0.2830
 5412TIP3    H237728   5.243   6.120  12.577 -0.4073  2.0461 -0.1781
 5413TIP3   OH237729   4.621   1.694   5.622  0.5455  0.6517 -0.4768
 5413TIP3    H137730   4.596   1.655   5.538  0.9582  0.9287 -0.7381
 5413TIP3    H237731   4.629   1.621   5.682 -2.1705  0.6786 -0.0363
 5414TIP3   OH237732   3.642   2.099   2.342 -0.7091  0.1796 -0.2335
 5414TIP3    H137733   3.569   2.153   2.373 -1.1337  0.0723 -1.0397
 5414TIP3    H237734   3.703   2.162   2.304 -0.4823  0.2463  0.2359
 5415TIP3   OH237735   4.674   3.260  16.452 -0.9140  0.6424  0.3947
 5415TIP3    H137736   4.692   3.171  16.420  0.7368  0.8557  0.6907
 5415TIP3    H237737   4.661   3.312  16.372 -1.7963  0.1663  0.2160
 5416TIP3   OH237738   5.056   2.702  13.034 -0.1138  0.5164  0.4064
 5416TIP3    H137739   5.145   2.668  13.035 -0.3148 -0.0277 -0.0986
 5416TIP3    H237740   5.001   2.625  13.024 -0.6171  0.9003  0.1898
 5417TIP3   OH237741   2.618   0.972   2.398  1.3633  0.2615 -0.6494
 5417TIP3    H137742   2.622   1.068   2.403 -1.3384  0.3442  1.0844
 5417TIP3    H237743   2.531   0.954   2.364  0.3863 -1.6160  2.6229
 5418TIP3   OH237744   2.358   4.016  13.407  0.2501 -0.1435  0.1228
 5418TIP3    H137745   2.398   4.100  13.428  0.0648 -0.0692  0.1789
 5418TIP3    H237746   2.429   3.965  13.367  0.9887 -0.7382  2.0781
 5419TIP3   OH237747   1.512   1.435  14.023  0.4035  0.2677  0.5765
 5419TIP3    H137748   1.565   1.391  14.090  0.3071 -0.8515 -0.0761
 5419TIP3    H237749   1.512   1.527  14.050  1.0551 -0.0359  1.6604
 5420TIP3   OH237750   6.111   1.155   5.079 -0.2381 -0.2210 -0.2161
 5420TIP3    H137751   6.180   1.120   5.023  0.7141 -1.4569  1.6728
 5420TIP3    H237752   6.030   1.125   5.038  0.5032 -3.2197  0.3613
 5421TIP3   OH237753   1.654   0.908   5.060  0.5328 -0.3719 -0.0176
 5421TIP3    H137754   1.715   0.966   5.106 -0.0826  1.0291 -0.9035
 5421TIP3    H237755   1.688   0.904   4.970 -1.0105  0.9876 -0.6983
 5422TIP3   OH237756   4.060   0.308  14.025  0.7709 -0.2913 -0.4519
 5422TIP3    H137757   4.016   0.320  13.941 -1.7911  0.1014  0.8979
 5422TIP3    H237758   4.068   0.396  14.060  0.4072 -0.6028  0.4173
 5423TIP3   OH237759   5.046   6.230   0.469 -0.1637 -0.2686  0.3750
 5423TIP3    H137760   4.974   6.176   0.501  0.6058 -0.3135  2.0700
 5423TIP3    H237761   5.050   6.304   0.530  1.5024 -0.5016  0.5783
 5424TIP3   OH237762   1.387   3.589   0.879  0.0120 -0.2396  0.1271
 5424TIP3    H137763   1.406   3.527   0.809  2.4197  2.6914 -1.9181
 5424TIP3    H237764   1.473   3.611   0.915 -0.8697  1.2993  1.3498
 5425TIP3   OH237765   6.632   6.271  11.858 -0.1995  0.8975  0.3636
 5425TIP3    H137766   6.621   6.202  11.923 -0.0286  1.2990  0.8217
 5425TIP3    H237767   6.701   6.239  11.800 -1.5336 -0.2190 -0.6325
 5426TIP3   OH237768   0.486   4.876   1.743  0.2317  0.1407  0.2914
 5426TIP3    H137769   0.566   4.843   1.704  0.9286  1.0240  0.9402
 5426TIP3    H237770   0.456   4.944   1.682 -0.6897 -1.0128 -0.5635
 5427TIP3   OH237771   4.564   4.943   1.565  0.0664 -0.1535  0.3016
 5427TIP3    H137772   4.507   5.004   1.518 -0.7642  0.1916  1.7330
 5427TIP3    H237773   4.561   4.972   1.656  2.1308 -0.4590  0.4922
 5428TIP3   OH237774   0.834   4.721   5.668  0.3245  0.0509 -0.2823
 5428TIP3    H137775   0.814   4.658   5.736  2.1366 -0.2254  0.0170
 5428TIP3    H237776   0.763   4.785   5.673 -1.5530 -1.9571 -0.6218
 5429TIP3   OH237777   1.048   4.645  16.138 -0.0255  0.2153  0.3609
 5429TIP3    H137778   1.008   4.641  16.225 -0.7289 -1.2076  0.0057
 5429TIP3    H237779   1.025   4.560  16.099  1.2147  0.4127 -0.7956
 5430TIP3   OH237780   6.400   5.671   3.514  0.6871  0.0200 -0.5948
 5430TIP3    H137781   6.356   5.729   3.576  0.8398 -1.9040  1.3955
 5430TIP3    H237782   6.329   5.622   3.472  0.7195 -0.7569  0.2323
 5431TIP3   OH237783   4.561   5.654  14.245 -0.3233 -0.3956  0.2059
 5431TIP3    H137784   4.543   5.734  14.195  0.8071  0.1131  0.5936
 5431TIP3    H237785   4.519   5.584  14.195  0.2262  0.1905 -1.0994
 5432TIP3   OH237786   6.323   3.167   3.547  0.3965  0.4345 -0.5533
 5432TIP3    H137787   6.322   3.087   3.600  1.6332  0.5988 -0.2447
 5432TIP3    H237788   6.232   3.183   3.525 -0.1862  0.5299  1.7874
 5433TIP3   OH237789   3.171   3.073  13.337  0.1575 -0.3063 -0.1833
 5433TIP3    H137790   3.144   2.999  13.283  0.9144 -0.9810  0.3469
 5433TIP3    H237791   3.097   3.090  13.395  0.2401 -1.0850  0.1494
 5434TIP3   OH237792   6.661   4.212  11.842  0.0627 -0.0268 -1.0159
 5434TIP3    H137793   6.712   4.201  11.762 -0.1863 -1.1885 -1.0155
 5434TIP3    H237794   6.608   4.290  11.826  0.6876  0.2770 -1.6196
 5435TIP3   OH237795   0.649   0.085  15.112 -0.3159  0.3659 -0.0365
 5435TIP3    H137796   0.568   0.055  15.153 -0.7377 -0.3351 -1.3764
 5435TIP3    H237797   0.685   0.149  15.174 -0.3305 -1.5452  2.0198
 5436TIP3   OH237798   6.196   0.422   3.886 -0.1006 -0.3144 -0.3895
 5436TIP3    H137799   6.281   0.383   3.863  0.9778 -0.9362  4.1904
 5436TIP3    H237800   6.199   0.509   3.845  1.2261 -1.5947 -3.1965
 5437TIP3   OH237801   6.359   0.792   0.269 -0.6487  0.3099 -0.1585
 5437TIP3    H137802   6.284   0.736   0.249 -0.1474 -0.4055 -0.0779
 5437TIP3    H237803   6.374   0.841   0.189 -1.1084  0.3469 -0.2250
 5438TIP3   OH237804   4.395   2.822  11.959  0.5836 -0.4793 -0.5369
 5438TIP3    H137805   4.440   2.774  11.889  0.4776  1.5581 -2.0343
 5438TIP3    H237806   4.430   2.911  11.954 -0.8499  0.1840  0.7568
 5439TIP3   OH237807   1.932   2.540   5.044  0.7211  0.2890 -0.1306
 5439TIP3    H137808   1.923   2.564   5.136  1.3322  2.3071 -0.5592
 5439TIP3    H237809   1.900   2.450   5.039 -1.0367  0.7737  1.7093
 5440TIP3   OH237810   0.379   3.460  15.593  0.0319 -0.1969 -0.3059
 5440TIP3    H137811   0.420   3.441  15.508  1.0231  0.4693  0.0185
 5440TIP3    H237812   0.291   3.422  15.586  0.3529 -0.7686 -1.3726
 5441TIP3   OH237813   5.289   3.969  15.444  0.0307  0.1915 -0.6686
 5441TIP3    H137814   5.287   4.027  15.520 -2.2594  0.3241 -0.8018
 5441TIP3    H237815   5.376   3.983  15.405  0.3550  1.8210  0.6024
 5442TIP3   OH237816   0.674   6.664   2.864  0.9704 -0.0245  0.0369
 5442TIP3    H137817   0.656   6.636   2.953  0.9052  0.7936  0.2928
 5442TIP3    H237818   0.653   6.758   2.864  0.2106 -0.1917 -1.0438
 5443TIP3   OH237819   5.340   0.949   2.597  0.6522  0.1823  0.3205
 5443TIP3    H137820   5.390   0.907   2.667  1.5433  1.1167  0.2582
 5443TIP3    H237821   5.249   0.949   2.629  0.9059 -0.2672  1.0496
 5444TIP3   OH237822   6.352   5.904   0.245  0.1640 -0.3445 -0.5335
 5444TIP3    H137823   6.386   5.853   0.318 -0.1745  1.7451  1.1266
 5444TIP3    H237824   6.418   5.972   0.230 -1.5399  1.5576  0.3732
 5445TIP3   OH237825   5.827   1.883   2.876  0.0591 -0.4749 -0.7575
 5445TIP3    H137826   5.789   1.820   2.938 -1.0589  0.5123 -0.4303
 5445TIP3    H237827   5.891   1.932   2.928 -1.0443  0.5108 -0.3058
 5446TIP3   OH237828   6.045   0.025   5.707 -0.0970 -0.4087 -0.1447
 5446TIP3    H137829   5.963   0.003   5.751 -0.2847 -0.7540 -0.6629
 5446TIP3    H237830   6.113  -0.007   5.767 -0.2685  2.1428  1.5000
 5447TIP3   OH237831   4.908   3.274   3.223 -0.2380  0.5401 -0.7645
 5447TIP3    H137832   4.989   3.278   3.275 -0.7892 -0.9666  0.2338
 5447TIP3    H237833   4.873   3.187   3.241 -1.5695  0.8226 -1.9855
 5448TIP3   OH237834   3.470   2.001   1.296  0.4056 -0.3243 -0.2648
 5448TIP3    H137835   3.516   1.997   1.380  0.1632 -0.3994 -0.1337
 5448TIP3    H237836   3.517   2.066   1.245 -0.5175  1.0355  0.5773
 5449TIP3   OH237837   6.807   3.355  16.283  0.0404  0.0063  1.1440
 5449TIP3    H137838   6.733   3.296  16.270  1.2145 -1.0546 -1.0691
 5449TIP3    H237839   6.779   3.438  16.242  0.5982 -0.8354 -1.0040
 5450TIP3   OH237840   6.476   6.800   2.768  0.5816 -0.1648 -0.3773
 5450TIP3    H137841   6.505   6.737   2.834  1.4363 -0.3325 -0.9047
 5450TIP3    H237842   6.384   6.776   2.751  0.8934 -1.2692 -0.5630
 5451TIP3   OH237843   4.205   2.243  11.713 -0.1749  0.2429  0.2330
 5451TIP3    H137844   4.171   2.273  11.629 -1.2023 -0.1644  0.5026
 5451TIP3    H237845   4.173   2.307  11.777  1.2540  0.9913  0.2198
 5452TIP3   OH237846   3.332   0.231  13.268  0.1433 -0.2386 -0.4731
 5452TIP3    H137847   3.395   0.286  13.313  0.0225  1.7033 -2.5894
 5452TIP3    H237848   3.378   0.148  13.254  1.5797  0.5269 -0.3897
 5453TIP3   OH237849   4.443   2.625  14.548 -0.1258 -0.0996  0.2259
 5453TIP3    H137850   4.409   2.629  14.638  1.1118  0.0509  0.6909
 5453TIP3    H237851   4.459   2.531  14.534 -2.8331 -0.4651 -0.8082
 5454TIP3   OH237852   6.220   3.786   4.381  1.1447  0.1114  0.2613
 5454TIP3    H137853   6.315   3.793   4.391  1.2718  0.1225 -0.9664
 5454TIP3    H237854   6.205   3.694   4.363  1.0846  0.4083 -1.2539
 5455TIP3   OH237855   0.544   3.044   2.611 -0.2614 -0.2530  0.3514
 5455TIP3    H137856   0.563   2.959   2.651  0.9437  0.0664  0.4883
 5455TIP3    H237857   0.609   3.052   2.541 -0.9229  0.1816 -0.2224
 5456TIP3   OH237858   5.220   4.673  10.696  0.5568  0.4459 -0.0728
 5456TIP3    H137859   5.142   4.674  10.641  0.6840 -0.1509 -0.2725
 5456TIP3    H237860   5.202   4.738  10.764 -0.2064  0.1675  0.0063
 5457TIP3   OH237861   6.195   6.044  11.024 -0.4386  0.2039  0.2864
 5457TIP3    H137862   6.182   5.971  10.963  1.3855  2.3669 -2.8570
 5457TIP3    H237863   6.282   6.028  11.062  0.0356  0.7638 -0.5312
 5458TIP3   OH237864   4.383   3.074  12.124  0.5564  0.8077  0.4152
 5458TIP3    H137865   4.425   3.032  12.199  1.2823  0.2939 -0.2807
 5458TIP3    H237866   4.380   3.167  12.147  1.2090  0.7140  0.8774
 5459TIP3   OH237867   1.855   0.493   0.658 -0.3102  0.1118 -0.4079
 5459TIP3    H137868   1.896   0.485   0.744  2.1038  1.3096 -1.4119
 5459TIP3    H237869   1.799   0.416   0.651  2.4200 -2.0529  0.6636
 5460TIP3   OH237870   4.384   1.723  11.495 -0.6678  0.6418  0.3071
 5460TIP3    H137871   4.379   1.716  11.400 -1.5490 -1.1953  0.4834
 5460TIP3    H237872   4.467   1.769  11.511  1.0457 -1.7585 -1.2606
 5461TIP3   OH237873   6.100   5.377   0.674 -0.1040  0.3377 -0.3095
 5461TIP3    H137874   6.124   5.469   0.661 -0.4440  0.1322 -2.6084
 5461TIP3    H237875   6.005   5.377   0.680 -0.0864  0.1789 -0.0268
 5462TIP3   OH237876   1.683   0.764   2.708 -0.1755  0.1713  0.2812
 5462TIP3    H137877   1.678   0.753   2.614  0.1438 -1.2371  0.4288
 5462TIP3    H237878   1.774   0.788   2.725 -0.2192  0.3676  0.2437
 5463TIP3   OH237879   2.799   2.180   6.710  0.2834  0.9252 -0.6330
 5463TIP3    H137880   2.710   2.172   6.744 -0.5565  2.0061 -2.4734
 5463TIP3    H237881   2.839   2.249   6.764 -0.3941  1.2826 -0.5731
 5464TIP3   OH237882   3.176   3.836   1.125 -0.1571 -0.5906  0.4569
 5464TIP3    H137883   3.107   3.876   1.072  0.2852  0.2830  0.5217
 5464TIP3    H237884   3.135   3.759   1.165 -0.8655 -0.5120 -0.1184
 5465TIP3   OH237885   1.213   3.141  15.422  0.0431  0.0901  0.3689
 5465TIP3    H137886   1.218   3.118  15.515  0.2316 -1.8122 -0.0849
 5465TIP3    H237887   1.257   3.226  15.416 -0.2168  0.3652  2.0537
 5466TIP3   OH237888   1.806   5.179   4.532  0.3474  0.2085  0.2696
 5466TIP3    H137889   1.732   5.168   4.592 -0.5318  0.0281 -0.8160
 5466TIP3    H237890   1.859   5.100   4.545 -1.1989 -1.0808 -1.0225
 5467TIP3   OH237891   0.228   4.049  10.986  0.7321  0.5746  0.0157
 5467TIP3    H137892   0.199   3.981  10.925 -0.4544 -1.7884  3.1008
 5467TIP3    H237893   0.168   4.122  10.970 -0.1097 -0.3378 -1.0522
 5468TIP3   OH237894   0.245   1.681   4.867 -0.0663  0.2127  0.5215
 5468TIP3    H137895   0.261   1.775   4.873  0.6846 -0.0046  1.9332
 5468TIP3    H237896   0.317   1.641   4.916  1.0404 -1.2173 -2.1417
 5469TIP3   OH237897   5.827   0.878   4.438 -0.2123 -0.0633  0.3430
 5469TIP3    H137898   5.810   0.845   4.527 -2.9626 -0.8165 -0.4349
 5469TIP3    H237899   5.769   0.827   4.382  2.8501 -0.9569 -2.1802
 5470TIP3   OH237900   4.292   1.254  16.278 -0.1350  0.3087 -0.1973
 5470TIP3    H137901   4.204   1.247  16.316 -0.3208  0.9719 -0.4977
 5470TIP3    H237902   4.284   1.217  16.190 -0.2377  0.8308 -0.4104
 5471TIP3   OH237903   4.764   5.488   4.561  0.0993  0.4310 -0.0937
 5471TIP3    H137904   4.812   5.470   4.642  0.2450 -0.6184 -0.3995
 5471TIP3    H237905   4.807   5.432   4.496 -2.1597 -1.2722 -0.1641
 5472TIP3   OH237906   2.508   2.038  13.231 -0.4694  0.8841  0.5780
 5472TIP3    H137907   2.579   2.092  13.197  0.2344  1.7297  3.2436
 5472TIP3    H237908   2.443   2.100  13.263 -1.1010  0.1297  0.7879
 5473TIP3   OH237909   5.900   2.551   3.070  0.0670  0.2515 -0.4228
 5473TIP3    H137910   5.924   2.496   3.145  0.6491 -0.8152 -1.3539
 5473TIP3    H237911   5.847   2.621   3.106  0.3492 -0.2499  0.9824
 5474TIP3   OH237912   1.572   0.342   3.750  0.3733  0.5011 -0.5848
 5474TIP3    H137913   1.652   0.393   3.736 -0.1658  0.7766 -3.0458
 5474TIP3    H237914   1.503   0.407   3.760  0.1929  0.2607 -0.2404
 5475TIP3   OH237915   0.111   5.648   3.939 -0.0548 -0.0299 -0.2834
 5475TIP3    H137916   0.060   5.568   3.932 -1.3340  0.8137 -0.6862
 5475TIP3    H237917   0.185   5.634   3.880 -2.3233  0.6155 -3.4257
 5476TIP3   OH237918   1.236   0.963   6.600 -0.3976 -0.0103  0.2289
 5476TIP3    H137919   1.233   0.958   6.696 -0.5761  0.7076  0.2633
 5476TIP3    H237920   1.173   1.032   6.578  0.8399  0.9455 -0.3141
 5477TIP3   OH237921   2.423   1.124  12.759 -0.1127 -0.5714  0.4749
 5477TIP3    H137922   2.487   1.194  12.773 -2.9970  3.1788 -3.6686
 5477TIP3    H237923   2.352   1.145  12.821  0.3673 -1.7624  1.4590
 5478TIP3   OH237924   0.770   1.645   3.609 -0.4024 -0.4041  0.0497
 5478TIP3    H137925   0.783   1.589   3.532 -0.4815  1.8339 -1.6409
 5478TIP3    H237926   0.858   1.675   3.632 -0.2282 -1.9805  1.5993
 5479TIP3   OH237927   6.693   6.020  12.094 -0.5671 -0.1786  0.1562
 5479TIP3    H137928   6.712   6.019  12.188 -0.5064  1.3788  0.1650
 5479TIP3    H237929   6.603   6.052  12.088  0.2558  2.0690 -0.4456
 5480TIP3   OH237930   4.648   5.507  14.916 -0.3104  0.5204 -0.0691
 5480TIP3    H137931   4.648   5.567  14.841  0.8240 -0.2747 -0.7146
 5480TIP3    H237932   4.637   5.564  14.992 -2.2899  1.2751 -0.8778
 5481TIP3   OH237933   0.526   1.096  16.477 -0.0249  0.6334  0.2445
 5481TIP3    H137934   0.520   1.142  16.561 -0.2632 -1.3096  1.3127
 5481TIP3    H237935   0.438   1.104  16.440  0.0776  1.4830  0.1619
 5482TIP3   OH237936   1.489   3.854  12.206  0.1154 -0.6258 -0.4657
 5482TIP3    H137937   1.433   3.918  12.248  0.6060 -1.1678  1.0438
 5482TIP3    H237938   1.479   3.775  12.259  0.0035 -1.6216 -1.9277
 5483TIP3   OH237939   2.423   1.341  13.432 -0.2977 -0.3635 -0.2508
 5483TIP3    H137940   2.387   1.374  13.350 -0.4107  1.5364  0.5527
 5483TIP3    H237941   2.491   1.279  13.405 -0.0634  0.5354 -1.7639
 5484TIP3   OH237942   4.564   3.006   4.656 -0.3476  0.8063 -0.2526
 5484TIP3    H137943   4.611   2.953   4.591 -2.9442 -0.6749 -1.0172
 5484TIP3    H237944   4.601   2.980   4.740  0.2402 -0.3048 -0.8449
 5485TIP3   OH237945   3.264   0.788   4.385 -0.7560  0.3929 -0.3836
 5485TIP3    H137946   3.321   0.740   4.446 -0.5712  0.4114 -0.5412
 5485TIP3    H237947   3.317   0.862   4.356 -0.2026 -0.5682 -1.9118
 5486TIP3   OH237948   3.455   6.035  13.962  0.7178 -0.6401 -0.1962
 5486TIP3    H137949   3.525   6.094  13.991 -0.5110  0.8087 -0.1167
 5486TIP3    H237950   3.424   6.075  13.880  0.8747 -2.0111 -0.9319
 5487TIP3   OH237951   0.303   4.886  11.503  0.2712 -0.4117  0.1440
 5487TIP3    H137952   0.308   4.981  11.508 -1.1688 -0.2627 -0.8767
 5487TIP3    H237953   0.232   4.862  11.562  0.7230 -0.8803  0.5092
 5488TIP3   OH237954   3.573   1.719   1.223  0.1925  0.2820 -0.3306
 5488TIP3    H137955   3.493   1.762   1.192  0.8772  0.6724 -1.5922
 5488TIP3    H237956   3.576   1.739   1.316 -0.2343  1.8073 -0.6261
 5489TIP3   OH237957   0.098   3.374   6.170  0.3215 -0.2542  0.1323
 5489TIP3    H137958   0.036   3.306   6.195 -0.9143  0.4166 -1.0365
 5489TIP3    H237959   0.169   3.328   6.125  1.3909 -1.1884  2.7051
 5490TIP3   OH237960   4.214   5.215   2.333 -0.2736 -0.1787 -0.0597
 5490TIP3    H137961   4.129   5.174   2.317  0.3152  0.0762 -4.2767
 5490TIP3    H237962   4.275   5.142   2.339 -0.4797 -0.2712  0.9829
 5491TIP3   OH237963   1.110   0.433  13.846 -0.0804 -0.2604  0.3041
 5491TIP3    H137964   1.104   0.389  13.761  2.2349 -0.5177  0.2388
 5491TIP3    H237965   1.196   0.407  13.880 -0.6599  0.4704  2.3767
 5492TIP3   OH237966   0.838   2.812   1.190 -0.5830  0.0452 -0.2491
 5492TIP3    H137967   0.824   2.743   1.125  1.9182 -0.8912  0.1550
 5492TIP3    H237968   0.927   2.843   1.174 -0.3512  0.6278  1.9488
 5493TIP3   OH237969   0.304   0.687   1.716 -0.0806  0.0648  0.3318
 5493TIP3    H137970   0.314   0.596   1.688 -0.3403 -0.4943  2.0492
 5493TIP3    H237971   0.303   0.683   1.811  0.4435  1.9282  0.4280
 5494TIP3   OH237972   1.742   3.013  13.912 -0.7528  0.8387  0.0960
 5494TIP3    H137973   1.667   3.008  13.972 -0.3265  2.3356  0.7886
 5494TIP3    H237974   1.706   3.055  13.833 -1.3260 -1.1785 -0.7573
 5495TIP3   OH237975   1.409   6.457   2.950  0.6962  0.0161  0.2228
 5495TIP3    H137976   1.405   6.372   2.905  1.1194 -0.8491  1.7555
 5495TIP3    H237977   1.433   6.434   3.040 -0.9132  1.6263  1.0763
 5496TIP3   OH237978   1.013   2.559   1.869  0.4747 -0.1950 -0.2677
 5496TIP3    H137979   0.936   2.564   1.926 -0.3916 -0.4536 -1.3986
 5496TIP3    H237980   1.039   2.466   1.872  1.5188  0.1194  1.0981
 5497TIP3   OH237981   4.869   6.290   5.632  0.4987 -0.4787 -0.0946
 5497TIP3    H137982   4.849   6.380   5.658  1.2598 -0.7337  1.4047
 5497TIP3    H237983   4.786   6.244   5.635  0.2505 -0.0260 -0.0618
 5498TIP3   OH237984   5.092   2.751   1.011 -0.0861  0.2754 -0.1362
 5498TIP3    H137985   5.003   2.767   0.980 -1.0073 -0.6449  1.9329
 5498TIP3    H237986   5.122   2.675   0.960  0.2086  1.6586 -2.0894
 5499TIP3   OH237987   4.907   2.353   4.953 -0.3897  0.4050 -0.3223
 5499TIP3    H137988   4.852   2.417   4.907 -0.9451 -1.1949 -1.9430
 5499TIP3    H237989   4.847   2.304   5.009 -0.5360 -0.9132 -1.6087
 5500TIP3   OH237990   2.302   4.824   2.471 -0.6791  0.1435  0.0321
 5500TIP3    H137991   2.275   4.872   2.392  0.3581  0.6255 -0.0406
 5500TIP3    H237992   2.324   4.893   2.534 -0.9339 -0.2410  0.5421
 5501TIP3   OH237993   1.967   2.193  17.155 -0.6921  0.3171 -0.5799
 5501TIP3    H137994   1.932   2.215  17.242  0.2203 -0.8716  0.0926
 5501TIP3    H237995   2.015   2.271  17.128 -1.8898  1.0942 -0.4947
 5502TIP3   OH237996   5.447   2.245   5.815  0.4129 -0.2829 -0.7034
 5502TIP3    H137997   5.506   2.306   5.860  0.3270  0.0244 -1.0060
 5502TIP3    H237998   5.500   2.166   5.801  0.9334  0.2066 -1.5116
 5503TIP3   OH237999   3.365   0.295  16.304 -0.2946 -0.0332 -0.0005
 5503TIP3    H138000   3.369   0.346  16.223 -0.2639 -3.0846 -2.0047
 5503TIP3    H238001   3.305   0.223  16.284 -1.8922  0.2432  3.3910
 5504TIP3   OH238002   1.520   5.284   0.288 -0.3000  0.0903 -0.0221
 5504TIP3    H138003   1.429   5.254   0.299 -0.4550  1.1575  1.9115
 5504TIP3    H238004   1.544   5.256   0.200 -3.0814  1.2589 -1.2072
 5505TIP3   OH238005   2.224   4.897  12.716 -0.3514  0.1917 -0.1130
 5505TIP3    H138006   2.178   4.945  12.647 -0.5247  0.3149  0.0877
 5505TIP3    H238007   2.288   4.959  12.750  0.0948 -0.0404 -0.5183
 5506TIP3   OH238008   5.705   0.303  13.365  0.3785 -0.2707  0.1477
 5506TIP3    H138009   5.797   0.327  13.359  1.2325 -3.5301 -0.3183
 5506TIP3    H238010   5.668   0.328  13.280  0.7067  1.4326  0.4888
 5507TIP3   OH238011   3.680   4.276  13.878 -0.2241  0.5529  0.1613
 5507TIP3    H138012   3.699   4.251  13.968  0.8437  3.4529  0.8173
 5507TIP3    H238013   3.764   4.271  13.833 -0.3876  0.8925 -0.1928
 5508TIP3   OH238014   4.537   4.010   2.785 -0.0193 -0.3843  0.0760
 5508TIP3    H138015   4.606   4.049   2.731  0.8695 -1.1797  0.6219
 5508TIP3    H238016   4.457   4.024   2.735  0.6402 -0.0975 -0.9155
 5509TIP3   OH238017   4.915   0.384   4.656 -0.2445 -0.2731  0.0720
 5509TIP3    H138018   4.887   0.381   4.747 -0.0612  0.5564  0.1655
 5509TIP3    H238019   4.835   0.402   4.606  0.1361  2.4822  0.3730
 5510TIP3   OH238020   3.958   5.440  14.711 -0.4328  0.1928 -0.3616
 5510TIP3    H138021   3.988   5.523  14.748  2.3965 -0.7743 -0.3435
 5510TIP3    H238022   3.862   5.448  14.708 -0.4762  1.9765  3.0982
 5511TIP3   OH238023   0.626   0.490   2.362  0.1638 -0.3626 -0.2902
 5511TIP3    H138024   0.577   0.437   2.299 -2.4351  0.9073  0.5561
 5511TIP3    H238025   0.591   0.579   2.349  1.5740  0.4020  1.0563
 5512TIP3   OH238026   5.698   2.376  13.902 -0.1617  0.4914  0.1831
 5512TIP3    H138027   5.782   2.420  13.912  1.0358 -1.5660 -0.6855
 5512TIP3    H238028   5.685   2.331  13.985  0.4093 -0.5600 -0.2899
 5513TIP3   OH238029   1.793   0.298   0.327 -0.3949 -0.1132 -0.1183
 5513TIP3    H138030   1.839   0.219   0.300  1.9843  1.1223  0.1874
 5513TIP3    H238031   1.759   0.336   0.246  1.0367  0.1017 -0.6305
 5514TIP3   OH238032   4.968   1.157   3.719 -0.5951  0.0051  0.0995
 5514TIP3    H138033   4.985   1.144   3.813 -1.3222 -2.0290 -0.0334
 5514TIP3    H238034   5.053   1.142   3.678 -0.1586  1.4006  0.4613
 5515TIP3   OH238035   2.120   2.909  12.163 -0.1992 -0.1891  0.2589
 5515TIP3    H138036   2.032   2.944  12.172 -0.3396 -0.9780  2.1165
 5515TIP3    H238037   2.109   2.814  12.156  0.5352 -0.4221  1.8150
 5516TIP3   OH238038   1.277   2.793   5.188  0.0028 -0.2536  0.2423
 5516TIP3    H138039   1.230   2.726   5.238  0.7178  0.5064  1.9866
 5516TIP3    H238040   1.233   2.875   5.213 -0.0578  0.0616 -0.8991
 5517TIP3   OH238041   1.742   3.450   2.327 -0.5808 -0.2444 -0.2018
 5517TIP3    H138042   1.718   3.540   2.305  1.0014  0.1848 -0.2301
 5517TIP3    H238043   1.679   3.424   2.394  0.0389  1.5104  1.0854
 5518TIP3   OH238044   6.747   2.174   5.167  0.3046  0.3019  0.2110
 5518TIP3    H138045   6.690   2.200   5.239  1.2743  2.4541  0.2506
 5518TIP3    H238046   6.823   2.135   5.210  1.5096  2.8493  0.4517
 5519TIP3   OH238047   0.314   6.596  14.000  0.4553 -0.2398 -0.0468
 5519TIP3    H138048   0.245   6.536  14.029 -0.9492  1.6623  0.6842
 5519TIP3    H238049   0.389   6.575  14.055  0.1141 -1.6139 -0.1005
 5520TIP3   OH238050   0.799   1.254   3.773 -0.5597  0.0147  0.2180
 5520TIP3    H138051   0.781   1.255   3.867  0.2655 -0.7544  0.3801
 5520TIP3    H238052   0.853   1.332   3.758 -0.2431 -0.1624  0.4585
 5521TIP3   OH238053   2.456   6.730   3.796 -0.2920  0.2277 -0.2818
 5521TIP3    H138054   2.505   6.736   3.879 -0.4968  1.4352 -0.2425
 5521TIP3    H238055   2.395   6.657   3.810 -0.3023  0.3982  0.6154
 5522TIP3   OH238056   4.400   3.103   0.226  0.1263 -0.0598 -0.2823
 5522TIP3    H138057   4.431   3.150   0.303  0.6594 -0.2614 -0.3706
 5522TIP3    H238058   4.313   3.071   0.250  1.2444 -2.1781  1.1130
 5523TIP3   OH238059   4.876   2.164   0.227  0.4242 -0.0383  0.7560
 5523TIP3    H138060   4.902   2.097   0.291  0.2577 -0.1338  0.7221
 5523TIP3    H238061   4.909   2.132   0.143 -0.1860 -0.3661  0.6472
 5524TIP3   OH238062   5.109   2.031  16.234 -0.5320 -0.1797  0.0701
 5524TIP3    H138063   5.114   2.057  16.142  1.5112 -1.3564 -0.2017
 5524TIP3    H238064   5.120   1.935  16.233  0.0394 -0.1529  1.5537
 5525TIP3   OH238065   2.991   3.611  16.141  0.4206  0.2594 -0.0875
 5525TIP3    H138066   2.968   3.557  16.066 -2.6263 -1.0849  1.7404
 5525TIP3    H238067   2.942   3.692  16.129  2.9819  1.6992 -1.4761
 5526TIP3   OH238068   6.144   0.865  16.975  0.0129 -0.4670  0.3239
 5526TIP3    H138069   6.060   0.828  17.003 -0.6200 -0.2486 -1.2552
 5526TIP3    H238070   6.157   0.831  16.887  0.8867  0.6611  0.0076
 5527TIP3   OH238071   4.515   5.609   6.358  0.3423 -0.1721 -0.1565
 5527TIP3    H138072   4.434   5.659   6.366  0.6793  0.7661 -2.3537
 5527TIP3    H238073   4.585   5.672   6.376  0.6436 -0.7729  0.8614
 5528TIP3   OH238074   5.635   5.897  14.330  0.5280  0.4947 -0.2876
 5528TIP3    H138075   5.617   5.828  14.267  0.8111  0.9229 -0.8368
 5528TIP3    H238076   5.614   5.978  14.285  0.0097  0.7629  0.4224
 5529TIP3   OH238077   0.065   2.395  11.362  0.2712  0.2374 -0.7160
 5529TIP3    H138078   0.054   2.384  11.456  2.5468  1.1765 -0.3148
 5529TIP3    H238079   0.135   2.334  11.339 -0.0052  0.3027 -1.7443
 5530TIP3   OH238080   4.754   2.590   3.216 -0.5549 -0.4652 -0.2590
 5530TIP3    H138081   4.816   2.663   3.228 -0.9316 -0.0322 -0.9594
 5530TIP3    H238082   4.700   2.593   3.295 -0.6598  0.1004 -0.3454
 5531TIP3   OH238083   5.459   6.608   1.017 -0.5040 -0.1612 -0.0796
 5531TIP3    H138084   5.414   6.526   1.000  1.0110 -0.7738 -1.2478
 5531TIP3    H238085   5.509   6.592   1.098 -1.0836 -0.0190  0.3073
 5532TIP3   OH238086   1.204   6.599  12.608 -0.3134 -0.3649  0.5132
 5532TIP3    H138087   1.241   6.562  12.528 -0.1558 -1.1547  0.9408
 5532TIP3    H238088   1.251   6.554  12.679 -0.3334  0.4476  1.0478
 5533TIP3   OH238089   6.385   2.361  12.481  0.4895 -0.7844 -0.1655
 5533TIP3    H138090   6.394   2.454  12.458 -0.8760  0.0136  2.2626
 5533TIP3    H238091   6.447   2.349  12.553 -0.3201 -1.3898  0.4404
 5534TIP3   OH238092   3.591   2.460  12.358 -0.1710 -0.1237  0.0678
 5534TIP3    H138093   3.677   2.492  12.386  0.7571 -2.9280  0.6877
 5534TIP3    H238094   3.536   2.537  12.355  1.8438  1.4500  1.7530
 5535TIP3   OH238095   3.727   1.476   3.663 -0.3562  0.6617 -0.4115
 5535TIP3    H138096   3.642   1.520   3.656 -0.3438  0.8988  0.8234
 5535TIP3    H238097   3.776   1.528   3.726  0.6624  0.4448 -1.0166
 5536TIP3   OH238098   3.733   3.431  11.973 -0.2496  0.0600 -0.0795
 5536TIP3    H138099   3.822   3.464  11.961  0.8748 -2.0329  2.0187
 5536TIP3    H238100   3.745   3.341  12.002 -3.1402 -1.1422 -2.3675
 5537TIP3   OH238101   5.870   4.141   5.141 -0.0269  0.0324  0.5532
 5537TIP3    H138102   5.956   4.106   5.161  0.0962 -0.0224 -0.0653
 5537TIP3    H238103   5.841   4.091   5.064  0.3571  1.6233 -0.6341
 5538TIP3   OH238104   4.188   2.902   2.302 -0.1528 -0.9005 -0.2852
 5538TIP3    H138105   4.273   2.937   2.275 -0.2500  0.6259  1.3163
 5538TIP3    H238106   4.126   2.972   2.282 -0.6647 -1.0006  0.9175
 5539TIP3   OH238107   5.034   5.515   3.035  0.2467  0.6906 -0.3062
 5539TIP3    H138108   4.941   5.517   3.057  0.2623 -0.7926 -0.0273
 5539TIP3    H238109   5.036   5.516   2.939 -0.0905 -0.1613 -0.3243
 5540TIP3   OH238110   5.989   3.058   4.798 -0.6437 -0.4296  0.3685
 5540TIP3    H138111   6.037   3.088   4.876 -2.1092  1.7651  0.4619
 5540TIP3    H238112   5.953   3.138   4.760 -0.5756 -1.5818 -2.1662
 5541TIP3   OH238113   3.301   6.550  13.859  0.5613 -0.5708 -0.2483
 5541TIP3    H138114   3.272   6.626  13.910  2.6244 -0.0725  0.2186
 5541TIP3    H238115   3.230   6.487  13.868 -1.2306  1.3059 -0.7083
 5542TIP3   OH238116   0.461   5.749  13.646 -0.4296 -0.7383  0.6597
 5542TIP3    H138117   0.475   5.811  13.717 -0.8693 -1.2577  1.1985
 5542TIP3    H238118   0.400   5.685  13.681  0.4114 -1.7662  0.2904
 5543TIP3   OH238119   1.482   6.478   1.670  0.2145  0.6866 -0.1490
 5543TIP3    H138120   1.496   6.570   1.646 -2.5176  1.4822  1.0967
 5543TIP3    H238121   1.422   6.445   1.604 -0.1532  0.3065  0.3720
 5544TIP3   OH238122   3.982   2.542   4.384 -0.2824  0.4310 -0.0580
 5544TIP3    H138123   4.032   2.606   4.435  0.8206 -0.3762 -0.1006
 5544TIP3    H238124   3.998   2.566   4.293  0.1115  0.1241 -0.0733
 5545TIP3   OH238125   5.006   2.019  13.611 -0.7835  0.7619  0.5763
 5545TIP3    H138126   5.087   2.035  13.658  0.5867  1.3223 -1.8737
 5545TIP3    H238127   4.937   2.056  13.667  0.9604  3.1146  1.2445
 5546TIP3   OH238128   5.810   2.006  14.468  0.0992 -0.3094  0.3102
 5546TIP3    H138129   5.763   2.089  14.480  1.9693  0.6461  1.3217
 5546TIP3    H238130   5.793   1.956  14.548 -0.2510 -0.4926  0.1195
 5547TIP3   OH238131   1.155   3.596   5.519 -0.1674  0.5040 -0.3045
 5547TIP3    H138132   1.139   3.672   5.575 -1.7389 -1.1048  1.4993
 5547TIP3    H238133   1.245   3.607   5.488 -0.1126  2.6731  0.5477
 5548TIP3   OH238134   0.260   5.693   2.929 -0.3028 -0.0131 -0.4608
 5548TIP3    H138135   0.272   5.609   2.884  0.7079  0.2840 -0.7624
 5548TIP3    H238136   0.299   5.680   3.015 -1.8979 -0.4601  0.2222
 5549TIP3   OH238137   4.435   4.152  15.995 -0.0409 -0.4916 -0.0314
 5549TIP3    H138138   4.350   4.166  16.038  1.0861 -0.2024  2.1679
 5549TIP3    H238139   4.444   4.226  15.935 -0.4407  0.6201  1.2409
 5550TIP3   OH238140   2.427   6.514  13.507 -0.4341  0.2344  0.1022
 5550TIP3    H138141   2.479   6.593  13.492  0.0055 -0.3351 -1.6165
 5550TIP3    H238142   2.347   6.528  13.456 -0.4808 -0.2866  0.0275
 5551TIP3   OH238143   1.360   6.096  15.289  0.0492  0.4292  0.4654
 5551TIP3    H138144   1.382   6.064  15.377  2.0897 -1.6984 -0.7506
 5551TIP3    H238145   1.397   6.031  15.230 -1.0677  1.9521 -2.0156
 5552TIP3   OH238146   0.646   3.851  14.394  0.0519 -0.0352  0.2587
 5552TIP3    H138147   0.653   3.911  14.319  0.4510 -0.4141 -0.0105
 5552TIP3    H238148   0.625   3.766  14.355 -0.1195 -0.1541  0.6071
 5553TIP3   OH238149   0.990   0.214   3.946  0.0704 -0.3830  0.1286
 5553TIP3    H138150   1.059   0.216   3.880 -0.8745 -0.5419 -0.8618
 5553TIP3    H238151   0.910   0.238   3.899 -0.3768  0.9132  1.4925
 5554TIP3   OH238152   6.360   4.918  16.859  0.3979 -0.7482  0.3008
 5554TIP3    H138153   6.313   4.851  16.910  0.4023 -0.4451  0.7001
 5554TIP3    H238154   6.393   4.979  16.924  2.8541 -1.8765  0.1642
 5555TIP3   OH238155   5.364   4.687  11.814  0.5561 -0.0908  0.3870
 5555TIP3    H138156   5.310   4.692  11.735  1.2749  0.0438 -0.1012
 5555TIP3    H238157   5.396   4.597  11.816 -1.8072 -0.9402  2.1135
 5556TIP3   OH238158   4.779   6.430  11.726 -0.2526 -0.2022  0.3964
 5556TIP3    H138159   4.838   6.488  11.775 -0.6888  1.0719 -0.5621
 5556TIP3    H238160   4.737   6.376  11.794  0.2791  0.4854  1.2861
 5557TIP3   OH238161   0.844   1.537   0.275  0.6711  0.3040 -0.7657
 5557TIP3    H138162   0.851   1.590   0.355 -2.5334  1.1194 -0.9635
 5557TIP3    H238163   0.855   1.447   0.304  3.2316  0.8254  0.0158
 5558TIP3   OH238164   0.943   1.827  12.348  0.6555 -0.4370  0.1655
 5558TIP3    H138165   0.985   1.896  12.296 -1.2735 -0.0465 -0.8913
 5558TIP3    H238166   0.996   1.749  12.331  0.5865 -0.1035 -1.6651
 5559TIP3   OH238167   4.333   1.624   6.528 -0.0651 -0.2559  0.4001
 5559TIP3    H138168   4.356   1.566   6.601  0.2987 -1.3106 -0.5235
 5559TIP3    H238169   4.414   1.633   6.479 -0.3363  0.3389  0.0634
 5560TIP3   OH238170   1.830   6.061   5.450 -0.5845 -0.3454 -0.4550
 5560TIP3    H138171   1.826   6.138   5.392  2.1407  0.0928 -0.1585
 5560TIP3    H238172   1.768   5.999   5.413 -1.0940  1.1046 -2.0900
 5561TIP3   OH238173   1.543   1.088  11.457  0.1646 -0.0491 -0.2204
 5561TIP3    H138174   1.462   1.052  11.495  0.2532  2.0791  2.1081
 5561TIP3    H238175   1.613   1.038  11.498  0.1510  0.2636  0.1831
 5562TIP3   OH238176   2.028   3.715  13.445 -0.8347 -0.4323 -0.0753
 5562TIP3    H138177   1.952   3.723  13.388  0.5963 -0.9577 -2.0984
 5562TIP3    H238178   2.097   3.763  13.400  0.3993 -1.0662  1.1127
 5563TIP3   OH238179   3.558   0.096   4.993 -0.2215  0.4622  0.1887
 5563TIP3    H138180   3.628   0.126   4.935  0.4554 -1.2708  0.0687
 5563TIP3    H238181   3.502   0.042   4.937 -1.9846  2.2457  0.1605
 5564TIP3   OH238182   2.366   3.335   3.409  0.2395  0.5424  0.0647
 5564TIP3    H138183   2.425   3.261   3.400 -1.7582 -1.0293 -0.3510
 5564TIP3    H238184   2.424   3.410   3.423  2.3525 -0.8378 -1.0097
 5565TIP3   OH238185   3.736   5.868   4.999  0.0518 -0.4220 -0.1029
 5565TIP3    H138186   3.729   5.891   5.092  1.8780 -2.3286  0.5321
 5565TIP3    H238187   3.709   5.948   4.953 -0.1533  0.7939  2.0522
 5566TIP3   OH238188   0.079   5.195   2.322  0.2234  0.2815  0.1312
 5566TIP3    H138189   0.076   5.099   2.325  1.9185  0.2052 -0.3163
 5566TIP3    H238190   0.048   5.222   2.409 -1.5575 -0.6228 -0.1971
 5567TIP3   OH238191   2.578   4.031   5.685  0.2225 -0.1769 -0.0836
 5567TIP3    H138192   2.553   4.084   5.609  1.5323 -0.7040 -0.8983
 5567TIP3    H238193   2.628   3.958   5.647 -0.3884 -1.2564  1.1483
 5568TIP3   OH238194   6.205   3.676   0.173  0.0845 -0.4172  0.7658
 5568TIP3    H138195   6.205   3.754   0.228  1.1255  0.1262  0.0169
 5568TIP3    H238196   6.121   3.634   0.190 -1.1308  1.6506  0.0834
 5569TIP3   OH238197   4.031   0.450  16.497  0.5485 -0.2949  0.3044
 5569TIP3    H138198   4.055   0.502  16.573 -0.0606  1.5242 -0.7256
 5569TIP3    H238199   4.065   0.362  16.516  2.2320  0.6452  1.7438
 5570TIP3   OH238200   6.467   1.985   3.449  0.5041 -0.5974  0.2491
 5570TIP3    H138201   6.426   1.926   3.385  1.0741 -0.3786 -0.3231
 5570TIP3    H238202   6.472   1.934   3.530  1.0009 -1.3375 -0.2490
 5571TIP3   OH238203   1.874   2.993  12.157  0.1374 -0.0507 -0.2238
 5571TIP3    H138204   1.869   3.010  12.251  0.1041 -1.7458  0.0996
 5571TIP3    H238205   1.787   2.959  12.134  0.5534 -0.8874 -0.5997
 5572TIP3   OH238206   4.636   0.547   0.327 -0.3916 -0.4038 -0.5997
 5572TIP3    H138207   4.690   0.548   0.247 -2.3827 -1.7140 -2.0076
 5572TIP3    H238208   4.546   0.548   0.295 -1.2336  1.3666  1.7045
 5573TIP3   OH238209   2.543   3.963   2.858 -0.3734 -0.2017 -0.2599
 5573TIP3    H138210   2.495   4.020   2.919  1.7278  1.9623 -0.5485
 5573TIP3    H238211   2.559   3.883   2.907 -0.6515  0.6611  1.2669
 5574TIP3   OH238212   1.872   4.959  15.306 -0.0978  0.0297 -0.3208
 5574TIP3    H138213   1.802   5.004  15.259 -0.7231 -0.2616  0.3277
 5574TIP3    H238214   1.827   4.894  15.361  0.7033 -0.4650 -0.2380
 5575TIP3   OH238215   4.909   6.601  15.291 -0.4046 -0.4255  0.2858
 5575TIP3    H138216   4.960   6.577  15.213 -1.6284 -1.2727 -0.2878
 5575TIP3    H238217   4.820   6.571  15.271 -1.8423  3.6633 -0.0043
 5576TIP3   OH238218   1.980   5.232   5.714  0.0491 -0.0951 -0.4367
 5576TIP3    H138219   1.990   5.243   5.808 -0.0815 -0.2016 -0.4103
 5576TIP3    H238220   1.931   5.309   5.685  0.3640  0.0966 -0.4659
 5577TIP3   OH238221   5.684   2.122  13.495 -0.3593  0.2129 -0.0720
 5577TIP3    H138222   5.604   2.104  13.545  1.2108 -1.1955  2.0188
 5577TIP3    H238223   5.704   2.040  13.450 -1.3174  1.2407 -2.4277
 5578TIP3   OH238224   0.864   6.399  12.519  0.1116  0.2292 -0.3480
 5578TIP3    H138225   0.936   6.343  12.492  0.2467 -0.5453  1.5492
 5578TIP3    H238226   0.891   6.433  12.605 -0.2483  2.6841 -1.1513
 5579TIP3   OH238227   6.593   0.310  12.080  0.1976  0.1230 -0.0556
 5579TIP3    H138228   6.599   0.305  12.175 -1.3412 -0.5935  0.0099
 5579TIP3    H238229   6.505   0.278  12.059  0.4354  0.4852 -1.6980
 5580TIP3   OH238230   3.420   1.415  16.716 -0.5520 -0.3192 -0.5283
 5580TIP3    H138231   3.443   1.482  16.780 -0.9265 -0.0892 -0.6305
 5580TIP3    H238232   3.335   1.382  16.745 -0.4323 -0.6551 -0.5527
 5581TIP3   OH238233   2.485   4.537  11.389  0.2850 -0.0910  0.3227
 5581TIP3    H138234   2.494   4.512  11.297 -0.2799  1.7879 -0.2658
 5581TIP3    H238235   2.393   4.519  11.410  0.1702  0.3932  0.2366
 5582TIP3   OH238236   2.678   6.414   4.130 -0.2835 -0.4110  0.1357
 5582TIP3    H138237   2.713   6.407   4.218 -1.0519  0.3854  0.5168
 5582TIP3    H238238   2.752   6.396   4.072  0.0993 -1.4726  0.9396
 5583TIP3   OH238239   1.173   0.782   5.170  0.1563  0.2497  0.4696
 5583TIP3    H138240   1.086   0.743   5.179  1.0057 -1.7615  0.0715
 5583TIP3    H238241   1.174   0.816   5.081 -0.1404  0.0684  0.3944
 5584TIP3   OH238242   5.276   5.066   0.707 -0.3107 -0.2797 -0.4187
 5584TIP3    H138243   5.191   5.092   0.671  0.8978  2.3719 -1.5403
 5584TIP3    H238244   5.330   5.051   0.630  0.6722 -0.3961  0.2918
 5585TIP3   OH238245   1.132   5.960  17.166 -0.3374  0.0834 -0.1612
 5585TIP3    H138246   1.163   5.883  17.118 -1.8133 -0.1443 -0.7887
 5585TIP3    H238247   1.057   5.928  17.216 -0.7604  1.0390 -0.1750
 5586TIP3   OH238248   5.519   1.709  11.640  0.6991  0.0977 -0.2092
 5586TIP3    H138249   5.448   1.691  11.702 -0.8971  1.3389 -1.6359
 5586TIP3    H238250   5.596   1.669  11.680 -0.4382  0.2660  2.2362
 5587TIP3   OH238251   5.252   4.239   1.299  0.5558  0.0458  0.1467
 5587TIP3    H138252   5.285   4.311   1.245  0.0905 -0.6243 -1.0402
 5587TIP3    H238253   5.168   4.271   1.332 -0.1498 -0.3213 -1.2204
 5588TIP3   OH238254   5.159   3.252   3.043  0.0346 -0.4661  0.4883
 5588TIP3    H138255   5.150   3.210   3.128 -0.1130 -0.7761  0.3246
 5588TIP3    H238256   5.133   3.343   3.057  0.8172 -0.3126  0.9505
 5589TIP3   OH238257   2.225   1.218   6.312  0.4797 -0.3498 -0.4052
 5589TIP3    H138258   2.226   1.312   6.295  0.7133 -0.4742 -1.0957
 5589TIP3    H238259   2.220   1.211   6.407 -3.2180  0.3875 -0.4509
 5590TIP3   OH238260   6.666   4.654   2.840  0.0259  0.2633 -0.6795
 5590TIP3    H138261   6.595   4.687   2.785 -1.1998 -1.9266 -0.4616
 5590TIP3    H238262   6.622   4.619   2.917  1.2110 -2.2332 -1.0843
 5591TIP3   OH238263   4.179   1.969  11.716 -0.2523 -0.0965  0.3519
 5591TIP3    H138264   4.191   2.061  11.693 -1.3617 -0.1866 -0.7009
 5591TIP3    H238265   4.087   1.964  11.744  0.1345 -0.6620  1.5169
 5592TIP3   OH238266   3.779   1.963  10.825  0.1113 -0.4385 -0.0198
 5592TIP3    H138267   3.738   1.924  10.748  0.3845 -0.1699 -0.2979
 5592TIP3    H238268   3.725   2.040  10.844 -1.0826 -1.5489  1.1787
 5593TIP3   OH238269   0.284   6.273  16.040  0.1125 -0.3085  0.3353
 5593TIP3    H138270   0.328   6.206  15.988 -0.0863 -1.0645  1.1273
 5593TIP3    H238271   0.351   6.306  16.100  0.1782  0.1262  0.0274
 5594TIP3   OH238272   6.122   4.155  16.038 -0.2718 -0.1341 -0.7221
 5594TIP3    H138273   6.119   4.242  16.077 -0.3679  0.2274 -1.5347
 5594TIP3    H238274   6.030   4.130  16.028 -0.3562  1.2354 -3.9445
 5595TIP3   OH238275   5.037   5.951  12.668 -0.4676 -0.1515  0.2166
 5595TIP3    H138276   5.036   5.925  12.760  2.2014 -1.9514 -0.2031
 5595TIP3    H238277   5.004   5.874  12.621 -3.2802  1.3008 -0.2524
 5596TIP3   OH238278   3.125   5.591   3.734  0.0294 -0.2491  0.2007
 5596TIP3    H138279   3.053   5.560   3.680  0.5251  2.4307 -2.0489
 5596TIP3    H238280   3.111   5.548   3.819 -3.2917 -0.9793 -0.6544
 5597TIP3   OH238281   0.866   3.673   6.013 -0.0767  0.4739  0.0179
 5597TIP3    H138282   0.775   3.651   5.993  0.3776 -0.0217 -1.5896
 5597TIP3    H238283   0.873   3.662   6.108 -1.2580 -1.1222 -0.0533
 5598TIP3   OH238284   3.720   6.738   1.163 -0.0954 -0.1690  0.4753
 5598TIP3    H138285   3.688   6.668   1.106 -0.8427  0.8408 -0.3551
 5598TIP3    H238286   3.805   6.762   1.126 -0.3358  0.1173  0.1105
 5599TIP3   OH238287   2.158   5.189  11.047 -0.0381  0.3568 -0.0200
 5599TIP3    H138288   2.198   5.272  11.021  0.7028 -0.0575 -0.2028
 5599TIP3    H238289   2.205   5.123  10.996 -0.5892 -0.1809  0.1655
 5600TIP3   OH238290   3.023   1.769  14.077 -0.3314  0.3144 -0.8423
 5600TIP3    H138291   2.968   1.807  14.145 -1.1506  2.2349 -2.5357
 5600TIP3    H238292   2.961   1.724  14.019  0.3930 -1.6126 -0.1662
 5601TIP3   OH238293   5.569   2.522   5.671  0.1720 -0.2739  0.3194
 5601TIP3    H138294   5.634   2.453   5.686 -0.9500 -1.6122 -0.8226
 5601TIP3    H238295   5.513   2.520   5.748  0.7082  0.0005  0.7151
 5602TIP3   OH238296   5.974   5.416   2.212  0.6213  0.0408 -0.2148
 5602TIP3    H138297   5.964   5.334   2.261  0.7393  0.3653  0.3513
 5602TIP3    H238298   5.894   5.465   2.231  1.1064  0.5781  0.4259
 5603TIP3   OH238299   5.881   0.787   0.329 -0.1057 -0.1551 -0.3842
 5603TIP3    H138300   5.896   0.782   0.235  2.6927 -0.8877  0.0576
 5603TIP3    H238301   5.816   0.719   0.346 -0.3763 -0.2493 -1.7351
 5604TIP3   OH238302   6.020   2.873  15.140 -0.0054  0.2244 -0.2907
 5604TIP3    H138303   5.951   2.824  15.094 -0.0740  0.6639 -0.6521
 5604TIP3    H238304   6.051   2.812  15.207  1.1921 -1.0090 -1.9372
 5605TIP3   OH238305   4.052   2.608  16.822  0.2986 -0.0088 -0.2676
 5605TIP3    H138306   4.112   2.679  16.846  0.7477 -0.2807 -0.5719
 5605TIP3    H238307   4.018   2.634  16.736  0.5350 -0.2101 -0.4226
 5606TIP3   OH238308   0.732   0.588   3.910  0.0151 -0.0932  0.0564
 5606TIP3    H138309   0.821   0.553   3.920 -0.2919 -0.5298  1.3797
 5606TIP3    H238310   0.710   0.624   3.996 -1.4130 -0.7676 -0.0051
 5607TIP3   OH238311   0.104   2.583   5.851  0.3147 -0.5058  0.1600
 5607TIP3    H138312   0.197   2.587   5.828  0.4175  0.9169  0.7692
 5607TIP3    H238313   0.101   2.529   5.929  0.5517 -1.1302 -0.2608
 5608TIP3   OH238314   4.204   2.019  11.354 -0.5629 -0.2248  0.3134
 5608TIP3    H138315   4.213   1.997  11.446  0.6867  1.2263  0.5728
 5608TIP3    H238316   4.192   2.114  11.353  0.6295 -0.0694 -1.0635
 5609TIP3   OH238317   4.663   3.659   4.776 -0.0692 -0.1777  0.0237
 5609TIP3    H138318   4.695   3.612   4.699  1.6007  0.2615  0.4179
 5609TIP3    H238319   4.577   3.691   4.750  1.6552  2.5249 -2.7972
 5610TIP3   OH238320   3.899   0.111   4.344 -0.1264  0.0737  0.5560
 5610TIP3    H138321   3.947   0.052   4.402  1.7739  0.1295 -0.8982
 5610TIP3    H238322   3.833   0.056   4.302  0.5684 -0.6574  0.4200
 5611TIP3   OH238323   1.440   1.582   2.511 -0.2092  0.0187 -0.1720
 5611TIP3    H138324   1.519   1.563   2.562 -0.7734 -0.0837  0.6798
 5611TIP3    H238325   1.369   1.577   2.575 -1.2115 -2.5066 -1.4467
 5612TIP3   OH238326   3.637   1.279   5.915 -0.5585  0.0062  0.4873
 5612TIP3    H138327   3.649   1.247   6.005  1.7784 -0.4944  0.0410
 5612TIP3    H238328   3.720   1.259   5.872  0.1355  4.5558 -0.4926
 5613TIP3   OH238329   5.562   3.256   4.437  0.0493 -0.2218  0.1810
 5613TIP3    H138330   5.484   3.203   4.455  0.7279 -1.0674  0.7097
 5613TIP3    H238331   5.610   3.205   4.371  0.8395 -0.3991  0.8912
 5614TIP3   OH238332   3.511   6.216   2.653  0.0174  0.1201  0.0190
 5614TIP3    H138333   3.563   6.194   2.576 -0.4291  2.8429 -1.1366
 5614TIP3    H238334   3.424   6.182   2.634 -0.1688  1.0499 -0.8532
 5615TIP3   OH238335   6.384   5.846   2.948  0.1646 -0.3327 -0.3629
 5615TIP3    H138336   6.367   5.893   2.867 -0.2590 -2.0802 -1.3300
 5615TIP3    H238337   6.466   5.799   2.931 -0.2566 -1.1984 -0.0212
 5616TIP3   OH238338   4.687   5.689  14.727 -0.0908  0.1575 -0.2121
 5616TIP3    H138339   4.627   5.702  14.653 -0.1182  0.7582 -0.0887
 5616TIP3    H238340   4.774   5.708  14.690  0.0518 -0.9737 -0.4597
 5617TIP3   OH238341   3.366   2.102  16.304  0.0170  0.6960  0.1235
 5617TIP3    H138342   3.436   2.135  16.361  1.7339  1.0644 -2.1184
 5617TIP3    H238343   3.395   2.013  16.280  1.6215  2.1427 -3.6994
 5618TIP3   OH238344   3.712   4.008  14.032  0.1009 -0.3595 -0.2952
 5618TIP3    H138345   3.696   3.960  13.951 -1.4521 -2.1381  1.0073
 5618TIP3    H238346   3.624   4.025  14.067  0.6307  2.7735 -0.2885
 5619TIP3   OH238347   2.466   3.067  13.909  0.0536 -0.6000  0.0042
 5619TIP3    H138348   2.430   3.066  13.998 -0.4519 -3.3400 -0.1845
 5619TIP3    H238349   2.485   2.975  13.890  1.6513  0.1436 -2.1391
 5620TIP3   OH238350   1.811   2.915   4.644  0.3328 -0.5266 -0.2931
 5620TIP3    H138351   1.897   2.946   4.674  0.3774 -1.1399  0.2097
 5620TIP3    H238352   1.772   2.875   4.722 -1.3058  1.6525  0.0670
 5621TIP3   OH238353   1.722   0.941  11.630  0.0779  0.1683  0.2980
 5621TIP3    H138354   1.691   0.967  11.716  2.4970  2.2234  0.6144
 5621TIP3    H238355   1.817   0.937  11.638  0.4274  1.3576 -2.4979
 5622TIP3   OH238356   5.981   3.682   3.836 -0.2529  0.5400 -0.1883
 5622TIP3    H138357   5.886   3.689   3.827 -0.3444  0.3727  0.6251
 5622TIP3    H238358   6.013   3.772   3.829 -0.4535  0.5711 -0.6813
 5623TIP3   OH238359   3.694   5.318  16.482  0.6780  0.3168  0.1000
 5623TIP3    H138360   3.656   5.398  16.519  0.2190 -1.0855  2.7120
 5623TIP3    H238361   3.783   5.315  16.517  0.9460  0.0358 -0.5839
 5624TIP3   OH238362   3.033   0.359   3.484  0.6404  0.4010 -0.3751
 5624TIP3    H138363   3.001   0.277   3.446  0.9600 -0.5636  1.4123
 5624TIP3    H238364   3.111   0.334   3.533 -0.5369  1.4027  2.0713
 5625TIP3   OH238365   2.560   5.966  10.810  0.2151  0.0924  0.0701
 5625TIP3    H138366   2.649   6.000  10.819  0.0190  0.5665  0.2604
 5625TIP3    H238367   2.553   5.897  10.875  0.0322  0.9141  0.9239
 5626TIP3   OH238368   1.401   4.255   5.887 -0.3991  0.3594  0.5671
 5626TIP3    H138369   1.414   4.163   5.906 -0.3216  0.3998  0.7075
 5626TIP3    H238370   1.346   4.287   5.958 -0.5732  0.3813  0.4237
 5627TIP3   OH238371   1.460   3.616   0.510  0.1180  0.0852 -0.6414
 5627TIP3    H138372   1.421   3.661   0.584 -0.8163 -0.4764 -0.7827
 5627TIP3    H238373   1.507   3.542   0.548  1.1789  0.8415 -0.4588
 5628TIP3   OH238374   5.041   5.124   6.207  0.0494  0.3139  0.6637
 5628TIP3    H138375   4.993   5.127   6.124  0.6991 -1.1809  0.2144
 5628TIP3    H238376   4.979   5.156   6.272 -1.4204 -1.1874  0.0288
 5629TIP3   OH238377   3.558   5.321  14.401 -0.2771  0.6993 -0.1299
 5629TIP3    H138378   3.583   5.404  14.441 -0.2883  1.0427 -0.8267
 5629TIP3    H238379   3.523   5.345  14.315  0.1378 -0.0670 -0.5166
 5630TIP3   OH238380   6.441   4.645   2.012 -0.1573  0.5480  0.7803
 5630TIP3    H138381   6.357   4.621   2.051  1.4703 -0.5259  3.7891
 5630TIP3    H238382   6.492   4.564   2.014  0.3369  0.6745 -2.8353
 5631TIP3   OH238383   6.446   6.785  11.668  0.1269 -0.0986 -0.2753
 5631TIP3    H138384   6.498   6.830  11.601 -0.8052 -1.2787 -1.8458
 5631TIP3    H238385   6.485   6.698  11.674  0.9396  0.3828  1.5959
 5632TIP3   OH238386   6.665   1.576  16.971  0.0454 -0.2665  0.1830
 5632TIP3    H138387   6.577   1.603  17.000  0.0832 -0.6367  0.6417
 5632TIP3    H238388   6.692   1.509  17.034  0.2562 -0.8597 -0.5207
 5633TIP3   OH238389   2.371   1.866   3.080 -0.3538 -0.4999  0.4705
 5633TIP3    H138390   2.309   1.838   3.012  2.0621 -1.0594 -1.5957
 5633TIP3    H238391   2.431   1.792   3.088  1.7777  1.1624  0.2724
 5634TIP3   OH238392   2.197   5.600   3.619  0.2419 -0.9829  0.3986
 5634TIP3    H138393   2.127   5.625   3.558  1.7971  0.4894 -0.8516
 5634TIP3    H238394   2.238   5.524   3.578 -0.1990 -1.4327  0.7923
 5635TIP3   OH238395   5.776   0.843   5.852  0.2150 -0.4372  0.0919
 5635TIP3    H138396   5.853   0.848   5.909  0.1244  0.0070  0.1715
 5635TIP3    H238397   5.703   0.871   5.907  0.2016  0.4729 -0.3814
 5636TIP3   OH238398   1.898   4.145   5.073  0.0718  0.4862 -0.3099
 5636TIP3    H138399   1.941   4.108   5.151 -2.8828 -0.9052  0.7253
 5636TIP3    H238400   1.953   4.220   5.050  2.3230 -0.4393  1.7179
 5637TIP3   OH238401   4.773   5.104   3.005 -0.2406 -0.2448 -0.1333
 5637TIP3    H138402   4.682   5.132   3.017 -0.0310  0.1716  0.5044
 5637TIP3    H238403   4.808   5.099   3.093  0.8787  1.3639 -0.4572
 5638TIP3   OH238404   1.394   4.187   0.011  0.9263  0.0868 -0.0067
 5638TIP3    H138405   1.326   4.253   0.026 -0.7686 -1.2858 -1.4013
 5638TIP3    H238406   1.467   4.213   0.068 -0.4667  2.0350  0.9148
 5639TIP3   OH238407   4.419   2.003   1.568  0.1624  0.2390 -0.4097
 5639TIP3    H138408   4.376   2.085   1.594  0.3551  0.1414  0.2382
 5639TIP3    H238409   4.485   1.989   1.635  1.2528  0.4204 -1.4408
 5640TIP3   OH238410   5.773   3.392  16.735 -0.0139 -0.2725  0.4967
 5640TIP3    H138411   5.823   3.349  16.665 -0.1392  0.1968  0.1135
 5640TIP3    H238412   5.726   3.462  16.690  1.3793  1.2508  1.3480
 5641TIP3   OH238413   6.689   3.035   5.384 -0.8638  0.2216 -0.0473
 5641TIP3    H138414   6.739   3.000   5.458  2.3337  0.4902 -1.9801
 5641TIP3    H238415   6.661   2.957   5.336  0.2202  0.1305 -0.5390
 5642TIP3   OH238416   4.218   4.211   3.239 -0.2641 -0.1615 -0.1963
 5642TIP3    H138417   4.284   4.142   3.240  0.6305  0.6841 -0.1393
 5642TIP3    H238418   4.135   4.165   3.224  0.2952 -1.2596  0.0528
 5643TIP3   OH238419   4.083   5.518  11.518  0.6319 -0.1283 -0.6578
 5643TIP3    H138420   4.144   5.589  11.497  0.8603 -0.2593 -0.4390
 5643TIP3    H238421   4.102   5.451  11.453  0.6494 -0.1257 -0.6550
 5644TIP3   OH238422   5.587   6.290   4.559 -0.5442 -0.3954 -0.3829
 5644TIP3    H138423   5.535   6.293   4.639  0.4026  0.0660  0.2268
 5644TIP3    H238424   5.590   6.381   4.529  0.6069 -0.2777  0.0502
 5645TIP3   OH238425   3.795   5.357  13.205  0.0959  0.2682 -0.1567
 5645TIP3    H138426   3.733   5.424  13.234  1.1524  0.4227  1.8549
 5645TIP3    H238427   3.805   5.300  13.281  1.2551 -0.6257 -0.9695
 5646TIP3   OH238428   0.206   4.389   0.328 -0.1671  0.1708 -0.4740
 5646TIP3    H138429   0.301   4.376   0.337 -0.2033 -0.1464 -0.5287
 5646TIP3    H238430   0.195   4.415   0.236 -0.2090 -0.5710 -0.6884
 5647TIP3   OH238431   1.282   3.368   3.204 -1.0231  0.1402  0.2316
 5647TIP3    H138432   1.327   3.296   3.160 -1.6257 -0.1396  0.0627
 5647TIP3    H238433   1.189   3.347   3.194 -1.2080  1.1498 -0.1667
 5648TIP3   OH238434   1.791   3.309   6.899 -0.1286  0.0508 -0.8394
 5648TIP3    H138435   1.856   3.322   6.968  0.5705  1.0066 -1.6710
 5648TIP3    H238436   1.710   3.289   6.946  0.4309  0.2865  0.2411
 5649TIP3   OH238437   0.375   3.304   5.969 -0.0755  0.0740  0.0927
 5649TIP3    H138438   0.333   3.250   6.036 -0.3871  0.2784  0.0650
 5649TIP3    H238439   0.453   3.255   5.943  0.8356  0.6835  1.6504
 5650TIP3   OH238440   2.009   4.619  13.048 -0.7631  0.8398  0.1790
 5650TIP3    H138441   1.953   4.547  13.079  0.0877  0.4752  0.9029
 5650TIP3    H238442   2.014   4.679  13.122 -1.4869  1.6689 -0.4313
 5651TIP3   OH238443   5.870   3.985   5.713  0.2114  0.1295 -0.2275
 5651TIP3    H138444   5.948   4.035   5.735 -0.2242  0.1054  1.4476
 5651TIP3    H238445   5.878   3.967   5.619  2.1308  0.2363 -0.0908
 5652TIP3   OH238446   6.325   6.386  10.955  0.4594  0.7059  0.1550
 5652TIP3    H138447   6.328   6.316  11.020  1.8350  1.0569  0.4730
 5652TIP3    H238448   6.352   6.344  10.874  0.9002  0.7757  0.2654
 5653TIP3   OH238449   3.791   5.218   5.481  0.0024 -0.0415 -0.1576
 5653TIP3    H138450   3.734   5.294   5.493  1.2011  0.9130 -0.5267
 5653TIP3    H238451   3.731   5.143   5.489 -1.1683  0.9158  0.3019
 5654TIP3   OH238452   2.716   6.280  16.806 -0.2999  0.2072  0.5898
 5654TIP3    H138453   2.759   6.354  16.849 -0.3958  0.0752  0.9143
 5654TIP3    H238454   2.624   6.289  16.831 -0.4950  0.6092 -0.2663
 5655TIP3   OH238455   0.677   2.548  11.560  0.4851  0.0889  0.5355
 5655TIP3    H138456   0.729   2.620  11.595 -0.6059  1.2696 -0.2515
 5655TIP3    H238457   0.692   2.551  11.465 -0.1187 -0.2822  0.4245
 5656TIP3   OH238458   1.464   3.515  12.059  0.3546 -0.0968  0.5042
 5656TIP3    H138459   1.393   3.524  12.122 -0.5330 -0.1215 -0.4810
 5656TIP3    H238460   1.494   3.605  12.044 -0.0908  0.0050  0.2198
 5657TIP3   OH238461   5.578   4.880  13.133  0.6082  0.4860  0.1527
 5657TIP3    H138462   5.558   4.881  13.226  1.3247  0.3671  0.3170
 5657TIP3    H238463   5.666   4.918  13.127  1.3426 -1.2077 -0.2703
 5658TIP3   OH238464   0.924   6.421   0.723 -0.0816  0.4732 -0.7212
 5658TIP3    H138465   0.854   6.453   0.666 -0.8765  0.9236  0.4800
 5658TIP3    H238466   1.004   6.442   0.676 -0.7701 -1.5327 -2.8850
 5659TIP3   OH238467   6.557   2.901   2.951  0.1212 -0.4785  0.0173
 5659TIP3    H138468   6.601   2.854   3.022 -0.3015 -1.9195 -0.6427
 5659TIP3    H238469   6.490   2.840   2.920 -1.0246  0.9068 -0.3123
 5660TIP3   OH238470   4.499   2.475   1.279 -0.0049  0.0483 -0.3718
 5660TIP3    H138471   4.418   2.521   1.257  0.9667  0.9188 -2.1821
 5660TIP3    H238472   4.473   2.412   1.347 -1.9160  1.2386  0.0190
 5661TIP3   OH238473   3.159   3.557  13.910 -0.1846  0.3212 -0.5374
 5661TIP3    H138474   3.112   3.496  13.967 -0.8174 -0.0018 -1.3850
 5661TIP3    H238475   3.241   3.513  13.890 -0.4864 -0.1038 -0.8573
 5662TIP3   OH238476   1.219   5.817   1.135  0.1103 -0.2153 -0.0484
 5662TIP3    H138477   1.203   5.897   1.185 -0.3244 -0.9478  1.0013
 5662TIP3    H238478   1.311   5.796   1.152  0.0056 -0.3780  0.3018
 5663TIP3   OH238479   0.908   2.206  16.720  0.1538 -0.4517  0.1581
 5663TIP3    H138480   0.984   2.150  16.734 -0.9983 -1.8072  1.1972
 5663TIP3    H238481   0.853   2.157  16.659 -1.0543 -0.6633  1.3865
 5664TIP3   OH238482   3.105   6.324  11.258  0.1696  0.1406 -0.1573
 5664TIP3    H138483   3.081   6.239  11.221  0.8512 -0.5932  1.0396
 5664TIP3    H238484   3.025   6.377  11.252 -1.2593 -1.6688  2.1264
 5665TIP3   OH238485   2.040   3.807  13.811  0.2127  0.4350  0.4506
 5665TIP3    H138486   2.127   3.766  13.814  0.8212  1.7605  1.6904
 5665TIP3    H238487   2.059   3.901  13.800 -0.9679  0.9609  2.5338
 5666TIP3   OH238488   2.550   6.559   5.060  0.3545  0.1045 -0.1682
 5666TIP3    H138489   2.536   6.544   4.966  1.1146  0.0519 -0.2783
 5666TIP3    H238490   2.586   6.476   5.092  2.4264  0.9076 -0.3305
 5667TIP3   OH238491   1.635   6.598  15.136  0.4416 -0.0600 -0.5299
 5667TIP3    H138492   1.618   6.506  15.118 -0.5559 -0.0850  0.4669
 5667TIP3    H238493   1.593   6.614  15.221  0.1708  1.4349 -0.9300
 5668TIP3   OH238494   4.134   2.392  16.591 -0.6598 -0.0068  0.5469
 5668TIP3    H138495   4.203   2.344  16.637 -0.5014 -0.6047 -0.2966
 5668TIP3    H238496   4.056   2.380  16.645 -0.1110  0.6639  1.5072
 5669TIP3   OH238497   4.633   2.065  11.303 -0.7873  0.3028 -0.1253
 5669TIP3    H138498   4.558   2.109  11.343 -0.7343 -1.0135  1.4953
 5669TIP3    H238499   4.709   2.099  11.350 -0.5009  0.5598 -0.7722
 5670TIP3   OH238500   4.954   0.486   3.497 -0.2014 -0.6482  0.6899
 5670TIP3    H138501   4.945   0.422   3.427 -1.0819 -0.4094  0.5811
 5670TIP3    H238502   4.876   0.540   3.490  0.6081  0.5415  0.6745
 5671TIP3   OH238503   1.842   3.480   0.092  0.0939 -0.0654 -0.4461
 5671TIP3    H138504   1.760   3.492   0.045 -1.0159  0.3931  1.5572
 5671TIP3    H238505   1.896   3.555   0.066 -1.2026  1.1962  0.4135
 5672TIP3   OH238506   2.024   5.735  13.873 -0.0465  0.1797 -0.2164
 5672TIP3    H138507   1.959   5.792  13.832 -1.6297 -1.4542 -0.0149
 5672TIP3    H238508   2.069   5.693  13.799  0.4813  0.9710 -0.3474
 5673TIP3   OH238509   6.633   4.061   0.081  0.5882 -0.1689 -0.1103
 5673TIP3    H138510   6.648   4.134   0.021 -0.2520 -0.2671 -0.4553
 5673TIP3    H238511   6.646   4.097   0.168 -0.0791  0.4514 -0.2704
 5674TIP3   OH238512   6.249   5.391   4.080 -0.3788  0.8014  0.3434
 5674TIP3    H138513   6.177   5.346   4.037 -0.0701 -0.0008  0.6585
 5674TIP3    H238514   6.265   5.468   4.025 -0.3715  0.0992 -0.6551
 5675TIP3   OH238515   4.511   0.273  15.237 -0.0311  0.4057  0.2999
 5675TIP3    H138516   4.570   0.346  15.259  1.8436 -0.8124 -0.5316
 5675TIP3    H238517   4.555   0.196  15.273 -0.4999 -0.6853 -1.4165
 5676TIP3   OH238518   5.093   3.810   5.451  0.6836 -0.4706 -0.2473
 5676TIP3    H138519   5.014   3.821   5.504 -0.1088 -1.7082 -1.1449
 5676TIP3    H238520   5.165   3.809   5.515  0.0560  1.4132  0.5149
 5677TIP3   OH238521   4.697   0.350  15.530 -0.0547 -0.2686 -0.0867
 5677TIP3    H138522   4.658   0.334  15.616  1.4757  0.3575  0.7447
 5677TIP3    H238523   4.776   0.296  15.528  1.4393  1.8319  0.0371
 5678TIP3   OH238524   5.584   0.799  15.221  0.2296 -0.4366 -0.4006
 5678TIP3    H138525   5.566   0.770  15.311 -2.9839 -0.2625 -0.9433
 5678TIP3    H238526   5.594   0.894  15.228 -0.6153 -0.3531 -0.3123
 5679TIP3   OH238527   5.108   6.492   4.390 -0.7330 -0.2474  0.2757
 5679TIP3    H138528   5.149   6.509   4.305 -1.0853 -0.5097  0.0502
 5679TIP3    H238529   5.093   6.397   4.390 -0.8732 -0.2241  0.5700
 5680TIP3   OH238530   4.493   3.994  16.618 -0.2786  0.3754  0.2707
 5680TIP3    H138531   4.561   4.025  16.559 -0.1596  1.5453  1.0142
 5680TIP3    H238532   4.417   3.980  16.562 -0.0687  1.1740 -0.2239
 5681TIP3   OH238533   3.879   6.156  12.074  0.3440 -0.1775 -0.1998
 5681TIP3    H138534   3.904   6.141  11.983  1.0225 -1.4931  0.1962
 5681TIP3    H238535   3.903   6.076  12.119 -0.2686  0.3530  1.0906
 5682TIP3   OH238536   5.194   4.320   2.550  0.0486  0.3713  0.0431
 5682TIP3    H138537   5.197   4.233   2.591  0.3912 -0.5463 -1.8405
 5682TIP3    H238538   5.104   4.330   2.520  0.0273  0.6468  0.1946
 5683TIP3   OH238539   6.528   1.602  12.316  0.5006  0.4951  0.0389
 5683TIP3    H138540   6.576   1.671  12.271  1.3125 -1.4341 -2.1624
 5683TIP3    H238541   6.437   1.613  12.286  0.9388 -0.4374 -1.6823
 5684TIP3   OH238542   3.934   5.138   3.082 -0.0154 -0.2263 -0.2936
 5684TIP3    H138543   3.996   5.212   3.085 -1.1978  0.7605  0.4017
 5684TIP3    H238544   3.990   5.060   3.085  1.2181  0.6489 -0.0206
 5685TIP3   OH238545   4.953   4.593  13.642 -0.1796 -0.4506 -0.6657
 5685TIP3    H138546   4.862   4.620  13.632 -0.5296 -1.2070  0.4039
 5685TIP3    H238547   4.968   4.533  13.569 -0.3327  0.1791 -1.2225
 5686TIP3   OH238548   5.512   2.955   4.462 -0.1603 -0.6152 -0.5705
 5686TIP3    H138549   5.533   2.989   4.548  0.5238 -0.8013 -0.6654
 5686TIP3    H238550   5.440   2.893   4.477 -1.0645  0.4651 -0.3288
 5687TIP3   OH238551   3.894   3.579  13.222  1.0436 -0.3345  0.7481
 5687TIP3    H138552   3.802   3.581  13.198  0.5431  1.0414  2.6293
 5687TIP3    H238553   3.933   3.514  13.164 -1.0957 -0.8840 -0.1114
 5688TIP3   OH238554   6.792   2.070   5.958 -0.1896  0.2189 -0.1266
 5688TIP3    H138555   6.863   2.019   5.919  1.0821  2.1150 -0.4029
 5688TIP3    H238556   6.712   2.022   5.937  0.8832 -1.0738 -1.2869
 5689TIP3   OH238557   5.541   2.356  15.558  0.0804 -0.1294 -0.3367
 5689TIP3    H138558   5.618   2.373  15.503 -0.6864  1.0311 -1.0946
 5689TIP3    H238559   5.501   2.279  15.519  0.4010 -0.2388 -0.4559
 5690TIP3   OH238560   6.668   5.543  13.098 -0.2004 -0.0098 -0.2865
 5690TIP3    H138561   6.593   5.569  13.152 -0.8897  1.1909 -1.8009
 5690TIP3    H238562   6.742   5.544  13.159 -0.3914  4.4656 -0.0188
 5691TIP3   OH238563   1.000   3.743   6.531 -0.0305  0.4660  0.1422
 5691TIP3    H138564   1.069   3.731   6.597  0.0565  0.3846  0.0359
 5691TIP3    H238565   0.973   3.834   6.541 -0.6195  0.2158  0.8850
 5692TIP3   OH238566   6.804   2.079   0.098 -0.0491 -0.5462 -0.0971
 5692TIP3    H138567   6.768   2.085   0.187  1.1645 -0.7324  0.4148
 5692TIP3    H238568   6.898   2.071   0.111  0.3244  1.3093 -1.4701
 5693TIP3   OH238569   6.284   2.697  13.734 -0.1715  0.2454 -0.1019
 5693TIP3    H138570   6.260   2.636  13.804 -4.1129  1.5617 -0.1753
 5693TIP3    H238571   6.320   2.773  13.780  2.0447 -0.9147  0.1460
 5694TIP3   OH238572   4.314   6.808   1.422 -0.5509 -0.2533  0.3102
 5694TIP3    H138573   4.361   6.810   1.505  0.4023  1.7900 -0.2276
 5694TIP3    H238574   4.350   6.734   1.374 -1.0819 -1.4165  1.6938
 5695TIP3   OH238575   3.245   5.634  11.426 -0.0980  0.1175 -0.0746
 5695TIP3    H138576   3.295   5.577  11.368 -0.5163 -1.2383  0.8585
 5695TIP3    H238577   3.176   5.670  11.371 -0.8684 -1.6432 -0.3055
 5696TIP3   OH238578   3.697   1.080   3.170 -0.4328 -0.3883 -0.2179
 5696TIP3    H138579   3.679   1.004   3.115 -1.1175 -1.2076  1.1141
 5696TIP3    H238580   3.759   1.048   3.236 -0.0158  0.4472 -0.1954
 5697TIP3   OH238581   1.513   5.868   5.157 -0.2513  0.6089  0.3099
 5697TIP3    H138582   1.581   5.931   5.133 -0.5573  1.2954  1.1761
 5697TIP3    H238583   1.449   5.920   5.206 -1.3088 -0.0656 -0.3482
 5698TIP3   OH238584   3.049   2.778   2.299  0.8093  0.2645  0.0297
 5698TIP3    H138585   3.056   2.852   2.238  1.0084 -0.5898 -0.9885
 5698TIP3    H238586   2.955   2.769   2.314  0.7593  0.4816 -0.1477
 5699TIP3   OH238587   6.344   1.452  16.852 -0.0205 -0.4880  0.6592
 5699TIP3    H138588   6.261   1.412  16.875 -0.9277  0.7310 -0.4071
 5699TIP3    H238589   6.352   1.527  16.911 -0.5930  0.4922 -0.4880
 5700TIP3   OH238590   5.237   4.554  10.127 -0.3321  0.7639 -0.0181
 5700TIP3    H138591   5.184   4.552  10.206  1.1068  0.7959  0.9661
 5700TIP3    H238592   5.196   4.489  10.069  0.1005 -1.1410  1.7407
 5701TIP3   OH238593   0.773   2.174   3.792 -0.6456 -0.1820 -0.3184
 5701TIP3    H138594   0.705   2.145   3.852  1.5057  1.0106  2.8133
 5701TIP3    H238595   0.842   2.108   3.800  0.6115  1.1717  0.2621
 5702TIP3   OH238596   1.389   0.453  11.256 -0.3240 -0.1548  0.7254
 5702TIP3    H138597   1.324   0.388  11.283 -0.1785 -0.2634  0.8156
 5702TIP3    H238598   1.429   0.415  11.178  0.7783 -0.8457  1.6154
 5703TIP3   OH238599   2.138   0.987   2.452  0.2798 -0.3634  0.2448
 5703TIP3    H138600   2.226   0.970   2.418  0.6946  0.5293  0.8520
 5703TIP3    H238601   2.136   1.081   2.470 -0.4765 -0.5297  1.1269
 5704TIP3   OH238602   1.401   4.642  14.569  0.1095  0.3572 -0.2092
 5704TIP3    H138603   1.428   4.626  14.479  0.1180 -0.6215 -0.0386
 5704TIP3    H238604   1.396   4.555  14.608 -3.7010  0.4100 -0.3599
 5705TIP3   OH238605   3.239   0.743   6.255 -0.3467  0.0074 -0.0748
 5705TIP3    H138606   3.193   0.784   6.329 -1.6407 -1.4948 -0.0089
 5705TIP3    H238607   3.196   0.658   6.245  0.9651 -0.5049 -1.4703
 5706TIP3   OH238608   2.138   5.683  13.204  0.4577  0.2163 -0.4333
 5706TIP3    H138609   2.069   5.718  13.148  0.9876  0.0638 -1.1917
 5706TIP3    H238610   2.220   5.706  13.158  0.9526  1.2617  0.9320
 5707TIP3   OH238611   3.338   4.099  12.199 -0.2514 -0.3456 -0.1897
 5707TIP3    H138612   3.352   4.176  12.144  0.9020 -0.4598 -0.0742
 5707TIP3    H238613   3.400   4.034  12.166  0.9031 -0.2124  1.6232
 5708TIP3   OH238614   0.206   0.337  16.722 -0.0814  0.1462 -0.2927
 5708TIP3    H138615   0.117   0.331  16.685 -0.4149  1.6420  0.2085
 5708TIP3    H238616   0.232   0.247  16.738 -1.5534 -0.3044 -0.3694
 5709TIP3   OH238617   4.256   1.678  16.324  0.3541  0.1022 -0.4372
 5709TIP3    H138618   4.286   1.656  16.412 -2.0404  0.9225  0.6356
 5709TIP3    H238619   4.248   1.594  16.279  0.1281 -0.4550  0.6251
 5710TIP3   OH238620   5.599   2.677   3.842  0.2182 -0.1790  0.1334
 5710TIP3    H138621   5.641   2.763   3.850  0.3761 -0.4176  2.0098
 5710TIP3    H238622   5.631   2.643   3.758  2.1303  0.5370  0.5419
 5711TIP3   OH238623   6.088   3.015  13.495  0.4580  0.1260  1.0939
 5711TIP3    H138624   6.037   2.986  13.419  0.0315 -0.6302  1.6511
 5711TIP3    H238625   6.156   2.948  13.505  3.4854  2.6690 -1.4443
 5712TIP3   OH238626   3.404   0.098   5.994  0.3671 -0.2377 -0.4217
 5712TIP3    H138627   3.455   0.176   5.977  1.0189 -0.8504 -1.2900
 5712TIP3    H238628   3.435   0.067   6.080  0.0925  0.4565 -0.0696
 5713TIP3   OH238629   5.259   3.569  16.625 -0.8181 -0.0541  0.1913
 5713TIP3    H138630   5.309   3.599  16.701 -0.1701  0.8913 -0.5967
 5713TIP3    H238631   5.319   3.512  16.577 -1.3356 -0.9147  0.5404
 5714TIP3   OH238632   5.722   2.028   1.974 -0.4495  0.0427  0.7987
 5714TIP3    H138633   5.813   1.998   1.970  0.1333  1.4115  3.1242
 5714TIP3    H238634   5.717   2.096   1.906 -0.0855 -0.9137 -0.1988
 5715TIP3   OH238635   3.930   3.279  11.738 -0.7717  0.7822  0.2301
 5715TIP3    H138636   4.016   3.314  11.764  0.1295 -1.3977  0.3001
 5715TIP3    H238637   3.944   3.185  11.731 -3.2979  0.3402  0.6954
 5716TIP3   OH238638   3.520   1.763  13.547 -0.4075  0.1423  0.4360
 5716TIP3    H138639   3.439   1.725  13.513 -1.0551  1.0224  0.9927
 5716TIP3    H238640   3.530   1.724  13.634  0.7275 -1.3426 -0.3222
 5717TIP3   OH238641   3.905   6.708   2.821  0.4019  0.3211  0.3613
 5717TIP3    H138642   3.922   6.798   2.793  0.7042 -0.2690 -1.4223
 5717TIP3    H238643   3.810   6.698   2.810  0.6391 -0.1783 -1.3123
 5718TIP3   OH238644   1.159   4.969  15.832 -0.1040 -0.3178 -0.2489
 5718TIP3    H138645   1.242   4.992  15.792 -0.6059 -0.3150 -1.2965
 5718TIP3    H238646   1.133   5.048  15.880  2.3343 -1.5444  3.3009
 5719TIP3   OH238647   6.769   0.637  16.635 -0.5207  0.3598 -0.2027
 5719TIP3    H138648   6.777   0.729  16.610 -0.5260 -0.4105 -3.3659
 5719TIP3    H238649   6.859   0.606  16.642 -0.5099  0.2584 -0.7117
 5720TIP3   OH238650   3.351   2.047  12.071 -0.0688 -0.0171 -0.4931
 5720TIP3    H138651   3.445   2.036  12.082 -0.1766 -0.4898 -0.0419
 5720TIP3    H238652   3.313   2.013  12.152 -0.5965  0.6844 -0.4431
 5721TIP3   OH238653   1.669   1.597   1.796  0.2664  0.1783  0.0461
 5721TIP3    H138654   1.653   1.627   1.707  0.6025  0.1146 -0.0361
 5721TIP3    H238655   1.741   1.535   1.788  1.0642  1.0434  0.5080
 5722TIP3   OH238656   3.235   4.171  16.104  0.1410  1.0369 -0.1027
 5722TIP3    H138657   3.184   4.232  16.156 -0.2502  0.9162 -0.3425
 5722TIP3    H238658   3.281   4.226  16.040  1.0621  1.2441  0.7223
 5723TIP3   OH238659   1.688   2.661   2.786 -0.1626  0.1566  0.2864
 5723TIP3    H138660   1.712   2.580   2.741 -1.3987 -0.8535  1.3890
 5723TIP3    H238661   1.765   2.685   2.837  0.0621 -0.5640  0.2832
 5724TIP3   OH238662   3.071   4.853   0.044  0.0970 -0.5296  0.5915
 5724TIP3    H138663   3.155   4.852   0.089  1.2813  2.1524 -1.4568
 5724TIP3    H238664   3.018   4.916   0.093 -0.2981 -1.2460  1.0992
 5725TIP3   OH238665   5.972   1.514   0.844 -0.2067 -0.2440 -0.3803
 5725TIP3    H138666   5.890   1.485   0.885  0.3153 -1.0262  0.1112
 5725TIP3    H238667   6.037   1.509   0.913  0.5894 -1.1399 -1.1910
 5726TIP3   OH238668   0.242   3.180   1.733  0.2238 -0.2287  0.0164
 5726TIP3    H138669   0.275   3.265   1.765  1.6981 -1.0105  0.6700
 5726TIP3    H238670   0.318   3.140   1.692 -0.2113 -1.6377  0.5698
 5727TIP3   OH238671   6.468   6.254  15.130 -0.6564 -0.0413 -0.5463
 5727TIP3    H138672   6.491   6.338  15.090 -1.0463 -0.8453 -2.5248
 5727TIP3    H238673   6.374   6.259  15.144 -0.3627  0.6486  1.3047
 5728TIP3   OH238674   2.249   3.217  12.996 -0.0529  0.1367 -0.6516
 5728TIP3    H138675   2.212   3.217  13.084 -2.4021  1.7340 -1.5524
 5728TIP3    H238676   2.335   3.257  13.005  0.0631 -0.4926  1.0466
 5729TIP3   OH238677   4.199   1.747   2.419 -0.8138 -0.6501 -0.1590
 5729TIP3    H138678   4.182   1.776   2.509 -0.8332  0.3584 -0.4799
 5729TIP3    H238679   4.294   1.739   2.414 -0.6633  1.1577 -0.5942
 5730TIP3   OH238680   4.434   5.926   3.268  0.5518  0.4629 -0.2559
 5730TIP3    H138681   4.460   5.840   3.302  2.1886  0.8424 -0.5391
 5730TIP3    H238682   4.389   5.968   3.341 -0.3354 -0.6534 -0.1337
 5731TIP3   OH238683   3.079   2.374   0.906 -0.2611  0.1780  0.3336
 5731TIP3    H138684   3.035   2.418   0.978  1.6811  1.8799  0.5341
 5731TIP3    H238685   3.126   2.444   0.860  0.8290 -1.2977 -0.8619
 5732TIP3   OH238686   5.488   6.468   1.274  0.8028  0.1861 -0.2635
 5732TIP3    H138687   5.424   6.399   1.291  0.7844  0.0401 -0.9026
 5732TIP3    H238688   5.458   6.542   1.328  1.6851 -0.7900  1.5868
 5733TIP3   OH238689   0.550   6.642  16.247 -0.7981 -0.3855 -0.1106
 5733TIP3    H138690   0.599   6.723  16.230 -0.8304 -0.4520 -0.5288
 5733TIP3    H238691   0.600   6.599  16.316 -0.7916  0.0030  0.1322
 5734TIP3   OH238692   3.974   5.864   1.619  0.2322  0.2567  0.2228
 5734TIP3    H138693   3.953   5.881   1.712  1.5978  2.0672  0.2351
 5734TIP3    H238694   3.890   5.872   1.574 -0.5868 -1.4643  1.4010
 5735TIP3   OH238695   5.619   6.031   5.736  0.1193 -0.1696 -0.0835
 5735TIP3    H138696   5.549   5.992   5.789  0.0007  0.3349  0.1317
 5735TIP3    H238697   5.576   6.101   5.688  0.9758  1.7914  1.9376
 5736TIP3   OH238698   2.284   1.069  14.135 -0.7226 -0.0377  0.3672
 5736TIP3    H138699   2.361   1.045  14.084 -1.0847  0.8378 -0.6026
 5736TIP3    H238700   2.236   0.986  14.146 -0.9263 -0.1529 -1.1993
 5737TIP3   OH238701   0.089   2.302   5.821  0.6064 -0.0670  0.2707
 5737TIP3    H138702   0.043   2.356   5.758  0.8483 -0.4338 -0.2340
 5737TIP3    H238703   0.025   2.282   5.889  0.5579  0.9491  0.5192
 5738TIP3   OH238704   2.127   1.039   2.879  0.4842 -0.3852 -0.7466
 5738TIP3    H138705   2.208   1.025   2.830 -0.4181 -0.7857 -2.1714
 5738TIP3    H238706   2.124   0.967   2.942  0.7055 -1.0077 -1.4329
 5739TIP3   OH238707   0.046   5.794   3.537  0.1208  0.0172  0.0861
 5739TIP3    H138708   0.002   5.721   3.493 -1.1013  1.7208 -1.6171
 5739TIP3    H238709   0.139   5.770   3.537 -0.2749 -1.5831 -0.3092
 5740TIP3   OH238710   6.673   3.339   2.769 -0.6021 -0.1165  0.0723
 5740TIP3    H138711   6.638   3.306   2.686 -0.8821 -1.1353  0.5811
 5740TIP3    H238712   6.597   3.348   2.826 -0.1391 -1.7512  0.9901
 5741TIP3   OH238713   0.183   1.855   6.045  0.2899  0.1164  0.6359
 5741TIP3    H138714   0.113   1.805   6.087  0.4542  0.6570  1.5662
 5741TIP3    H238715   0.258   1.795   6.045 -0.0664 -0.3349 -0.0369
 5742TIP3   OH238716   3.682   3.965  14.417 -0.2313  0.1061  0.0002
 5742TIP3    H138717   3.760   3.957  14.472 -0.4912 -1.6047  0.1668
 5742TIP3    H238718   3.715   3.965  14.327 -0.1537 -2.9003 -0.0093
 5743TIP3   OH238719   4.292   2.426  16.348 -0.5145  0.3987  0.0716
 5743TIP3    H138720   4.256   2.423  16.437  0.5120  0.2301  0.4876
 5743TIP3    H238721   4.256   2.349  16.305 -1.1172  0.5475  0.3014
 5744TIP3   OH238722   1.908   5.930   1.620  0.2369 -0.2146  0.2351
 5744TIP3    H138723   1.964   5.855   1.640  0.0701 -0.3222  0.2968
 5744TIP3    H238724   1.887   5.967   1.706  0.4627  0.0073  0.1947
 5745TIP3   OH238725   0.358   3.883   0.416  0.0347 -0.3820  0.1134
 5745TIP3    H138726   0.450   3.881   0.444 -0.2222 -1.9568  0.8877
 5745TIP3    H238727   0.357   3.828   0.337  0.2707  1.9163 -1.5166
 5746TIP3   OH238728   5.517   4.093  11.104  0.3155  0.5484  0.5868
 5746TIP3    H138729   5.504   3.998  11.103  0.1227  0.5741  0.4714
 5746TIP3    H238730   5.441   4.127  11.152  0.0428  0.6935  0.0507
 5747TIP3   OH238731   3.349   3.352  13.401  0.6378  0.1454  0.0988
 5747TIP3    H138732   3.274   3.297  13.380  1.0407  0.0595 -1.0977
 5747TIP3    H238733   3.327   3.437  13.363  1.1778  0.1028 -0.3025
 5748TIP3   OH238734   2.414   0.193   2.342 -0.1418 -0.4803  0.5430
 5748TIP3    H138735   2.444   0.284   2.354  0.9890 -0.5503 -1.5195
 5748TIP3    H238736   2.481   0.140   2.385 -0.4044 -0.3693  1.0898
 5749TIP3   OH238737   1.497   2.469  10.983 -0.3211 -0.3107  0.3285
 5749TIP3    H138738   1.429   2.466  10.916 -0.4139  1.8523  0.2763
 5749TIP3    H238739   1.451   2.497  11.062  0.5839  1.8752  0.1287
 5750TIP3   OH238740   4.177   6.470  14.427  0.8358  0.2400 -0.7698
 5750TIP3    H138741   4.235   6.421  14.485 -1.5247 -1.0784  0.5550
 5750TIP3    H238742   4.142   6.404  14.367  0.9439  1.0698 -1.7565
 5751TIP3   OH238743   3.607   4.998   4.821  0.0240  0.2293 -0.0633
 5751TIP3    H138744   3.702   5.004   4.828  0.2407 -0.6827 -1.8027
 5751TIP3    H238745   3.573   5.053   4.891  1.8332  4.3607 -2.2887
 5752TIP3   OH238746   0.955   2.431  14.831  0.0598  0.2783  0.3220
 5752TIP3    H138747   0.938   2.421  14.924  5.0781  1.0934  1.4557
 5752TIP3    H238748   0.968   2.342  14.799  1.3728  0.1941  1.0699
 5753TIP3   OH238749   5.796   5.295   4.638 -0.1746  0.4708  0.2178
 5753TIP3    H138750   5.847   5.303   4.557 -0.0972 -1.1291  0.0974
 5753TIP3    H238751   5.848   5.237   4.694 -0.7088  0.7623  1.0328
 5754TIP3   OH238752   0.059   0.794  14.558 -0.4187 -0.2174 -0.5363
 5754TIP3    H138753   0.087   0.787  14.467 -1.3797 -0.7836 -0.7970
 5754TIP3    H238754  -0.027   0.836  14.554 -0.0788  0.5743  0.1807
 5755TIP3   OH238755   3.245   5.581  17.213 -0.6654  0.0205  0.6948
 5755TIP3    H138756   3.295   5.637  17.272  0.1045  0.3641 -0.2735
 5755TIP3    H238757   3.297   5.578  17.133 -2.2055  0.3942 -0.3294
 5756TIP3   OH238758   6.710   0.563  14.610  0.7529 -0.3806 -0.1271
 5756TIP3    H138759   6.706   0.497  14.679 -0.5940  1.4011  1.5589
 5756TIP3    H238760   6.803   0.578  14.597  1.0257 -0.3782  1.6906
 5757TIP3   OH238761   4.975   1.600  14.386  0.0486 -0.6123 -0.0760
 5757TIP3    H138762   4.945   1.590  14.476  0.5889  0.6624  0.2458
 5757TIP3    H238763   5.064   1.564  14.386 -0.2033 -1.2554 -0.2720
 5758TIP3   OH238764   1.185   5.825   0.473  0.4939  0.1711 -0.0835
 5758TIP3    H138765   1.137   5.858   0.549 -0.6881 -1.1522 -0.2271
 5758TIP3    H238766   1.268   5.794   0.509 -0.0059 -0.3249  0.6539
 5759TIP3   OH238767   0.415   5.094   2.935 -0.3710 -0.0606 -0.2428
 5759TIP3    H138768   0.452   5.182   2.928 -0.1355 -0.1694 -0.3377
 5759TIP3    H238769   0.401   5.081   3.029  0.7239 -0.3960 -0.1222
 5760TIP3   OH238770   6.618   4.882  17.163 -0.9100  0.0270 -0.4542
 5760TIP3    H138771   6.663   4.953  17.118  2.1461 -1.0231  0.7816
 5760TIP3    H238772   6.579   4.922  17.241 -0.2810  0.5972 -0.4298
 5761TIP3   OH238773   5.245   3.797   1.893  0.1825 -0.0489  0.0132
 5761TIP3    H138774   5.268   3.709   1.862 -0.5008 -0.6863  1.2990
 5761TIP3    H238775   5.243   3.789   1.988  1.2663  1.6502  0.1899
 5762TIP3   OH238776   2.545   3.472   5.230  0.1688  0.1647  0.2487
 5762TIP3    H138777   2.490   3.550   5.234 -0.8656 -0.5718  0.7125
 5762TIP3    H238778   2.543   3.446   5.138 -1.3044 -0.5845  0.4876
 5763TIP3   OH238779   5.048   1.705   2.842 -0.1839  0.2629 -0.0922
 5763TIP3    H138780   4.961   1.668   2.860  0.5675 -1.2331  0.4969
 5763TIP3    H238781   5.038   1.748   2.757 -1.3970 -0.2675 -0.2311
 5764TIP3   OH238782   3.555   5.369   4.653 -0.0772 -0.2551  0.0805
 5764TIP3    H138783   3.620   5.405   4.714 -0.8181 -0.4003  0.9586
 5764TIP3    H238784   3.504   5.445   4.625  1.1234  0.0365 -1.4489
 5765TIP3   OH238785   3.517   6.449   0.699  0.7893 -0.2751  0.7407
 5765TIP3    H138786   3.603   6.483   0.675  0.7780 -0.9310 -0.2454
 5765TIP3    H238787   3.456   6.492   0.639  0.2879  0.9411  2.0772
 5766TIP3   OH238788   0.533   6.596  12.013  0.6777  0.0084 -0.3407
 5766TIP3    H138789   0.556   6.605  12.105 -0.9413  0.3430  0.0565
 5766TIP3    H238790   0.472   6.669  11.997 -1.6770 -1.9940 -0.7785
 5767TIP3   OH238791   0.298   5.557   3.732  0.0910  0.0180  0.4425
 5767TIP3    H138792   0.368   5.497   3.707  0.6442  1.1167 -0.7425
 5767TIP3    H238793   0.308   5.631   3.672 -2.3220  0.0404  0.0369
 5768TIP3   OH238794   4.906   6.404   6.316 -0.1533  0.1815 -0.0383
 5768TIP3    H138795   4.935   6.426   6.404  0.1246 -2.9677  0.7122
 5768TIP3    H238796   4.818   6.367   6.327  1.3131 -3.7292 -0.5343
 5769TIP3   OH238797   6.647   2.974  14.004  0.0898  0.1423 -0.3345
 5769TIP3    H138798   6.611   3.049  14.051  0.6525  0.6047 -0.6287
 5769TIP3    H238799   6.689   2.921  14.073  2.0523  1.4821 -0.4540
 5770TIP3   OH238800   2.282   4.906  12.237 -0.3472 -0.7353 -0.3471
 5770TIP3    H138801   2.191   4.890  12.211  0.0258 -1.3311 -1.2997
 5770TIP3    H238802   2.324   4.942  12.159 -0.3246  1.7455  0.7733
 5771TIP3   OH238803   6.611   1.650   2.180 -0.5998  0.4158  0.3926
 5771TIP3    H138804   6.531   1.679   2.222 -0.4149  0.7670  0.5050
 5771TIP3    H238805   6.671   1.724   2.188 -0.9233  0.9051 -1.4635
 5772TIP3   OH238806   3.060   5.181  13.922 -0.2109 -0.9074 -0.3088
 5772TIP3    H138807   3.021   5.267  13.904  2.1390  0.1435 -0.5648
 5772TIP3    H238808   3.063   5.137  13.837 -0.8787 -1.0074 -0.2797
 5773TIP3   OH238809   4.088   6.382  15.810  0.5236 -0.8601 -0.1422
 5773TIP3    H138810   4.016   6.444  15.801  0.9186 -0.2309  0.9337
 5773TIP3    H238811   4.126   6.377  15.723 -1.0456 -1.4774 -0.8080
 5774TIP3   OH238812   3.339   2.635   5.923  0.2901  0.6105  0.0483
 5774TIP3    H138813   3.305   2.724   5.933 -1.8717 -0.1514 -0.1063
 5774TIP3    H238814   3.372   2.631   5.834 -4.3163 -0.1754 -1.7638
 5775TIP3   OH238815   2.805   0.063  16.812 -0.0155  0.0896  0.1629
 5775TIP3    H138816   2.842   0.130  16.754  0.2471 -0.4692 -0.3119
 5775TIP3    H238817   2.848   0.079  16.896 -0.0694  0.6161  0.0932
 5776TIP3   OH238818   5.000   5.214  17.074  0.0710  0.0974 -0.7346
 5776TIP3    H138819   5.003   5.291  17.017 -0.2612  0.9395  0.3754
 5776TIP3    H238820   5.042   5.242  17.155  0.1563 -0.9687 -0.4044
 5777TIP3   OH238821   5.475   5.169   1.100 -0.4609 -0.6830  0.5896
 5777TIP3    H138822   5.441   5.222   1.172  0.7494  0.1870  0.5323
 5777TIP3    H238823   5.401   5.116   1.072 -1.5359  0.5663  1.0307
 5778TIP3   OH238824   2.541   3.686   1.080  0.0158 -0.0238 -0.3833
 5778TIP3    H138825   2.513   3.614   1.023  0.3734 -1.3563  1.0642
 5778TIP3    H238826   2.461   3.730   1.106 -0.0827  1.1293 -2.5904
 5779TIP3   OH238827   0.729   3.473   0.235  0.3747 -0.2152 -0.2062
 5779TIP3    H138828   0.768   3.398   0.191 -1.5399  0.3066 -2.9362
 5779TIP3    H238829   0.803   3.529   0.259  1.6198 -1.7351 -0.4473
 5780TIP3   OH238830   2.601   2.361   5.465  0.2238 -0.3469 -0.0865
 5780TIP3    H138831   2.582   2.397   5.378  1.1369 -0.6515 -0.4121
 5780TIP3    H238832   2.679   2.408   5.493 -0.6484  0.4791  1.0065
 5781TIP3   OH238833   4.648   5.357   2.501  1.0843  0.3221 -0.2361
 5781TIP3    H138834   4.693   5.281   2.538 -0.4653  0.3691  1.8507
 5781TIP3    H238835   4.718   5.417   2.475  2.2410 -0.3567  1.2759
 5782TIP3   OH238836   3.331   0.951  12.783  0.5011 -0.1148 -0.4343
 5782TIP3    H138837   3.307   0.931  12.873 -0.5023  0.5591 -0.5353
 5782TIP3    H238838   3.407   0.897  12.765  0.1893 -0.8871  0.5426
 5783TIP3   OH238839   6.462   1.448   6.275 -0.0908  0.1512  0.3164
 5783TIP3    H138840   6.489   1.504   6.202  0.2142  0.5470  0.7326
 5783TIP3    H238841   6.379   1.484   6.304 -1.3897 -1.4266 -1.3492
 5784TIP3   OH238842   4.877   6.102  13.262 -0.2404 -0.0752  0.5114
 5784TIP3    H138843   4.888   6.155  13.183  0.4433 -1.6375 -0.4590
 5784TIP3    H238844   4.948   6.129  13.319  3.3605 -3.5601 -2.0609
 5785TIP3   OH238845   2.301   3.089   1.579 -0.1565  0.2822 -0.4491
 5785TIP3    H138846   2.272   3.060   1.665  0.7831  0.2663 -0.1371
 5785TIP3    H238847   2.225   3.076   1.522 -0.8718  0.5734  0.4335
 5786TIP3   OH238848   0.693   5.868   3.849 -0.4171 -1.3479  0.1852
 5786TIP3    H138849   0.680   5.822   3.766 -0.2749 -2.1608  0.6050
 5786TIP3    H238850   0.722   5.956   3.824  0.4793 -1.8635 -0.6148
 5787TIP3   OH238851   1.694   6.503  13.010 -0.4541 -0.9407  0.5197
 5787TIP3    H138852   1.701   6.521  13.104 -2.3849 -2.0776  0.9128
 5787TIP3    H238853   1.609   6.541  12.985  0.8365  0.9343 -1.1536
 5788TIP3   OH238854   2.358   6.079   0.304 -0.2471  0.0382  0.3132
 5788TIP3    H138855   2.374   6.144   0.235 -1.1097 -0.9431 -0.8467
 5788TIP3    H238856   2.353   5.996   0.256  1.9440 -1.0409  1.8847
 5789TIP3   OH238857   3.759   4.410   1.842 -0.1881 -0.7410 -0.6899
 5789TIP3    H138858   3.833   4.463   1.815 -0.4272 -0.2176 -0.3339
 5789TIP3    H238859   3.686   4.440   1.787 -0.9433  1.0939  1.2375
 5790TIP3   OH238860   3.727   3.226  17.244  0.6166  0.4894  0.3063
 5790TIP3    H138861   3.754   3.253  17.156  1.7787  0.4055  0.6247
 5790TIP3    H238862   3.634   3.208  17.236  0.0994  3.1345 -0.2720
 5791TIP3   OH238863   0.957   6.346   5.123 -0.0706 -0.5057 -0.4949
 5791TIP3    H138864   1.017   6.371   5.052  1.8216 -2.9528  0.1587
 5791TIP3    H238865   0.871   6.339   5.080  0.6275  0.2181 -2.0731
 5792TIP3   OH238866   4.932   5.964   0.212  0.0894  0.1429  0.2423
 5792TIP3    H138867   4.861   6.012   0.168  0.2728  2.2640  2.1789
 5792TIP3    H238868   4.965   6.024   0.278  3.9766 -0.6716 -0.8080
 5793TIP3   OH238869   6.012   5.762  12.446  0.3406 -0.2494  0.0484
 5793TIP3    H138870   5.955   5.837  12.428 -0.0430 -0.6589 -0.4636
 5793TIP3    H238871   6.100   5.800  12.453  0.3806  0.0666 -1.8040
 5794TIP3   OH238872   0.210   2.988   3.362  0.2513  0.0667 -0.7830
 5794TIP3    H138873   0.159   2.963   3.285 -4.6378  0.5764  2.1019
 5794TIP3    H238874   0.209   3.084   3.362  2.0705  0.1068 -1.1769
 5795TIP3   OH238875   3.211   2.887   5.237  0.2320 -0.5062 -0.3912
 5795TIP3    H138876   3.287   2.918   5.285  0.9555  0.0737 -1.8736
 5795TIP3    H238877   3.246   2.826   5.172 -0.5940 -0.3759 -0.9736
 5796TIP3   OH238878   5.271   3.821   4.243  0.5296  0.3191 -0.5375
 5796TIP3    H138879   5.365   3.822   4.222  1.2881 -1.2665  2.6364
 5796TIP3    H238880   5.254   3.909   4.278  1.5867 -0.4280  1.9305
 5797TIP3   OH238881   4.951   3.407   3.536 -0.2459  0.2833  0.4798
 5797TIP3    H138882   4.864   3.367   3.531 -0.0279 -0.1257 -0.0899
 5797TIP3    H238883   4.977   3.397   3.627 -1.5166  1.9355  1.0487
 5798TIP3   OH238884   3.827   1.080  11.259 -0.0294 -0.0124  0.5777
 5798TIP3    H138885   3.782   1.027  11.193 -0.5337  0.0599  0.8642
 5798TIP3    H238886   3.892   1.130  11.209  1.2286 -1.7238  0.4453
 5799TIP3   OH238887   3.380   2.855   0.937 -0.3082  0.2060  0.8811
 5799TIP3    H138888   3.474   2.874   0.939 -0.4996  1.1820  0.7248
 5799TIP3    H238889   3.339   2.934   0.971 -1.0782 -0.2150  0.9414
 5800TIP3   OH238890   3.890   6.460  13.935 -0.5440 -0.0050  0.6758
 5800TIP3    H138891   3.810   6.511  13.919 -1.6216 -1.9049 -0.1285
 5800TIP3    H238892   3.878   6.423  14.022  0.4766  1.4795  1.4835
 5801TIP3   OH238893   3.966   5.754   4.954  0.2907  0.0527  0.0908
 5801TIP3    H138894   3.875   5.784   4.955 -0.2137 -1.4379 -0.1525
 5801TIP3    H238895   4.014   5.825   4.911 -1.0266  0.1148 -1.3257
 5802TIP3   OH238896   0.129   4.376   4.543 -0.0215  0.3203 -0.1828
 5802TIP3    H138897   0.181   4.430   4.602  0.0471  0.2851 -0.2115
 5802TIP3    H238898   0.183   4.299   4.526  0.2718  0.6794 -0.8904
 5803TIP3   OH238899   1.864   0.738   0.535  0.2982 -0.5270 -0.3292
 5803TIP3    H138900   1.868   0.657   0.587  0.7249  0.0276  0.4980
 5803TIP3    H238901   1.803   0.794   0.583 -0.3411 -0.5146 -1.1414
 5804TIP3   OH238902   2.577   6.622  11.717 -0.0724  0.5465  0.1787
 5804TIP3    H138903   2.608   6.710  11.739  1.5603 -0.4839  2.1575
 5804TIP3    H238904   2.656   6.575  11.692 -0.7909 -0.6535  0.1595
 5805TIP3   OH238905   0.882   6.026  10.594 -0.1290 -0.5242  0.0643
 5805TIP3    H138906   0.822   6.072  10.535  0.6831  0.0053 -0.3766
 5805TIP3    H238907   0.955   6.088  10.605  1.1295 -1.8119 -0.7749
 5806TIP3   OH238908   1.947   2.250   2.276  0.6048  0.3136  0.4776
 5806TIP3    H138909   1.918   2.311   2.208 -1.6628  0.3651  1.4500
 5806TIP3    H238910   1.882   2.258   2.346  1.0625 -2.1686  1.2524
 5807TIP3   OH238911   5.891   5.528   0.877  0.0823  0.0271 -0.3083
 5807TIP3    H138912   5.898   5.512   0.783 -1.1448 -0.6963 -0.2763
 5807TIP3    H238913   5.863   5.619   0.883 -0.5900 -0.1480 -0.6707
 5808TIP3   OH238914   3.486   0.317   4.525  0.3323  0.0986  0.0267
 5808TIP3    H138915   3.423   0.282   4.588  0.5435  1.4054  0.9868
 5808TIP3    H238916   3.565   0.263   4.538 -0.0109 -0.4061  0.0412
 5809TIP3   OH238917   6.360   4.125  11.727  0.1741 -0.7611 -0.2371
 5809TIP3    H138918   6.295   4.167  11.785  1.2755 -0.4664  0.8075
 5809TIP3    H238919   6.334   4.152  11.639  0.3537  1.4783  0.3458
 5810TIP3   OH238920   1.236   5.932   6.188  0.1592  0.4571 -0.0101
 5810TIP3    H138921   1.194   5.996   6.245 -0.5614 -0.6895  0.7814
 5810TIP3    H238922   1.272   5.867   6.249  1.2682  0.3465 -0.7779
 5811TIP3   OH238923   1.298   5.758   2.150  0.4691 -0.3504  0.0227
 5811TIP3    H138924   1.204   5.777   2.154  0.1234 -1.4971 -1.8886
 5811TIP3    H238925   1.336   5.835   2.109  0.2626 -0.1836  0.1427
 5812TIP3   OH238926   5.225   6.652   3.869 -0.4210  0.0338  0.3993
 5812TIP3    H138927   5.233   6.716   3.797  1.0990 -0.9373 -0.3211
 5812TIP3    H238928   5.135   6.619   3.862 -0.3662  0.1418 -0.9024
 5813TIP3   OH238929   3.580   2.060  15.365 -0.2357  0.4783  0.0622
 5813TIP3    H138930   3.570   2.000  15.292 -1.4592  0.6375  0.0897
 5813TIP3    H238931   3.641   2.127  15.334 -0.1906  0.1474 -0.5522
 5814TIP3   OH238932   1.795   2.231  12.992  0.0355 -0.2713 -0.2607
 5814TIP3    H138933   1.714   2.186  12.967  1.1949 -1.7139 -1.5531
 5814TIP3    H238934   1.840   2.168  13.050  1.1581 -0.3326 -1.1898
 5815TIP3   OH238935   2.759   3.588   5.984 -0.0309  0.1981 -0.3184
 5815TIP3    H138936   2.666   3.578   6.005  0.5933 -1.5257  1.9138
 5815TIP3    H238937   2.796   3.627   6.064  1.2050  0.6248 -1.0997
 5816TIP3   OH238938   1.179   3.975  11.492 -0.1747 -0.3192  0.5758
 5816TIP3    H138939   1.201   3.932  11.409 -4.3441 -0.9276 -0.3544
 5816TIP3    H238940   1.204   3.911  11.559  2.6188 -0.0951 -0.1951
 5817TIP3   OH238941   0.037   3.761   4.052  0.4683  0.5668 -0.5243
 5817TIP3    H138942  -0.009   3.718   3.979  2.0364 -0.9420 -0.6545
 5817TIP3    H238943   0.110   3.703   4.071  1.3718  2.1116  0.7774
 5818TIP3   OH238944   6.349   2.379   2.968  0.2313 -0.2007  0.2438
 5818TIP3    H138945   6.416   2.429   2.920 -0.0912  0.6258  0.6415
 5818TIP3    H238946   6.275   2.374   2.907 -1.5065  3.8527  1.8385
 5819TIP3   OH238947   2.961   3.657   6.137 -0.2887 -0.3853  0.0867
 5819TIP3    H138948   2.969   3.751   6.119  2.8822 -0.8983 -1.3555
 5819TIP3    H238949   2.993   3.647   6.227 -0.6403 -0.0925  0.2457
 5820TIP3   OH238950   3.737   5.261  11.473 -0.1895 -0.0129 -0.3786
 5820TIP3    H138951   3.767   5.244  11.562 -1.1247  1.6664  0.2942
 5820TIP3    H238952   3.803   5.221  11.417 -0.1639 -2.0568  1.0510
 5821TIP3   OH238953   3.480   1.138  16.929 -0.7801 -0.1869  0.4011
 5821TIP3    H138954   3.438   1.081  16.994 -2.0683 -0.4863 -0.6707
 5821TIP3    H238955   3.463   1.227  16.961 -2.8163 -0.2788 -0.3396
 5822TIP3   OH238956   5.612   4.268   6.470  0.2812  0.0956  0.0179
 5822TIP3    H138957   5.534   4.251   6.522  0.9553 -1.4434  0.5578
 5822TIP3    H238958   5.677   4.300   6.533  0.0532  1.5447 -0.4583
 5823TIP3   OH238959   6.427   2.961  11.889  0.2961 -0.6308  0.0097
 5823TIP3    H138960   6.397   3.023  11.954  0.1766 -0.5129 -0.1555
 5823TIP3    H238961   6.468   3.014  11.821 -0.1535 -0.7021 -0.3183
 5824TIP3   OH238962   4.028   3.807   3.413  0.5835 -0.0329 -0.5376
 5824TIP3    H138963   4.080   3.771   3.485 -2.2085 -2.4281  0.3647
 5824TIP3    H238964   4.036   3.741   3.344  0.6821  0.7626 -1.2925
 5825TIP3   OH238965   3.614   1.193  12.476 -0.3270 -0.5777  0.0197
 5825TIP3    H138966   3.612   1.103  12.442  2.8670 -1.0731  0.9637
 5825TIP3    H238967   3.583   1.185  12.566 -0.8324 -0.5870 -0.1521
 5826TIP3   OH238968   2.202   5.455   2.288 -0.7445 -0.0703 -0.2316
 5826TIP3    H138969   2.221   5.496   2.204  0.4958  0.7419  0.4187
 5826TIP3    H238970   2.112   5.423   2.281 -0.3763 -0.7064 -2.1384
 5827TIP3   OH238971   6.739   2.193  14.025  0.2084  0.5978  0.5954
 5827TIP3    H138972   6.827   2.231  14.023  0.6376 -0.4316 -0.5589
 5827TIP3    H238973   6.723   2.174  14.117  0.9607  1.3170  0.8792
 5828TIP3   OH238974   5.995   1.028  11.681  0.0280  0.2452 -0.3014
 5828TIP3    H138975   5.946   1.077  11.614  0.9379 -0.3907 -1.4476
 5828TIP3    H238976   5.972   0.937  11.666 -2.1014  0.3285  2.1977
 5829TIP3   OH238977   3.276   2.055   4.614 -0.1072 -0.5054 -0.7204
 5829TIP3    H138978   3.360   2.099   4.621  1.0724 -2.6328 -1.0176
 5829TIP3    H238979   3.265   2.040   4.520  0.3131 -2.3067 -0.5005
 5830TIP3   OH238980   4.229   4.538  16.863  0.3903 -0.1647  0.3340
 5830TIP3    H138981   4.287   4.580  16.927  1.7026  0.1374 -1.0136
 5830TIP3    H238982   4.177   4.610  16.827  0.7690 -0.0952 -0.0740
 5831TIP3   OH238983   4.167   1.064   4.445  0.3762 -0.2697  0.3607
 5831TIP3    H138984   4.101   0.995   4.456 -1.3172  1.3999  1.0253
 5831TIP3    H238985   4.142   1.108   4.364  0.6939  0.3743  0.6098
 5832TIP3   OH238986   6.557   5.257  13.091 -0.1025  0.1464 -0.4231
 5832TIP3    H138987   6.607   5.335  13.116  1.8927 -0.1134 -3.4319
 5832TIP3    H238988   6.536   5.215  13.174  2.7045  1.5041  1.0469
 5833TIP3   OH238989   2.225   4.124   4.393 -0.4136  0.1520 -0.2481
 5833TIP3    H138990   2.159   4.145   4.327 -0.3904 -0.9290 -0.6325
 5833TIP3    H238991   2.174   4.090   4.468 -0.3154 -0.4400 -0.4472
 5834TIP3   OH238992   5.419   4.048  13.701 -0.7579  0.3844  0.4221
 5834TIP3    H138993   5.394   4.115  13.766 -2.7587  0.1450 -0.0717
 5834TIP3    H238994   5.338   4.001  13.683  0.4617 -1.6692  0.1389
 5835TIP3   OH238995   2.144   4.477  15.375  0.0643 -0.1157 -0.1539
 5835TIP3    H138996   2.075   4.423  15.335 -0.3989  2.3144 -2.7772
 5835TIP3    H238997   2.226   4.434  15.351 -0.3713 -0.8751 -0.2999
 5836TIP3   OH238998   2.360   2.113  17.221 -0.2043 -0.5895  0.4078
 5836TIP3    H138999   2.445   2.072  17.203  0.2073  0.7585 -0.8474
 5836TIP3    H239000   2.298   2.040  17.222  0.7910 -1.4535  0.1128
 5837TIP3   OH239001   4.153   6.029  16.468  0.3430 -0.0043  0.4242
 5837TIP3    H139002   4.092   6.084  16.517 -1.6458 -1.2130 -0.6193
 5837TIP3    H239003   4.165   6.074  16.385  1.4989  0.6321  0.9344
 5838TIP3   OH239004   0.300   4.913   0.443  0.4923  0.2850  0.3191
 5838TIP3    H139005   0.264   4.934   0.529 -0.9096 -0.4073 -0.0869
 5838TIP3    H239006   0.272   4.823   0.426  0.7946  0.3959 -0.8361
 5839TIP3   OH239007   6.106   4.718  11.070 -0.5302 -0.1093 -0.2447
 5839TIP3    H139008   6.126   4.746  10.980 -0.2417  2.2959  0.5410
 5839TIP3    H239009   6.011   4.718  11.075 -0.5834 -1.4833 -0.8991
 5840TIP3   OH239010   4.947   2.711  13.452 -0.0811  0.9010  0.3679
 5840TIP3    H139011   5.017   2.771  13.477  0.0492  0.0083  2.1725
 5840TIP3    H239012   4.992   2.639  13.408 -0.0420  1.0807  0.1063
 5841TIP3   OH239013   1.688   0.518   6.336  0.0313  0.2596  0.9055
 5841TIP3    H139014   1.676   0.544   6.428 -2.4941  1.2329  0.3261
 5841TIP3    H239015   1.659   0.426   6.333 -0.9110  0.5506  0.8860
 5842TIP3   OH239016   1.300   0.120  16.217 -0.5846 -0.4610  0.0123
 5842TIP3    H139017   1.364   0.162  16.159  0.7587  1.2054  2.6101
 5842TIP3    H239018   1.226   0.180  16.220 -2.1409 -2.1679 -2.6186
 5843TIP3   OH239019   4.540   1.135   2.544 -0.1821 -0.4853 -0.6211
 5843TIP3    H139020   4.500   1.216   2.513 -1.3869 -0.3876  1.0938
 5843TIP3    H239021   4.506   1.068   2.485 -0.0844  0.0975 -1.3487
 5844TIP3   OH239022   0.683   1.252  13.947  0.2576  0.0001  0.0551
 5844TIP3    H139023   0.589   1.240  13.962  0.2383 -0.5554 -0.4854
 5844TIP3    H239024   0.719   1.266  14.034 -0.3077  0.0946  0.2797
 5845TIP3   OH239025   0.277   2.664   0.607 -0.1478 -0.1447  0.0201
 5845TIP3    H139026   0.316   2.580   0.582 -0.2378 -0.8277  2.0839
 5845TIP3    H239027   0.328   2.729   0.559  0.2867 -1.3313 -1.1748
 5846TIP3   OH239028   6.112   0.374   1.859 -0.6382 -0.1985 -1.0647
 5846TIP3    H139029   6.051   0.438   1.896 -0.1439  0.4604 -1.3867
 5846TIP3    H239030   6.152   0.420   1.785  0.0607 -0.7253 -1.0110
 5847TIP3   OH239031   4.987   1.319  15.201  0.6001  0.0766  0.4006
 5847TIP3    H139032   5.049   1.268  15.150  1.8521  0.6984  1.2690
 5847TIP3    H239033   4.908   1.265  15.204  0.2668  0.3329 -2.7305
 5848TIP3   OH239034   5.047   0.994   5.412 -0.2427 -0.4633 -0.6356
 5848TIP3    H139035   5.130   1.031   5.380 -0.0372 -1.5244 -1.3780
 5848TIP3    H239036   5.003   0.963   5.333 -0.4822 -1.6434 -0.0531
 5849TIP3   OH239037   5.987   0.493   0.765  0.3592 -0.1410  0.3715
 5849TIP3    H139038   5.988   0.580   0.723  1.4359  0.7937  2.2722
 5849TIP3    H239039   5.974   0.432   0.692  1.1243  1.5098 -1.2075
 5850TIP3   OH239040   6.116   1.813  16.023  0.2587  0.1347 -0.0272
 5850TIP3    H139041   6.054   1.751  16.062  0.4160  0.0298  0.0556
 5850TIP3    H239042   6.193   1.760  16.003  0.5121  0.3683  0.3270
 5851TIP3   OH239043   0.967   4.433   4.575  0.0524 -0.0177  0.0964
 5851TIP3    H139044   1.031   4.463   4.639  2.0774 -0.6056 -1.5856
 5851TIP3    H239045   0.953   4.508   4.517  0.9083 -0.5648 -0.8336
 5852TIP3   OH239046   4.730   5.760   4.302 -0.0069  0.4851  0.0039
 5852TIP3    H139047   4.683   5.842   4.286  2.7656  2.0356 -0.5410
 5852TIP3    H239048   4.802   5.761   4.239 -0.5217 -2.9076 -0.7126
 5853TIP3   OH239049   1.624   0.008  15.948 -0.2197  0.2022  0.3390
 5853TIP3    H139050   1.617   0.086  15.893  1.8280 -0.7438 -1.3297
 5853TIP3    H239051   1.540  -0.037  15.938  0.1662 -0.0116 -2.1318
 5854TIP3   OH239052   3.039   2.542  13.415  0.6965 -0.0019 -0.5223
 5854TIP3    H139053   3.089   2.496  13.348  2.5502 -0.2133  0.9835
 5854TIP3    H239054   3.069   2.505  13.498  0.4676  2.2162  0.5957
 5855TIP3   OH239055   0.430   3.509  16.640 -0.4095  0.0616  0.8486
 5855TIP3    H139056   0.473   3.595  16.630  1.6455 -1.1284 -1.0360
 5855TIP3    H239057   0.373   3.502  16.564  0.8002 -0.9878  0.0215
 5856TIP3   OH239058   5.706   2.934   1.223 -0.0799 -0.4809  0.0234
 5856TIP3    H139059   5.686   2.847   1.188 -1.0296 -1.6792  3.3714
 5856TIP3    H239060   5.800   2.931   1.243  0.1113 -0.3651 -0.8601
 5857TIP3   OH239061   5.033   0.219   0.787 -0.0817 -0.4003  0.6464
 5857TIP3    H139062   5.025   0.139   0.734 -0.1919 -0.7350  1.1616
 5857TIP3    H239063   5.017   0.290   0.726  2.2723 -0.6562 -0.3492
 5858TIP3   OH239064   5.043   0.251   3.652  0.0580 -0.1189 -0.3804
 5858TIP3    H139065   5.029   0.238   3.558  0.5247 -0.0980 -0.4559
 5858TIP3    H239066   4.957   0.239   3.691  0.0238 -1.0251 -0.7194
 5859TIP3   OH239067   3.214   1.947  16.493  1.0112  0.2314 -0.3206
 5859TIP3    H139068   3.218   2.013  16.424 -2.5602 -0.1838 -1.0053
 5859TIP3    H239069   3.171   1.991  16.567  1.4514 -0.4170  0.3349
 5860TIP3   OH239070   4.836   3.367   1.455  0.3112  0.2303 -0.1889
 5860TIP3    H139071   4.878   3.307   1.516 -0.5742  0.2173  0.4104
 5860TIP3    H239072   4.804   3.311   1.384  0.0644  0.0680  0.0485
 5861TIP3   OH239073   6.586   6.114  13.338  0.5910  0.1294  0.4508
 5861TIP3    H139074   6.674   6.131  13.305  0.4218 -1.1229 -0.6732
 5861TIP3    H239075   6.580   6.018  13.344 -0.4081  0.2314  1.2873
 5862TIP3   OH239076   3.139   3.297   4.665  0.0873  0.4124  0.8607
 5862TIP3    H139077   3.142   3.382   4.709 -0.6167  0.3892  0.9585
 5862TIP3    H239078   3.226   3.260   4.678 -0.2157  0.2644  2.4874
 5863TIP3   OH239079   4.195   2.070  16.593  0.2977  0.1940  0.0722
 5863TIP3    H139080   4.187   2.070  16.689  1.3722  1.7749  0.1641
 5863TIP3    H239081   4.289   2.076  16.577  0.1338 -0.2706 -1.0931
 5864TIP3   OH239082   5.825   4.955  15.887 -0.0087 -0.7449 -0.0913
 5864TIP3    H139083   5.828   5.045  15.919 -1.2471 -1.0633  0.9587
 5864TIP3    H239084   5.783   4.961  15.801 -0.3037 -0.3486  0.0835
 5865TIP3   OH239085   5.062   2.791  15.650 -0.1380 -0.6168 -0.0913
 5865TIP3    H139086   5.116   2.867  15.630 -0.2224 -0.5470 -0.0568
 5865TIP3    H239087   5.101   2.753  15.728 -0.5842 -0.1283  0.3776
 5866TIP3   OH239088   5.975   2.454   1.390 -0.5802 -0.6635  0.0220
 5866TIP3    H139089   5.984   2.461   1.485  0.9440  0.9283 -0.2160
 5866TIP3    H239090   6.051   2.402   1.363 -0.6081 -0.4894 -0.3960
 5867TIP3   OH239091   1.274   3.106   3.905  0.0844  0.4196  0.0112
 5867TIP3    H139092   1.244   3.172   3.967  0.6676  1.5223 -0.8642
 5867TIP3    H239093   1.316   3.156   3.835 -2.2357 -0.6356 -2.2500
 5868TIP3   OH239094   5.187   5.444   3.347 -0.3669 -0.2325 -0.3892
 5868TIP3    H139095   5.114   5.390   3.318 -2.3045  1.3675  1.3164
 5868TIP3    H239096   5.235   5.389   3.410 -1.3065 -0.5790  0.0264
 5869TIP3   OH239097   3.772   4.532   5.469 -0.4201 -0.0978 -0.1463
 5869TIP3    H139098   3.752   4.518   5.562  0.3760  0.6024  0.1346
 5869TIP3    H239099   3.693   4.572   5.433 -0.6536 -0.1820  0.2683
 5870TIP3   OH239100   3.050   2.484  12.117  0.3649 -0.2886  0.0650
 5870TIP3    H139101   3.114   2.533  12.170  0.4092  1.1265 -1.2766
 5870TIP3    H239102   3.104   2.433  12.056  0.2597 -0.6228  0.2490
 5871TIP3   OH239103   6.288   4.171   4.761  0.3523 -0.0041 -0.1171
 5871TIP3    H139104   6.346   4.238   4.726 -0.5084  0.9908  0.3448
 5871TIP3    H239105   6.315   4.163   4.853  0.4758 -0.3295 -0.1791
 5872TIP3   OH239106   0.089   1.227   1.921 -0.2181  0.0202  0.1353
 5872TIP3    H139107   0.061   1.219   2.012 -4.1561 -1.2494 -1.0897
 5872TIP3    H239108   0.035   1.296   1.884  2.1934  1.3818 -1.0088
 5873TIP3   OH239109   4.282   6.088  10.576  0.2516 -0.0324 -0.8082
 5873TIP3    H139110   4.323   6.036  10.507 -1.5251 -1.4268 -0.8306
 5873TIP3    H239111   4.192   6.057  10.580  0.2470  0.2159  1.9834
 5874TIP3   OH239112   0.213   0.190   3.299 -0.4688  0.6732  0.0692
 5874TIP3    H139113   0.194   0.097   3.287  2.1575  0.3984 -2.5376
 5874TIP3    H239114   0.140   0.235   3.256  0.1074 -0.2428 -1.9153
 5875TIP3   OH239115   6.360   2.207  14.290 -0.3740 -0.2764  0.6578
 5875TIP3    H139116   6.272   2.171  14.296  0.1344 -1.3701  1.8402
 5875TIP3    H239117   6.378   2.242  14.377  1.4085 -2.6535  1.3112
 5876TIP3   OH239118   3.290   4.584   1.791 -0.3024  0.1448 -0.2931
 5876TIP3    H139119   3.256   4.628   1.712 -0.9061 -1.6206 -1.0297
 5876TIP3    H239120   3.226   4.516   1.811 -0.2284  0.6675  1.8381
 5877TIP3   OH239121   6.452   5.805  15.754 -0.0054  0.4346 -0.2096
 5877TIP3    H139122   6.476   5.868  15.823 -1.0446  1.4780 -0.7854
 5877TIP3    H239123   6.456   5.720  15.798  0.1740  1.0116  0.9324
 5878TIP3   OH239124   5.102   2.957  14.432  0.2032  0.1932 -0.1043
 5878TIP3    H139125   5.058   2.898  14.371 -1.2609  0.5324  0.5879
 5878TIP3    H239126   5.193   2.960  14.402  0.4760 -2.9561  0.3018
 5879TIP3   OH239127   2.985   4.838  13.964 -0.0468  0.4703  0.2828
 5879TIP3    H139128   2.919   4.777  13.997 -0.9170  1.2253 -0.0533
 5879TIP3    H239129   2.954   4.863  13.877  2.8965 -2.5237 -1.7460
 5880TIP3   OH239130   0.677   1.227  11.250  0.0950  0.2798  0.4269
 5880TIP3    H139131   0.629   1.217  11.167  0.1285  1.5511  0.2442
 5880TIP3    H239132   0.745   1.160  11.246  1.3638  1.6334 -1.4909
 5881TIP3   OH239133   0.062   5.025  16.735  0.0523 -0.0631  0.1302
 5881TIP3    H139134   0.152   5.040  16.764 -0.4006 -0.1491  1.6469
 5881TIP3    H239135   0.064   4.938  16.696  0.8674  0.4149 -0.9293
 5882TIP3   OH239136   6.461   0.454   6.226 -0.2277  0.4740  0.6218
 5882TIP3    H139137   6.527   0.494   6.283 -0.6440  1.1084  0.6634
 5882TIP3    H239138   6.389   0.433   6.285  0.2377 -0.9132  0.7072
 5883TIP3   OH239139   4.015   1.300   1.160  0.3823 -0.2866 -0.0715
 5883TIP3    H139140   3.974   1.225   1.204 -0.7810  0.5796  0.3373
 5883TIP3    H239141   4.107   1.276   1.154 -0.4323 -3.2631 -2.9187
 5884TIP3   OH239142   3.258   3.952  13.139  0.2158  0.0288  0.4330
 5884TIP3    H139143   3.205   3.928  13.214  0.1314 -1.2627 -0.0290
 5884TIP3    H239144   3.327   4.008  13.175  0.9810 -1.6820  1.7056
 5885TIP3   OH239145   1.959   5.554  15.839  0.0926  0.2465  0.0427
 5885TIP3    H139146   1.892   5.618  15.815  0.4100  0.8741  0.8024
 5885TIP3    H239147   1.995   5.587  15.922  1.9666  0.4185 -0.8192
 5886TIP3   OH239148   3.951   3.857  15.699  0.9534 -0.7238  0.1805
 5886TIP3    H139149   3.870   3.806  15.688  1.0790 -0.9396  0.2455
 5886TIP3    H239150   3.971   3.850  15.793  0.0245  0.8954  0.5107
 5887TIP3   OH239151   1.195   0.952  14.373 -0.3843  0.3090  0.3618
 5887TIP3    H139152   1.125   0.985  14.316 -0.3072 -0.0618  0.0461
 5887TIP3    H239153   1.275   0.992  14.339 -0.1079 -1.2602 -0.8841
 5888TIP3   OH239154   4.743   4.467  16.775 -0.2720  0.0161  0.0066
 5888TIP3    H139155   4.744   4.380  16.736  0.7859 -0.1651  0.4348
 5888TIP3    H239156   4.835   4.488  16.791 -0.7047 -0.1944  3.0349
 5889TIP3   OH239157   1.145   5.315   2.056 -0.1811  0.7009 -0.2004
 5889TIP3    H139158   1.110   5.357   1.977  0.3316 -0.0549 -0.8392
 5889TIP3    H239159   1.101   5.360   2.129 -0.6088  1.4489 -0.9106
 5890TIP3   OH239160   2.279   0.485   5.940  0.6774  0.5520 -0.0996
 5890TIP3    H139161   2.200   0.516   5.983  0.8212 -1.1606  1.4621
 5890TIP3    H239162   2.252   0.467   5.850 -0.9198 -0.8032  0.6366
 5891TIP3   OH239163   5.946   2.015   0.411  0.8423 -0.2000 -0.3089
 5891TIP3    H139164   5.876   1.995   0.349  0.3397  1.7633 -0.3760
 5891TIP3    H239165   5.901   2.044   0.491  1.5630  1.5439 -0.5198
 5892TIP3   OH239166   2.645   5.688  12.044  0.4575 -0.2982  0.3928
 5892TIP3    H139167   2.677   5.599  12.043  1.6227  0.1038 -1.6653
 5892TIP3    H239168   2.594   5.696  11.963 -1.6468  0.2286  1.7024
 5893TIP3   OH239169   4.586   4.230  11.598  0.4900  0.2892  0.2935
 5893TIP3    H139170   4.625   4.149  11.566  1.1843  0.6054  0.3168
 5893TIP3    H239171   4.492   4.213  11.600  0.4333  0.2170 -1.7744
 5894TIP3   OH239172   0.621   5.634   0.941 -0.8368  0.7215  0.3124
 5894TIP3    H139173   0.526   5.632   0.945 -0.8539  0.8998 -0.0116
 5894TIP3    H239174   0.648   5.549   0.977 -1.1616  0.1023 -0.8761
 5895TIP3   OH239175   2.065   5.993   0.083 -0.1031 -0.2190 -0.1500
 5895TIP3    H139176   2.117   5.934   0.138  0.8925  0.0446 -0.7933
 5895TIP3    H239177   2.054   6.071   0.137 -0.7135 -0.6679  0.3835
 5896TIP3   OH239178   2.315   3.829   6.266 -0.4901  0.4055  0.3034
 5896TIP3    H139179   2.344   3.797   6.352 -0.9897  0.3721  0.4593
 5896TIP3    H239180   2.323   3.924   6.272  0.5218  0.3457  0.0093
 5897TIP3   OH239181   2.835   3.357   6.109 -0.1361 -0.1518 -0.3595
 5897TIP3    H139182   2.843   3.422   6.039  0.0396  0.8835  0.6113
 5897TIP3    H239183   2.865   3.402   6.188 -1.5533 -0.8901  0.6239
 5898TIP3   OH239184   1.878   3.583  14.456  1.0015 -0.1845  0.5833
 5898TIP3    H139185   1.791   3.568  14.493  0.5188  0.2669 -0.3473
 5898TIP3    H239186   1.887   3.678  14.453  0.5796 -0.1797 -1.4510
 5899TIP3   OH239187   5.720   1.152   0.396  1.0826  0.1796 -0.3114
 5899TIP3    H139188   5.675   1.224   0.350 -0.8852 -0.9624 -0.2464
 5899TIP3    H239189   5.790   1.126   0.337  0.1228  0.3789 -1.5780
 5900TIP3   OH239190   2.912   3.976   4.832  0.1889 -0.6100 -0.0873
 5900TIP3    H139191   2.996   4.005   4.797  0.8252  0.2074  2.0653
 5900TIP3    H239192   2.847   4.007   4.769  1.4714 -1.1856 -1.7228
 5901TIP3   OH239193   3.441   4.594  17.156  0.4398  0.1732 -0.5072
 5901TIP3    H139194   3.355   4.617  17.121  1.4727  2.0599 -1.9025
 5901TIP3    H239195   3.431   4.598  17.251 -1.1891 -0.3751 -0.6343
 5902TIP3   OH239196   4.610   0.232   4.070  0.4653  0.1189 -0.0606
 5902TIP3    H139197   4.514   0.228   4.072  0.5393 -2.6054 -0.0901
 5902TIP3    H239198   4.631   0.249   3.978  0.0349 -1.1183 -0.3989
 5903TIP3   OH239199   2.679   2.886   3.344 -0.1410  0.1076  0.1744
 5903TIP3    H139200   2.630   2.817   3.388  1.6090 -0.1281  1.8094
 5903TIP3    H239201   2.727   2.930   3.415  1.4223  0.7964 -1.2904
 5904TIP3   OH239202   0.627   4.571  16.741 -1.2693 -0.0975 -0.0019
 5904TIP3    H139203   0.699   4.516  16.770 -1.2052  0.8307  1.6524
 5904TIP3    H239204   0.607   4.539  16.653 -2.0498 -3.5704  1.3538
 5905TIP3   OH239205   6.641   1.086  16.939  0.3704 -0.5529  0.0573
 5905TIP3    H139206   6.601   1.028  16.874  1.2159  0.3012 -1.2556
 5905TIP3    H239207   6.673   1.027  17.007  2.0826 -1.7449 -1.7219
 5906TIP3   OH239208   6.551   3.035   0.276 -0.0392 -0.8896  0.1760
 5906TIP3    H139209   6.604   3.016   0.198 -1.7101 -0.6376 -1.0531
 5906TIP3    H239210   6.464   2.999   0.255 -1.2571  1.5789  0.7732
 5907TIP3   OH239211   2.038   2.859  12.889 -0.2871  0.7915 -0.4786
 5907TIP3    H139212   2.009   2.769  12.905 -1.7350  1.2798 -0.3294
 5907TIP3    H239213   2.082   2.855  12.804  0.2156 -0.1813 -0.1831
 5908TIP3   OH239214   1.335   4.584  12.932  0.0671  0.4968  0.3523
 5908TIP3    H139215   1.341   4.511  12.871 -1.6788  0.1895  0.5286
 5908TIP3    H239216   1.410   4.571  12.991 -0.1831 -1.1115  0.3453
 5909TIP3   OH239217   2.881   3.809  13.651 -0.5463  0.3564  0.7306
 5909TIP3    H139218   2.964   3.854  13.666 -0.0815  0.4877 -1.9431
 5909TIP3    H239219   2.906   3.721  13.623 -1.2930  0.4239 -0.1728
 5910TIP3   OH239220   6.212   3.314   0.052  0.0585  0.1817  0.1464
 5910TIP3    H139221   6.227   3.231   0.006  0.0415 -0.4452  1.2673
 5910TIP3    H239222   6.134   3.298   0.105 -1.0672  1.5180 -1.0684
 5911TIP3   OH239223   4.906   3.769  12.878 -0.1661 -0.4289 -0.2211
 5911TIP3    H139224   4.822   3.807  12.906  0.1483 -0.0630  0.2331
 5911TIP3    H239225   4.916   3.796  12.787 -0.7164 -0.7844 -0.3966
 5912TIP3   OH239226   4.227   4.978  10.024  0.2495  0.5678  0.2701
 5912TIP3    H139227   4.308   5.028  10.032  0.5563  0.0325  0.5415
 5912TIP3    H239228   4.246   4.912   9.958  0.8153 -1.0529  1.9890
 5913TIP3   OH239229   6.726   0.553  11.750 -0.0721 -0.2564 -0.2880
 5913TIP3    H139230   6.655   0.557  11.813  0.1394  0.0320 -0.0618
 5913TIP3    H239231   6.770   0.470  11.768  0.2785  0.0459  0.2639
 5914TIP3   OH239232   2.449   1.756   6.733 -0.1452 -0.5026 -0.0392
 5914TIP3    H139233   2.525   1.728   6.682 -0.9701 -0.9919 -0.9953
 5914TIP3    H239234   2.389   1.682   6.732 -1.1580  0.3032 -0.2933
 5915TIP3   OH239235   4.081   4.909  11.939 -0.3768  0.3112 -0.5995
 5915TIP3    H139236   4.073   4.819  11.906  1.2939  0.1483 -0.5668
 5915TIP3    H239237   4.159   4.944  11.897 -1.6646  2.1746 -1.5260
 5916TIP3   OH239238   1.109   3.317  16.985  0.2521 -0.1201 -0.1191
 5916TIP3    H139239   1.190   3.352  16.947 -0.2927  1.5878  0.2283
 5916TIP3    H239240   1.138   3.264  17.059  1.1999 -1.8673 -1.7019
 5917TIP3   OH239241   5.205   5.411  14.970 -0.1612  0.3951  0.3391
 5917TIP3    H139242   5.282   5.385  14.919 -0.3243  2.0117 -0.7497
 5917TIP3    H239243   5.130   5.390  14.914 -0.4702 -0.0656  0.9125
 5918TIP3   OH239244   1.885   2.363   5.624  0.3124 -0.1353 -0.0140
 5918TIP3    H139245   1.961   2.313   5.653  0.0462  0.1883  1.2690
 5918TIP3    H239246   1.920   2.451   5.606  0.1633  0.1428  1.0325
 5919TIP3   OH239247   3.072   4.529  15.708 -0.2173 -0.3212  0.3130
 5919TIP3    H139248   2.999   4.552  15.766  1.4817  0.6381  2.1399
 5919TIP3    H239249   3.069   4.595  15.639 -1.3486 -0.5638  0.1219
 5920TIP3   OH239250   1.340   3.351   4.417  0.3710  0.3495 -0.0339
 5920TIP3    H139251   1.433   3.354   4.394  0.1045  1.4797 -1.0296
 5920TIP3    H239252   1.323   3.436   4.458 -0.6778  0.9920 -1.7483
 5921TIP3   OH239253   3.571   5.068   5.541  0.3731 -0.3033  0.7921
 5921TIP3    H139254   3.564   4.973   5.531  0.5206 -0.1137 -1.3304
 5921TIP3    H239255   3.499   5.103   5.488  0.6129  0.7722  1.1717
 5922TIP3   OH239256   1.146   2.198  14.685 -0.7091  0.4455 -0.3820
 5922TIP3    H139257   1.058   2.179  14.652  0.1361 -0.7117 -2.0426
 5922TIP3    H239258   1.144   2.170  14.776 -1.7672 -0.5209 -0.6953
 5923TIP3   OH239259   1.701   4.458   0.115 -0.3116  0.0345  0.1588
 5923TIP3    H139260   1.752   4.493   0.043 -2.2356  1.4705 -0.5431
 5923TIP3    H239261   1.716   4.519   0.187 -0.1129 -0.1860  0.3039
 5924TIP3   OH239262   5.089   1.368   3.104 -0.4686 -0.1578 -0.8554
 5924TIP3    H139263   5.095   1.453   3.149  0.0971 -0.1704 -0.9038
 5924TIP3    H239264   5.172   1.359   3.058  1.1442 -2.5039  2.2778
 5925TIP3   OH239265   6.343   2.645   0.681 -0.0522  0.1153  0.1484
 5925TIP3    H139266   6.294   2.690   0.612 -0.1680 -0.3964 -0.1036
 5925TIP3    H239267   6.372   2.563   0.641 -1.4049 -0.8812  1.1594
 5926TIP3   OH239268   5.004   0.080   2.381  0.0202 -0.1469  0.0833
 5926TIP3    H139269   4.997  -0.011   2.410  0.9753 -0.1360  0.3928
 5926TIP3    H239270   5.062   0.076   2.305 -2.8243 -0.2235 -2.1480
 5927TIP3   OH239271   0.234   1.071   4.295  0.0848  0.1820 -0.9757
 5927TIP3    H139272   0.202   1.098   4.209 -2.2008 -1.8955 -0.8358
 5927TIP3    H239273   0.277   0.987   4.278 -1.0552 -0.6095  0.0181
 5928TIP3   OH239274   6.677   1.922   2.396  0.0127 -0.1118 -0.0675
 5928TIP3    H139275   6.694   1.831   2.372  0.6095 -0.0135 -0.0317
 5928TIP3    H239276   6.687   1.970   2.314 -0.1136 -0.0520 -0.0476
 5929TIP3   OH239277   5.079   6.796   2.779 -0.3061 -0.1656  0.1112
 5929TIP3    H139278   5.161   6.757   2.808 -0.2627  0.9830  1.5867
 5929TIP3    H239279   5.102   6.883   2.749 -0.7867 -0.3279 -0.7426
 5930TIP3   OH239280   4.678   0.775  15.342 -0.2909 -0.6869  0.3567
 5930TIP3    H139281   4.672   0.855  15.394  0.3565  0.6467 -1.5598
 5930TIP3    H239282   4.638   0.798  15.258 -1.6980 -2.9213  0.4007
 5931TIP3   OH239283   0.134   0.223  16.073 -0.7146  0.5187  0.1892
 5931TIP3    H139284   0.046   0.187  16.069 -0.8116  0.8619 -1.0670
 5931TIP3    H239285   0.191   0.147  16.077 -0.9031  0.1466 -2.8004
 5932TIP3   OH239286   5.856   5.608  14.290 -0.1306  0.0960  0.4512
 5932TIP3    H139287   5.883   5.698  14.273 -2.5221  0.9361  0.9896
 5932TIP3    H239288   5.816   5.579  14.207 -0.5418 -0.0284  0.6946
 5933TIP3   OH239289   3.312   5.644   5.379 -0.4614  0.6693 -0.1774
 5933TIP3    H139290   3.290   5.565   5.429  0.4788  1.4806  1.5621
 5933TIP3    H239291   3.240   5.654   5.317 -1.0745 -1.0221  0.2300
 5934TIP3   OH239292   1.015   5.471  12.091 -0.1234  0.1855  0.5709
 5934TIP3    H139293   1.075   5.521  12.035 -0.8695  0.9768  0.4567
 5934TIP3    H239294   0.939   5.455  12.036 -0.3046 -0.2105  0.9367
 5935TIP3   OH239295   6.804   3.464  15.379 -0.0915 -0.2516 -0.2726
 5935TIP3    H139296   6.728   3.424  15.422  0.6823  0.7927  2.1241
 5935TIP3    H239297   6.767   3.537  15.328 -0.8999 -0.8399 -0.5283
 5936TIP3   OH239298   5.100   5.859   2.532  0.0741 -0.0055 -0.0710
 5936TIP3    H139299   5.053   5.840   2.450  0.7956 -1.2214 -0.2057
 5936TIP3    H239300   5.132   5.949   2.520 -2.3488  0.9248  0.0942
 5937TIP3   OH239301   3.091   4.997  14.915  0.0376  0.2037 -0.2416
 5937TIP3    H139302   3.053   4.912  14.937  1.6584 -0.0432  1.8443
 5937TIP3    H239303   3.164   4.977  14.857  0.7045  0.0899  0.6142
 5938TIP3   OH239304   0.128   3.051   4.922  0.1210  0.0904  0.4542
 5938TIP3    H139305   0.141   3.038   5.016 -1.0913 -1.9062  0.3770
 5938TIP3    H239306   0.033   3.057   4.912  0.1777 -1.0596 -0.8135
 5939TIP3   OH239307   3.974   0.839  13.597 -0.7883  0.0014  0.2424
 5939TIP3    H139308   3.895   0.789  13.577 -1.7016  2.4214 -2.5590
 5939TIP3    H239309   3.953   0.889  13.676 -2.6063  1.6918 -1.2734
 5940TIP3   OH239310   3.423   3.193   2.305 -0.1646  0.9935 -0.0592
 5940TIP3    H139311   3.481   3.269   2.298 -1.0475  1.6735 -0.1383
 5940TIP3    H239312   3.347   3.217   2.252  0.5034 -0.8793 -1.9469
 5941TIP3   OH239313   5.138   3.512   3.130 -0.4049  0.6869  0.5213
 5941TIP3    H139314   5.205   3.480   3.189 -0.1082  2.0578  0.9463
 5941TIP3    H239315   5.072   3.551   3.187 -0.7890  0.7780  0.0178
 5942TIP3   OH239316   1.025   6.685   2.953  0.3147  0.3647 -0.0161
 5942TIP3    H139317   0.952   6.705   3.012 -1.1121  1.1060 -1.9702
 5942TIP3    H239318   0.999   6.604   2.909  0.4079  0.9116 -1.1013
 5943TIP3   OH239319   0.844   0.780  15.005 -0.1313 -0.2446  0.0696
 5943TIP3    H139320   0.836   0.783  14.910 -0.2363  0.8610  0.1080
 5943TIP3    H239321   0.932   0.744  15.021  1.1614  2.4889 -0.4937
 5944TIP3   OH239322   3.229   3.872   3.760  0.4731 -0.2213  0.1104
 5944TIP3    H139323   3.179   3.946   3.793  0.5850 -0.0054 -0.2082
 5944TIP3    H239324   3.320   3.895   3.775  0.5713  0.3094 -1.2515
 5945TIP3   OH239325   6.211   4.896  10.886 -0.0377  0.2254  0.2139
 5945TIP3    H139326   6.152   4.959  10.926  0.6730  1.7022 -1.0080
 5945TIP3    H239327   6.188   4.897  10.793  2.4091  1.4225 -0.4169
 5946TIP3   OH239328   4.248   5.789   0.410 -0.4224  0.2166 -0.4188
 5946TIP3    H139329   4.165   5.745   0.390 -1.5888  1.7095  0.9707
 5946TIP3    H239330   4.235   5.826   0.497  2.6277 -1.6327  0.8954
 5947TIP3   OH239331   0.092   4.281  14.301 -0.2883  0.0209 -0.1642
 5947TIP3    H139332   0.171   4.318  14.342 -0.8054  0.5108  0.3971
 5947TIP3    H239333   0.126   4.228  14.229  0.4352  2.4620 -1.6926
 5948TIP3   OH239334   3.750   2.245   2.962  0.0748 -0.1107  0.6033
 5948TIP3    H139335   3.661   2.219   2.939 -0.8292  0.2485  3.4003
 5948TIP3    H239336   3.770   2.317   2.904 -1.2997 -0.4864 -0.3610
 5949TIP3   OH239337   1.019   0.951   5.732 -0.2634  0.0833 -0.6063
 5949TIP3    H139338   1.071   1.019   5.690  0.3214  0.0200  0.0065
 5949TIP3    H239339   1.013   0.978   5.823 -0.5027 -0.4010 -0.4762
 5950TIP3   OH239340   3.754   5.663   1.766 -0.3329 -0.8819 -0.6425
 5950TIP3    H139341   3.722   5.706   1.845  0.1151  1.1657 -1.5335
 5950TIP3    H239342   3.675   5.642   1.716 -0.5248  0.1103 -0.7803
 5951TIP3   OH239343   5.023   3.066  14.864  0.2749 -0.2763  0.3393
 5951TIP3    H139344   5.070   3.105  14.938  3.0561 -2.1748 -0.3284
 5951TIP3    H239345   4.939   3.039  14.901 -0.1209  2.6772  1.7450
 5952TIP3   OH239346   0.477   1.665  12.409  0.6018 -0.6048  0.1306
 5952TIP3    H139347   0.474   1.730  12.479  0.4861 -2.1847  1.6295
 5952TIP3    H239348   0.535   1.596  12.442 -0.3288 -1.9049 -0.8587
 5953TIP3   OH239349   4.407   3.035   4.417 -0.5107  0.1374  0.1186
 5953TIP3    H139350   4.456   3.032   4.498  0.4263 -1.3685 -0.4746
 5953TIP3    H239351   4.470   3.008   4.350 -1.6862 -0.1839 -0.8781
 5954TIP3   OH239352   0.310   3.558   1.596  0.3042  0.0494  0.2712
 5954TIP3    H139353   0.288   3.525   1.509 -1.1116  0.5905  0.4220
 5954TIP3    H239354   0.365   3.490   1.634 -0.1630 -0.7929 -0.5356
 5955TIP3   OH239355   5.686   0.756   0.969  0.0031  0.0386  0.1228
 5955TIP3    H139356   5.630   0.826   1.003 -1.0658 -1.1017  0.7738
 5955TIP3    H239357   5.688   0.772   0.875  0.0137  1.1189  0.2956
 5956TIP3   OH239358   2.329   4.342  16.018  0.2901  0.5415 -0.0827
 5956TIP3    H139359   2.385   4.419  16.007  0.9316 -0.2064 -2.3255
 5956TIP3    H239360   2.243   4.370  15.989  0.6346  0.2835 -1.3694
 5957TIP3   OH239361   6.243   4.746  17.022 -0.3226  0.1773 -0.2313
 5957TIP3    H139362   6.319   4.696  17.052 -0.7410  0.1634  0.8467
 5957TIP3    H239363   6.185   4.680  16.984 -0.8982 -0.2014  1.2433
 5958TIP3   OH239364   2.071   6.510   3.184 -0.3147 -0.2734  0.0359
 5958TIP3    H139365   2.011   6.524   3.257 -0.1231 -0.9581  0.3293
 5958TIP3    H239366   2.158   6.516   3.224 -0.2143 -0.9850 -0.0709
 5959TIP3   OH239367   2.656   1.433   1.755  0.0531  0.5204 -0.1581
 5959TIP3    H139368   2.748   1.458   1.766  0.1345  0.0154  0.3149
 5959TIP3    H239369   2.653   1.340   1.779 -0.4930  0.4118 -0.6339
 5960TIP3   OH239370   3.768   6.055  15.930 -0.0529  0.1404  0.3358
 5960TIP3    H139371   3.681   6.088  15.911 -0.4826 -0.5230  1.1143
 5960TIP3    H239372   3.820   6.077  15.852 -1.0290  0.1117 -0.3306
 5961TIP3   OH239373   4.802   6.686  15.862  0.4694  0.2400  0.8846
 5961TIP3    H139374   4.777   6.686  15.954  1.6850  1.8656  1.2442
 5961TIP3    H239375   4.891   6.650  15.861  0.6353  0.6476  0.4143
 5962TIP3   OH239376   1.049   4.257  13.717 -0.0121  0.3224  0.2160
 5962TIP3    H139377   1.014   4.345  13.731  0.9879  1.0434 -1.5702
 5962TIP3    H239378   1.133   4.257  13.762  0.2282  0.4802 -0.2213
 5963TIP3   OH239379   6.818   5.094   4.776 -0.2541  0.4498 -0.1769
 5963TIP3    H139380   6.727   5.075   4.756 -0.4604 -0.1831  1.3285
 5963TIP3    H239381   6.819   5.114   4.870  1.3483 -0.7817  0.0912
 5964TIP3   OH239382   0.780   5.801   2.405 -0.8046 -0.3569  0.0107
 5964TIP3    H139383   0.735   5.885   2.416 -0.6734 -0.4622  1.4702
 5964TIP3    H239384   0.843   5.797   2.477  1.0694 -0.5399 -1.6029
 5965TIP3   OH239385   5.622   5.746  16.740 -0.0346 -0.1929 -0.1278
 5965TIP3    H139386   5.605   5.659  16.703  0.4665 -0.7081  0.8207
 5965TIP3    H239387   5.585   5.807  16.677  1.6496 -1.0071 -1.9793
 5966TIP3   OH239388   5.145   3.888   1.457 -0.0880  0.0137 -0.2351
 5966TIP3    H139389   5.206   3.946   1.504 -0.5606 -0.4515  0.9905
 5966TIP3    H239390   5.145   3.808   1.509 -0.0480 -0.8049 -1.4856
 5967TIP3   OH239391   5.225   1.956   1.840 -0.5737  0.2024  0.4504
 5967TIP3    H139392   5.232   1.946   1.745 -0.2156 -0.3062  0.5290
 5967TIP3    H239393   5.308   1.923   1.874 -0.9263 -0.1501  0.9804
 5968TIP3   OH239394   1.232   0.343  14.336 -0.0919 -0.0393  0.0955
 5968TIP3    H139395   1.184   0.398  14.399 -2.7229 -0.1156 -1.7645
 5968TIP3    H239396   1.306   0.398  14.308 -0.8465  1.3131  0.7040
 5969TIP3   OH239397   4.619   2.126   2.617  0.2881 -0.0051 -0.4765
 5969TIP3    H139398   4.673   2.187   2.567  0.4469 -0.1352 -0.4657
 5969TIP3    H239399   4.579   2.070   2.550 -0.3236  0.4828 -0.5262
 5970TIP3   OH239400   5.070   3.371  16.670  0.4952 -0.8099 -0.1406
 5970TIP3    H139401   5.130   3.445  16.672 -0.0979 -0.3290  0.6040
 5970TIP3    H239402   5.118   3.300  16.713 -0.0848  0.0790  2.0723
 5971TIP3   OH239403   6.543   3.706   6.554  0.3257  0.8616  0.7303
 5971TIP3    H139404   6.487   3.770   6.599  0.7777  0.1178  2.3934
 5971TIP3    H239405   6.483   3.637   6.526 -0.0457  1.6157 -0.3604
 5972TIP3   OH239406   2.143   1.806  12.046 -0.2922  0.1573  0.4248
 5972TIP3    H139407   2.173   1.760  11.968 -1.3249  0.8721 -0.3996
 5972TIP3    H239408   2.056   1.771  12.063 -0.7011  1.1139  0.3408
 5973TIP3   OH239409   2.192   6.442   1.996 -0.0242 -0.5220  0.0079
 5973TIP3    H139410   2.222   6.384   2.066  0.3364 -0.8608 -0.4159
 5973TIP3    H239411   2.205   6.530   2.030  0.0194 -0.6894  0.4221
 5974TIP3   OH239412   6.138   4.513  11.544 -0.3022 -0.0542 -0.1053
 5974TIP3    H139413   6.230   4.534  11.525 -0.4861  1.0666  0.2122
 5974TIP3    H239414   6.092   4.535  11.463 -0.4046  0.0976 -0.0026
 5975TIP3   OH239415   2.333   4.197   2.346 -0.7375 -0.1336  0.1161
 5975TIP3    H139416   2.319   4.156   2.432 -2.8780 -1.0024 -0.5989
 5975TIP3    H239417   2.291   4.282   2.353 -0.6633 -0.0898  0.0233
 5976TIP3   OH239418   0.985   5.302  15.427  0.8833  0.4937 -0.0414
 5976TIP3    H139419   1.042   5.378  15.426  1.5513 -0.0162 -1.1082
 5976TIP3    H239420   0.977   5.275  15.335  0.6960 -0.7452  0.3167
 5977TIP3   OH239421   2.561   0.971   5.915 -1.0466  0.6101 -0.6331
 5977TIP3    H139422   2.558   1.067   5.917 -0.5098  0.6188  2.7774
 5977TIP3    H239423   2.652   0.949   5.935 -1.6807 -0.6112  1.0359
 5978TIP3   OH239424   3.474   3.030   1.750  0.4179  0.5174 -0.1354
 5978TIP3    H139425   3.531   3.104   1.770  0.8065  0.0026  0.7366
 5978TIP3    H239426   3.483   3.017   1.656  1.6956  0.4883 -0.0208
 5979TIP3   OH239427   4.043   4.758   1.358 -0.2056 -0.1654 -0.3512
 5979TIP3    H139428   4.135   4.733   1.354  0.0204  0.6837 -0.4256
 5979TIP3    H239429   4.003   4.693   1.416  0.0184 -1.8304 -1.9721
 5980TIP3   OH239430   5.989   2.040   3.407 -0.1908 -0.2560  0.3069
 5980TIP3    H139431   5.952   2.012   3.491 -1.3135  1.1253  0.2980
 5980TIP3    H239432   6.012   1.959   3.363 -0.8291 -1.0561  1.4083
 5981TIP3   OH239433   4.972   5.225   3.469 -0.0472  0.5302 -0.1949
 5981TIP3    H139434   4.893   5.271   3.442  0.3260  0.9212 -0.6362
 5981TIP3    H239435   4.987   5.160   3.399 -0.4462 -0.1123  0.3107
 5982TIP3   OH239436   1.349   1.210  12.668 -0.1400 -0.2153  0.4879
 5982TIP3    H139437   1.309   1.196  12.754  0.6594  0.0276  0.9032
 5982TIP3    H239438   1.275   1.209  12.607 -0.8142  0.5642  1.2828
 5983TIP3   OH239439   0.838   6.813  15.362  0.1882 -0.2289 -0.0936
 5983TIP3    H139440   0.786   6.893  15.364 -0.8291 -0.8614  3.6930
 5983TIP3    H239441   0.796   6.757  15.297 -2.3106  0.3176  0.9898
 5984TIP3   OH239442   6.797   6.013  12.373  0.3477 -0.1183  0.3725
 5984TIP3    H139443   6.878   6.048  12.334  0.1858  0.5332  0.6093
 5984TIP3    H239444   6.815   6.013  12.467  0.0380  0.1049  0.4296
 5985TIP3   OH239445   6.693   6.734   5.211 -0.4521 -0.1842  0.2110
 5985TIP3    H139446   6.678   6.748   5.118  0.7106 -1.3057 -0.1483
 5985TIP3    H239447   6.617   6.775   5.254 -1.7876 -1.0455 -1.2927
 5986TIP3   OH239448   3.973   2.534  14.056 -0.0750  0.5301  0.5461
 5986TIP3    H139449   3.938   2.472  14.120  0.5888 -1.0422 -0.5895
 5986TIP3    H239450   3.896   2.564  14.008 -0.3368  0.1420  0.7213
 5987TIP3   OH239451   0.305   0.162   1.572  0.1032  0.1520 -0.2623
 5987TIP3    H139452   0.260   0.201   1.497  0.4221 -0.6221 -0.8703
 5987TIP3    H239453   0.392   0.203   1.572  1.1342 -1.9358 -2.0790
 5988TIP3   OH239454   3.040   6.467   4.337 -0.3439  0.0571 -0.0730
 5988TIP3    H139455   3.015   6.527   4.267  1.7545  0.5736 -0.4217
 5988TIP3    H239456   2.957   6.441   4.378 -1.5391  0.2386 -2.3263
 5989TIP3   OH239457   5.887   3.088  11.378  0.3465 -0.0867  0.1457
 5989TIP3    H139458   5.909   3.163  11.324 -0.1235 -0.5153 -0.6550
 5989TIP3    H239459   5.965   3.032  11.375 -0.5971 -1.3501 -2.2474
 5990TIP3   OH239460   2.399   6.499  12.444 -0.1296  0.2632 -0.5337
 5990TIP3    H139461   2.410   6.478  12.537  0.6731 -0.6170 -0.8228
 5990TIP3    H239462   2.311   6.535  12.438 -0.6372 -0.7980  0.3774
 5991TIP3   OH239463   1.387   3.859   2.878 -0.7449  0.4656 -0.0358
 5991TIP3    H139464   1.407   3.839   2.787 -1.1270  2.9759 -0.7183
 5991TIP3    H239465   1.452   3.811   2.929  0.9727  0.9373 -1.7470
 5992TIP3   OH239466   0.491   4.261   2.915  0.0235 -0.2822  0.0011
 5992TIP3    H139467   0.406   4.265   2.871  1.6850 -1.4979 -3.5304
 5992TIP3    H239468   0.472   4.224   3.001 -3.0591 -0.1169 -0.5541
 5993TIP3   OH239469   2.619   1.829   2.776 -0.0346 -0.1522  0.1154
 5993TIP3    H139470   2.651   1.886   2.846 -2.0479  0.9443  0.1662
 5993TIP3    H239471   2.639   1.740   2.807 -1.2472  0.3034  2.2849
 5994TIP3   OH239472   1.451   5.189  15.978  0.3924 -0.1545  0.8291
 5994TIP3    H139473   1.518   5.137  16.022  0.2254 -0.9918  0.1121
 5994TIP3    H239474   1.445   5.151  15.891 -0.6115  0.2903  0.6998
 5995TIP3   OH239475   3.046   3.740  16.897 -0.2689  0.0281 -0.6134
 5995TIP3    H139476   3.025   3.735  16.803 -1.6016 -0.2228 -0.3106
 5995TIP3    H239477   3.014   3.826  16.923 -0.5955 -0.2157 -0.2135
 5996TIP3   OH239478   6.116   2.788  10.484  0.2315 -0.6412  0.9547
 5996TIP3    H139479   6.090   2.735  10.408  1.6801  0.2979 -0.2320
 5996TIP3    H239480   6.057   2.863  10.482  0.3497 -0.5532  0.6716
 5997TIP3   OH239481   4.029   4.974  11.590  0.8405 -0.5089  0.2771
 5997TIP3    H139482   4.034   5.050  11.648 -0.8547  1.4691 -2.0577
 5997TIP3    H239483   3.969   4.914  11.635 -0.4439  0.9846  0.6044
 5998TIP3   OH239484   0.253   4.815  12.260 -0.0305  0.7082  0.1803
 5998TIP3    H139485   0.204   4.778  12.333  1.0529 -0.3290  0.3936
 5998TIP3    H239486   0.186   4.839  12.196 -0.8676 -0.0098  0.7790
 5999TIP3   OH239487   5.001   3.501  11.348 -0.4016 -0.4654 -0.4818
 5999TIP3    H139488   4.944   3.491  11.271  0.2775  0.0243 -1.0614
 5999TIP3    H239489   5.074   3.555  11.316  0.0251 -0.4955  0.4386
 6000TIP3   OH239490   3.019   0.804   0.772  0.2977 -0.0772  0.9840
 6000TIP3    H139491   3.095   0.809   0.713 -0.2814  1.3117  0.3435
 6000TIP3    H239492   2.950   0.764   0.718  0.4719 -1.0279  1.4628
 6001TIP3   OH239493   4.197   5.291  12.684 -0.0712  0.1929  0.9183
 6001TIP3    H139494   4.155   5.210  12.711  1.6018 -0.5485  1.3387
 6001TIP3    H239495   4.252   5.316  12.759 -0.1741  1.4336  0.5939
 6002TIP3   OH239496   1.793   6.230   2.660 -0.3630 -0.2027 -0.0964
 6002TIP3    H139497   1.765   6.284   2.585 -1.0071  0.9903  0.9825
 6002TIP3    H239498   1.880   6.262   2.681 -0.3352 -0.2846 -0.0862
 6003TIP3   OH239499   6.653   5.752  16.623  0.0430  0.0648  0.0452
 6003TIP3    H139500   6.580   5.764  16.562  2.0866 -1.0024 -2.7035
 6003TIP3    H239501   6.619   5.690  16.688 -2.1461  1.1308 -0.0477
 6004TIP3   OH239502   3.910   0.193   1.727  0.0873  0.1890 -0.7824
 6004TIP3    H139503   3.925   0.146   1.645  1.2787  0.7970 -0.9279
 6004TIP3    H239504   3.990   0.244   1.741  0.1475 -0.3666  1.0632
 6005TIP3   OH239505   0.078   5.007  14.978 -0.6805  0.0301 -0.1697
 6005TIP3    H139506   0.119   5.050  14.903  0.1069 -1.5819 -0.6820
 6005TIP3    H239507  -0.015   5.024  14.967 -0.4520  0.9278 -0.7990
 6006TIP3   OH239508   3.027   1.257   6.245 -0.2084  0.5545  0.6088
 6006TIP3    H139509   2.983   1.172   6.253  0.9118  0.0273  1.3635
 6006TIP3    H239510   3.117   1.240   6.273 -0.1735  2.1839  1.5418
 6007TIP3   OH239511   2.677   6.403   4.858 -0.2930  0.8341 -0.5754
 6007TIP3    H139512   2.744   6.470   4.871 -0.0320  0.9369 -2.3530
 6007TIP3    H239513   2.720   6.321   4.883  0.2670  0.9872 -1.0434
 6008TIP3   OH239514   5.799   1.995   1.454 -0.2636  0.3005  0.7035
 6008TIP3    H139515   5.883   1.958   1.482 -0.6133 -0.0118  1.3681
 6008TIP3    H239516   5.811   2.015   1.362  0.5630  0.3137  0.8070
 6009TIP3   OH239517   5.748   4.177   6.883  0.2489  0.1146 -0.4131
 6009TIP3    H139518   5.833   4.158   6.923 -1.1520 -2.4308  1.4491
 6009TIP3    H239519   5.746   4.124   6.804  0.4015  0.2356 -0.4998
 6010TIP3   OH239520   4.805   3.275  15.548 -0.0949  0.0086  0.1782
 6010TIP3    H139521   4.901   3.274  15.555  0.0863  1.1296 -1.8560
 6010TIP3    H239522   4.788   3.315  15.463 -2.3813 -0.3480  0.4558
 6011TIP3   OH239523   2.072   4.880  11.275  0.5720  0.2289 -0.2662
 6011TIP3    H139524   2.107   4.968  11.286  0.9830  0.1029 -0.5482
 6011TIP3    H239525   2.129   4.839  11.210  0.5620 -0.3435  0.0791
 6012TIP3   OH239526   6.702   1.587  12.691  0.1306 -0.1736  0.1878
 6012TIP3    H139527   6.767   1.648  12.656  0.9132 -1.0210  0.1373
 6012TIP3    H239528   6.735   1.566  12.779 -0.5193  0.0331  0.4841
 6013TIP3   OH239529   1.723   4.934   2.810 -0.0866 -0.5674 -0.8107
 6013TIP3    H139530   1.634   4.898   2.808 -0.1137 -0.5776  0.7016
 6013TIP3    H239531   1.779   4.858   2.826  0.0169 -0.2499  0.3733
 6014TIP3   OH239532   2.537   2.987   0.109  0.2575  0.7026 -0.1820
 6014TIP3    H139533   2.487   3.062   0.141  0.2361  0.0302  1.3928
 6014TIP3    H239534   2.499   2.968   0.023 -1.7224  0.6620  0.6633
 6015TIP3   OH239535   3.205   1.479  16.961 -0.6109  0.1861  0.4926
 6015TIP3    H139536   3.154   1.529  16.898  0.0702  1.5646  1.0213
 6015TIP3    H239537   3.294   1.515  16.955  0.5439 -2.6785 -0.9708
 6016TIP3   OH239538   5.602   4.587  14.509 -0.3306 -0.1782  0.0124
 6016TIP3    H139539   5.572   4.497  14.519 -1.0976  0.0595 -0.1275
 6016TIP3    H239540   5.522   4.638  14.497 -0.0408  0.7389  1.7020
 6017TIP3   OH239541   4.412   5.567  15.794 -0.2142  0.0348  0.0443
 6017TIP3    H139542   4.496   5.597  15.830 -0.2342  0.6873 -0.4490
 6017TIP3    H239543   4.400   5.619  15.715 -0.9425 -0.2707 -0.0480
 6018TIP3   OH239544   0.484   3.860   1.900 -0.3035 -0.8082  0.1735
 6018TIP3    H139545   0.563   3.834   1.851 -0.2783  0.8628 -0.7065
 6018TIP3    H239546   0.420   3.793   1.879  0.0279 -0.6669 -1.3523
 6019TIP3   OH239547   3.920   3.884  12.948 -0.0153  0.3321 -0.6493
 6019TIP3    H139548   3.832   3.870  12.983  0.0289 -2.9103 -1.7121
 6019TIP3    H239549   3.908   3.886  12.853  1.2046 -1.2695 -0.8457
 6020TIP3   OH239550   0.512   4.232   3.773 -0.5689 -0.3680 -0.5186
 6020TIP3    H139551   0.472   4.173   3.836 -0.4319 -0.5112 -0.5649
 6020TIP3    H239552   0.462   4.220   3.693 -1.1958  0.3361 -0.2405
 6021TIP3   OH239553   2.577   4.944  14.124  0.2368 -0.1584  0.4906
 6021TIP3    H139554   2.485   4.968  14.114 -0.2224 -1.4838  1.5139
 6021TIP3    H239555   2.625   5.018  14.086 -1.2408  0.4904 -0.1383
 6022TIP3   OH239556   3.474   3.602  13.659  0.4286 -0.0850  0.3155
 6022TIP3    H139557   3.525   3.577  13.583 -0.9471  0.5078 -0.8358
 6022TIP3    H239558   3.401   3.654  13.623 -0.7485 -0.5729  1.9296
 6023TIP3   OH239559   1.578   5.185   4.327 -0.3478 -0.0533 -0.0646
 6023TIP3    H139560   1.577   5.251   4.258 -0.4973 -0.3032 -0.3020
 6023TIP3    H239561   1.631   5.223   4.396  0.4838 -0.1481 -0.6497
 6024TIP3   OH239562   2.560   2.477   1.900  0.3134  0.0406  0.3837
 6024TIP3    H139563   2.486   2.506   1.953 -0.9317 -3.2211  0.5059
 6024TIP3    H239564   2.541   2.510   1.812 -2.2648 -2.3100 -0.0034
 6025TIP3   OH239565   5.001   0.923   6.124 -0.0443  0.1183 -0.1486
 6025TIP3    H139566   5.016   0.960   6.211 -1.1716 -0.3454  0.2458
 6025TIP3    H239567   4.911   0.892   6.126  0.0860 -0.3603 -1.3152
 6026TIP3   OH239568   6.343   0.114   5.663 -0.1144 -0.0767 -0.2858
 6026TIP3    H139569   6.412   0.050   5.679  0.3284  0.3114 -0.6639
 6026TIP3    H239570   6.265   0.060   5.644  0.7549 -0.4964 -2.7494
 6027TIP3   OH239571   1.765   5.645   4.796  0.0278  0.0949  0.7988
 6027TIP3    H139572   1.745   5.559   4.761 -1.2707  0.2510  1.0941
 6027TIP3    H239573   1.679   5.682   4.818  0.0730  3.2738 -3.5584
 6028TIP3   OH239574   4.767   0.961   5.583  0.2095 -0.2367  0.2571
 6028TIP3    H139575   4.835   0.916   5.634  0.6350  0.2731  0.1449
 6028TIP3    H239576   4.782   0.930   5.493  0.2336 -0.1961  0.2471
 6029TIP3   OH239577   1.409   2.358  11.851 -0.2553 -0.5703 -0.1353
 6029TIP3    H139578   1.501   2.381  11.865  0.0309 -1.5525 -0.2954
 6029TIP3    H239579   1.394   2.374  11.757 -0.0236 -1.1155 -0.2718
 6030TIP3   OH239580   1.332   1.064   0.034  0.3983 -0.1830 -0.4247
 6030TIP3    H139581   1.333   0.968   0.040  2.6571 -0.0735  1.6021
 6030TIP3    H239582   1.424   1.088   0.023  0.2105  1.8832  2.0293
 6031TIP3   OH239583   0.777   5.999  13.716 -0.1790 -0.9164  0.0129
 6031TIP3    H139584   0.849   6.063  13.714  0.6031 -1.8128 -3.3693
 6031TIP3    H239585   0.802   5.938  13.786  1.0396  0.2227  0.6085
 6032TIP3   OH239586   6.229   6.484  14.387  0.5718 -0.1467  0.2331
 6032TIP3    H139587   6.191   6.481  14.299  1.6797 -0.4578 -0.2497
 6032TIP3    H239588   6.245   6.577  14.404  2.1353 -0.2349 -0.6887
 6033TIP3   OH239589   5.462   5.174  14.999 -0.9562  0.5070 -0.1367
 6033TIP3    H139590   5.492   5.224  15.075 -1.0491  0.3313  0.0151
 6033TIP3    H239591   5.392   5.118  15.033 -3.5405  3.0657 -1.0609
 6034TIP3   OH239592   0.800   5.596  14.749  0.0611 -0.0974  0.1530
 6034TIP3    H139593   0.840   5.511  14.766 -0.6106  0.0435  2.7011
 6034TIP3    H239594   0.871   5.649  14.714  0.6080 -1.5417 -0.9987
 6035TIP3   OH239595   2.635   0.841  11.678  0.4727 -0.4358  0.2414
 6035TIP3    H139596   2.704   0.907  11.671  0.2107 -0.0362  1.4410
 6035TIP3    H239597   2.558   0.890  11.706  0.2378 -1.2181  0.9743
 6036TIP3   OH239598   0.917   6.417  15.181  0.3337 -0.0452  0.3075
 6036TIP3    H139599   0.871   6.365  15.247 -1.2424  0.5672 -0.2789
 6036TIP3    H239600   0.974   6.354  15.137  1.2423 -0.5074  2.0696
 6037TIP3   OH239601   4.382   4.372   3.377 -0.0174 -0.1796  0.0135
 6037TIP3    H139602   4.380   4.458   3.337  2.0602 -0.0030  0.2335
 6037TIP3    H239603   4.315   4.322   3.330 -1.6439  1.6964  0.2851
 6038TIP3   OH239604   3.102   2.267   0.306 -0.2611 -0.0967 -0.5501
 6038TIP3    H139605   3.011   2.239   0.306 -0.0350 -0.8785  1.1154
 6038TIP3    H239606   3.106   2.335   0.239 -2.0763 -0.0155 -0.6020
 6039TIP3   OH239607   5.486   1.331   0.316 -0.3862 -0.6125  0.5871
 6039TIP3    H139608   5.408   1.357   0.365 -0.3254 -1.9333  1.4187
 6039TIP3    H239609   5.467   1.242   0.286 -0.0100 -0.2020 -0.9453
 6040TIP3   OH239610   5.681   4.364   2.705 -0.5639  0.3003 -0.2228
 6040TIP3    H139611   5.660   4.411   2.786  0.0790 -1.3053  0.8982
 6040TIP3    H239612   5.643   4.277   2.717  1.8135 -0.8092 -0.5305
 6041TIP3   OH239613   2.224   4.014   5.898 -0.4853  0.2176 -0.2479
 6041TIP3    H139614   2.190   4.102   5.915 -0.5307 -0.2317  2.1500
 6041TIP3    H239615   2.159   3.955   5.935  1.8054 -0.6970  2.4643
 6042TIP3   OH239616   1.710   5.112   0.991 -0.6194  0.2210  0.5171
 6042TIP3    H139617   1.785   5.134   0.936 -0.7264  0.4724  0.4703
 6042TIP3    H239618   1.682   5.196   1.027 -1.7907  0.3352 -0.6358
 6043TIP3   OH239619   3.999   5.876  15.367  0.2676  0.0076 -0.1963
 6043TIP3    H139620   4.037   5.788  15.371 -0.3306 -0.2216  0.6567
 6043TIP3    H239621   3.906   5.862  15.385  0.1075  0.7736 -0.4427
 6044TIP3   OH239622   2.661   6.046   1.415 -0.1025 -0.4847 -0.3555
 6044TIP3    H139623   2.663   6.101   1.493  1.2823  0.2327 -0.8679
 6044TIP3    H239624   2.570   6.047   1.387 -0.9188 -1.9850  2.0986
 6045TIP3   OH239625   1.887   0.947   5.238 -0.2949 -0.0954  0.0644
 6045TIP3    H139626   1.830   0.904   5.301  1.9214 -1.8977  0.9072
 6045TIP3    H239627   1.921   1.023   5.285 -1.5697  0.7011 -0.2732
 6046TIP3   OH239628   0.551   2.042   1.353  0.2895 -0.6918 -0.3782
 6046TIP3    H139629   0.573   2.127   1.390 -1.6003 -0.2446 -0.2774
 6046TIP3    H239630   0.477   2.011   1.405 -1.2242 -0.8714 -2.5777
 6047TIP3   OH239631   3.773   4.406  10.667  0.2912  0.5084  0.2927
 6047TIP3    H139632   3.731   4.459  10.599  0.3353  0.2579  0.0684
 6047TIP3    H239633   3.701   4.359  10.709  0.4405 -0.8226 -0.8706
 6048TIP3   OH239634   0.231   0.490  12.905 -0.1703  0.2483  0.0742
 6048TIP3    H139635   0.162   0.555  12.922  1.1194  1.4844  0.6910
 6048TIP3    H239636   0.276   0.523  12.828  0.8091  0.3606  0.6870
 6049TIP3   OH239637   2.467   5.751   2.364  0.2416 -0.3482  0.5371
 6049TIP3    H139638   2.522   5.828   2.375  1.6342 -1.3599  0.7126
 6049TIP3    H239639   2.422   5.741   2.449  0.0689  0.2535  0.5156
 6050TIP3   OH239640   3.275   5.041  17.045  0.3789  0.3806  0.0186
 6050TIP3    H139641   3.336   5.095  17.094  1.0758  0.0671 -0.5039
 6050TIP3    H239642   3.272   4.958  17.093  0.3838  0.3843  0.0263
 6051TIP3   OH239643   2.723   1.524   6.000 -0.0396  0.7928 -0.4155
 6051TIP3    H139644   2.659   1.502   5.933 -0.4690  0.0131  0.2430
 6051TIP3    H239645   2.708   1.460   6.070  1.2889  0.7577 -0.1470
 6052TIP3   OH239646   0.939   3.522  13.772 -0.3803 -0.6748 -0.7443
 6052TIP3    H139647   0.975   3.443  13.814  1.2728  1.2676  1.5995
 6052TIP3    H239648   1.008   3.551  13.713  0.4970  1.0246  1.0795
 6053TIP3   OH239649   3.732   6.020  13.247 -0.3337  0.0711  0.1214
 6053TIP3    H139650   3.682   6.067  13.313 -0.8524 -3.5978  2.5363
 6053TIP3    H239651   3.823   6.044  13.264 -0.7815  2.2690 -0.5008
 6054TIP3   OH239652   4.512   4.047  16.262 -0.1046 -0.1818 -0.0119
 6054TIP3    H139653   4.448   4.000  16.316 -1.0706  0.6683 -0.3994
 6054TIP3    H239654   4.461   4.079  16.188  0.5136  1.5686  0.3117
 6055TIP3   OH239655   6.274   2.602  14.381  0.2104  0.0575 -0.1135
 6055TIP3    H139656   6.329   2.679  14.366  0.6101 -0.2024  0.0085
 6055TIP3    H239657   6.303   2.539  14.315  0.2562 -0.1835  0.1379
 6056TIP3   OH239658   2.436   0.144  11.028  0.2179  0.0329  0.1355
 6056TIP3    H139659   2.471   0.055  11.032 -1.4777 -0.6460  0.2565
 6056TIP3    H239660   2.342   0.132  11.014  0.3197  1.8279 -2.3857
 6057TIP3   OH239661   4.560   1.602   0.378 -0.4823 -0.0524 -0.2375
 6057TIP3    H139662   4.554   1.635   0.468 -2.4983 -1.8082  0.3000
 6057TIP3    H239663   4.482   1.637   0.335 -0.1655 -0.2404 -0.9625
 6058TIP3   OH239664   4.107   0.757  13.842  0.2947 -0.2595 -0.4302
 6058TIP3    H139665   4.084   0.708  13.764  0.2641 -2.2656  0.7973
 6058TIP3    H239666   4.160   0.696  13.894 -1.0352  0.4382  1.8402
 6059TIP3   OH239667   2.130   1.366   5.428  0.3571 -0.0925  0.2851
 6059TIP3    H139668   2.161   1.454   5.446  1.7852 -0.6285  0.5085
 6059TIP3    H239669   2.195   1.329   5.368  1.2240 -1.8963  2.2686
 6060TIP3   OH239670   2.659   2.556   4.078  0.1305 -0.4051 -0.2817
 6060TIP3    H139671   2.577   2.508   4.067  0.1007  0.0477 -2.1809
 6060TIP3    H239672   2.725   2.489   4.097 -0.4277 -0.9021 -0.0907
 6061TIP3   OH239673   6.400   1.858   2.646 -0.5283  0.4227 -0.0630
 6061TIP3    H139674   6.393   1.762   2.641  0.1376  0.2879  1.4645
 6061TIP3    H239675   6.320   1.885   2.692 -1.4945  0.7547 -1.8890
 6062TIP3   OH239676   2.467   6.092   2.111  0.2455  0.0464  0.3339
 6062TIP3    H139677   2.413   6.020   2.142  1.2522  0.1299  2.3430
 6062TIP3    H239678   2.551   6.052   2.088  0.0438  0.2368 -0.8009
 6063TIP3   OH239679   6.449   3.637   0.664  0.1913 -0.6043  0.5496
 6063TIP3    H139680   6.356   3.623   0.651  0.3297 -0.2889 -0.9139
 6063TIP3    H239681   6.467   3.606   0.753 -1.2543 -0.8699  0.7490
 6064TIP3   OH239682   2.285   1.550   5.993  0.6039  0.3566 -0.7228
 6064TIP3    H139683   2.199   1.552   5.951  0.2795 -0.0309 -0.0956
 6064TIP3    H239684   2.272   1.493   6.069  1.2298  0.8847 -0.2226
 6065TIP3   OH239685   5.753   5.959   0.625  0.2069  0.6363 -0.5311
 6065TIP3    H139686   5.776   5.971   0.717 -0.9000 -0.1004 -0.1394
 6065TIP3    H239687   5.680   6.020   0.611  0.3381  0.7081 -0.9092
 6066TIP3   OH239688   1.473   4.216  14.473  0.8797 -0.4363  0.3522
 6066TIP3    H139689   1.557   4.223  14.427  1.4958  0.1948  1.5620
 6066TIP3    H239690   1.496   4.198  14.564 -0.2408  1.3575  1.0270
 6067TIP3   OH239691   3.551   1.868  16.430  0.1272  0.3667  0.0359
 6067TIP3    H139692   3.641   1.896  16.419  0.1842  0.6144  1.1067
 6067TIP3    H239693   3.549   1.823  16.514 -0.1721 -2.0216 -1.2160
 6068TIP3   OH239694   0.748   4.073  12.525  0.2215  0.0924  0.0230
 6068TIP3    H139695   0.669   4.084  12.580  1.3163 -0.8838  1.8400
 6068TIP3    H239696   0.765   4.161  12.491 -0.4849  0.7294  1.2597
 6069TIP3   OH239697   5.816   4.752  16.956 -0.1894 -0.7164  0.0578
 6069TIP3    H139698   5.745   4.709  17.004 -1.5530  0.6634 -0.6657
 6069TIP3    H239699   5.771   4.806  16.890  1.4165  1.9405  1.0502
 6070TIP3   OH239700   2.125   0.213   5.845 -0.2913 -0.2102  0.1472
 6070TIP3    H139701   2.140   0.215   5.940 -0.4485  0.7417  0.1626
 6070TIP3    H239702   2.119   0.120   5.823  2.0299 -0.5290  0.7003
 6071TIP3   OH239703   0.010   6.352   1.979  0.4796 -0.2299 -0.0911
 6071TIP3    H139704  -0.028   6.439   1.988 -1.1255 -0.9620  0.4152
 6071TIP3    H239705   0.078   6.348   2.045  0.1371  0.4258  0.2987
 6072TIP3   OH239706   3.033   0.525   4.389 -0.4263 -0.0668 -0.2260
 6072TIP3    H139707   3.110   0.547   4.336 -0.4135 -1.2727 -0.6977
 6072TIP3    H239708   3.035   0.590   4.460  0.2896  0.7238 -0.9563
 6073TIP3   OH239709   1.609   4.638   5.263 -0.3226 -0.9177  0.0138
 6073TIP3    H139710   1.659   4.591   5.196 -0.6043 -1.5547  0.2444
 6073TIP3    H239711   1.642   4.728   5.260  0.2153 -1.1316 -0.4398
 6074TIP3   OH239712   1.291   1.871  14.095  0.3601  0.0335 -0.2284
 6074TIP3    H139713   1.311   1.930  14.167 -2.0263 -0.0151  0.5019
 6074TIP3    H239714   1.222   1.814  14.129  1.5897 -2.2218 -1.4085
 6075TIP3   OH239715   2.512   4.487  14.756  0.0890 -0.1812  0.2574
 6075TIP3    H139716   2.580   4.553  14.771  0.7059 -0.9711  0.9838
 6075TIP3    H239717   2.516   4.470  14.662  0.0198  0.7076  0.0877
 6076TIP3   OH239718   6.019   1.439  12.212 -0.0018  0.4434  0.2209
 6076TIP3    H139719   6.018   1.376  12.284  0.5046  2.8520  2.4352
 6076TIP3    H239720   6.110   1.466  12.205  0.2275 -0.8651 -2.3802
 6077TIP3   OH239721   4.663   3.529  12.310 -0.7046  0.0356 -0.5988
 6077TIP3    H139722   4.645   3.462  12.244 -1.1115  1.8669 -2.4209
 6077TIP3    H239723   4.610   3.604  12.282 -0.2915  1.0917  1.4124
 6078TIP3   OH239724   2.943   1.508   2.151  0.2821 -0.1814  0.4016
 6078TIP3    H139725   2.959   1.484   2.242  1.2870  0.9923  0.5392
 6078TIP3    H239726   3.005   1.578   2.133 -1.8724  1.5827 -0.3113
 6079TIP3   OH239727   6.042   1.557  16.976  0.4358  0.1878 -0.2813
 6079TIP3    H139728   6.042   1.542  17.070 -0.3322 -1.6491 -0.5438
 6079TIP3    H239729   5.949   1.566  16.953  0.6222  0.7336 -0.8563
 6080TIP3   OH239730   1.417   0.370   5.347 -0.4480 -0.0312  0.4021
 6080TIP3    H139731   1.405   0.278   5.371  0.1323 -1.0499 -3.0239
 6080TIP3    H239732   1.510   0.379   5.331 -0.7341  0.7243 -0.9032
 6081TIP3   OH239733   3.703   5.592  14.021  0.4069  0.2128 -0.0505
 6081TIP3    H139734   3.783   5.645  14.022 -0.2263  1.1793  0.8585
 6081TIP3    H239735   3.634   5.652  14.049 -0.5932 -0.6965 -0.5006
 6082TIP3   OH239736   3.748   2.227  16.254  0.4824 -0.3611 -0.3885
 6082TIP3    H139737   3.698   2.154  16.219  0.7932 -0.6798 -0.1735
 6082TIP3    H239738   3.796   2.262  16.179 -1.7662  1.3660 -1.0889
 6083TIP3   OH239739   0.550   2.855   5.475  0.5871 -0.5921 -0.0483
 6083TIP3    H139740   0.563   2.880   5.566  1.0673  1.6047 -0.6904
 6083TIP3    H239741   0.629   2.885   5.430 -0.1976 -0.5311 -1.4128
 6084TIP3   OH239742   4.108   0.261  15.928 -0.2629 -0.0242 -0.5776
 6084TIP3    H139743   4.056   0.184  15.953  0.3618 -0.1705  0.2700
 6084TIP3    H239744   4.049   0.335  15.940 -1.2064 -0.4572 -2.3809
 6085TIP3   OH239745   2.773   6.614  14.754  0.0730 -0.3820  0.0078
 6085TIP3    H139746   2.784   6.709  14.760  0.7706 -0.5279  1.2327
 6085TIP3    H239747   2.721   6.600  14.675 -1.1331  1.0950  0.5233
 6086TIP3   OH239748   3.981   2.285   5.095  0.2386 -0.0044  0.3806
 6086TIP3    H139749   3.990   2.379   5.112  1.9978 -0.1701  0.4604
 6086TIP3    H239750   4.044   2.244   5.154  0.8892 -1.1085 -1.0692
 6087TIP3   OH239751   4.865   4.986  11.277 -0.1951  0.1981 -0.2771
 6087TIP3    H139752   4.824   5.067  11.248 -0.3867  0.6089  1.0951
 6087TIP3    H239753   4.821   4.965  11.360  0.6343 -0.6855 -0.0503
 6088TIP3   OH239754   1.861   0.271   4.303 -0.6680 -0.6923  0.6948
 6088TIP3    H139755   1.828   0.359   4.320 -1.2125 -0.2206 -2.4287
 6088TIP3    H239756   1.952   0.285   4.274 -0.6917 -1.1768  0.3912
 6089TIP3   OH239757   4.433   1.068   4.614 -0.4026  0.3238 -0.2929
 6089TIP3    H139758   4.444   0.992   4.670 -0.5579  2.2618  2.4996
 6089TIP3    H239759   4.353   1.051   4.564 -0.3028 -1.4050  0.1346
 6090TIP3   OH239760   3.884   3.472   1.954  0.1675  0.0530  0.5206
 6090TIP3    H139761   3.854   3.400   1.899 -0.7377  0.6965  0.1545
 6090TIP3    H239762   3.950   3.517   1.900  1.0758 -0.7538  0.9284
 6091TIP3   OH239763   4.102   6.228   5.081 -0.2205 -0.1581  0.1278
 6091TIP3    H139764   4.112   6.178   5.162  0.7102 -0.8944 -0.4342
 6091TIP3    H239765   4.009   6.220   5.059 -0.3883 -0.3161  0.8824
 6092TIP3   OH239766   2.442   1.857   2.576  0.3535 -0.1274  0.1175
 6092TIP3    H139767   2.504   1.864   2.648  0.1038  0.5321  0.2710
 6092TIP3    H239768   2.371   1.917   2.599  0.3011  0.1340 -0.7071
 6093TIP3   OH239769   5.175   0.493   0.235 -0.3782  0.1127  0.2018
 6093TIP3    H139770   5.267   0.512   0.255 -0.6435 -0.4262  1.9355
 6093TIP3    H239771   5.132   0.578   0.239  0.0148  0.3527 -0.5169
 6094TIP3   OH239772   5.456   2.865  15.202  0.5771 -0.1677  0.3674
 6094TIP3    H139773   5.362   2.881  15.199  0.1928 -2.1854  0.8470
 6094TIP3    H239774   5.481   2.884  15.292  0.9331  1.9254 -0.1677
 6095TIP3   OH239775   3.635   5.420   2.620  0.0016 -0.0298  0.1972
 6095TIP3    H139776   3.607   5.508   2.596 -0.3809 -0.1943  0.0342
 6095TIP3    H239777   3.553   5.373   2.639  0.2622 -0.0297  1.3979
 6096TIP3   OH239778   6.049   6.041  11.261  0.0348  0.7347 -0.4002
 6096TIP3    H139779   6.118   6.060  11.325  0.9063 -1.4529 -0.6275
 6096TIP3    H239780   6.096   6.027  11.179 -0.7872  0.5308 -0.8404
 6097TIP3   OH239781   2.520   4.137  14.025 -0.1393  0.2767 -0.0717
 6097TIP3    H139782   2.607   4.124  14.064  0.3492  0.2007 -1.1505
 6097TIP3    H239783   2.535   4.124  13.931 -1.2572  0.6074 -0.2943
 6098TIP3   OH239784   5.286   4.539  13.259  0.3953 -0.3155  0.2953
 6098TIP3    H139785   5.205   4.591  13.258  0.6252  0.0646  1.0420
 6098TIP3    H239786   5.344   4.587  13.318  1.8226  0.3898 -1.6289
 6099TIP3   OH239787   3.986   1.161   4.256 -0.7208  0.2778  0.3225
 6099TIP3    H139788   3.960   1.172   4.165 -1.3253  0.3672  0.5042
 6099TIP3    H239789   3.940   1.082   4.285 -0.6796  0.3582  0.6112
 6100TIP3   OH239790   0.398   1.980   2.878  0.0251 -0.6728  0.4463
 6100TIP3    H139791   0.440   2.065   2.890 -0.7963 -0.1438 -0.3170
 6100TIP3    H239792   0.468   1.916   2.892  1.1422  0.1925 -1.0545
 6101TIP3   OH239793   1.034   2.995   0.043  0.4077  0.3186  0.1469
 6101TIP3    H139794   1.125   2.971   0.060 -0.0429  0.0730  2.3204
 6101TIP3    H239795   0.994   2.913   0.013  0.6835  0.1904  0.1227
 6102TIP3   OH239796   0.965   4.149  13.483  0.2670  0.1218  1.0113
 6102TIP3    H139797   1.018   4.192  13.550  0.4575 -2.1003  2.3448
 6102TIP3    H239798   0.884   4.124  13.528 -0.3836  0.2356 -0.0648
 6103TIP3   OH239799   3.047   4.712   5.414  0.2366 -0.1246  0.0725
 6103TIP3    H139800   2.959   4.707   5.376  0.7503  1.5119 -1.3655
 6103TIP3    H239801   3.091   4.634   5.380 -0.1274 -0.0547 -0.5728
 6104TIP3   OH239802   2.482   4.490  14.476 -0.1314 -0.2514  0.5363
 6104TIP3    H139803   2.448   4.580  14.472 -0.8368 -0.4751  1.2660
 6104TIP3    H239804   2.516   4.473  14.388  0.3383  0.8601  0.4958
 6105TIP3   OH239805   0.156   6.668  10.535  0.3846  0.0532  0.1592
 6105TIP3    H139806   0.194   6.607  10.597  2.5284  2.4351  1.3076
 6105TIP3    H239807   0.231   6.720  10.504 -0.7989 -0.2296 -3.4873
 6106TIP3   OH239808   0.909   6.004   1.648 -0.2830 -0.0152 -0.0948
 6106TIP3    H139809   0.858   6.060   1.588  0.0694 -0.9051 -1.2327
 6106TIP3    H239810   0.864   5.920   1.646  2.4184 -1.4587 -2.7476
 6107TIP3   OH239811   6.195   3.224   6.107  0.3719 -0.3228 -0.0057
 6107TIP3    H139812   6.229   3.208   6.019 -2.1679 -0.7143 -0.9390
 6107TIP3    H239813   6.106   3.256   6.094 -0.0657 -0.4207  2.4316
 6108TIP3   OH239814   5.839   5.146  13.408  0.3310 -0.0095  0.5849
 6108TIP3    H139815   5.782   5.210  13.450  0.5535  0.1658  0.6144
 6108TIP3    H239816   5.834   5.069  13.465 -0.0719 -0.0800  0.4571
 6109TIP3   OH239817   4.518   4.033   4.277 -0.0986 -0.0994 -0.2412
 6109TIP3    H139818   4.541   3.992   4.194  0.8785  1.1406 -0.5915
 6109TIP3    H239819   4.575   4.110   4.283  0.4563 -0.6284  1.9651
 6110TIP3   OH239820   2.912   1.522   1.794  0.7769  0.1678  0.0805
 6110TIP3    H139821   2.937   1.540   1.703 -1.0834 -0.8851 -0.6858
 6110TIP3    H239822   2.955   1.590   1.845  1.0442  1.3942 -1.7196
 6111TIP3   OH239823   2.401   2.656  14.225 -0.6182  0.0540  0.2039
 6111TIP3    H139824   2.485   2.689  14.194 -0.2902  0.4336  1.4465
 6111TIP3    H239825   2.336   2.693  14.166 -0.1766  2.2798  1.0916
 6112TIP3   OH239826   1.113   5.092   1.876  0.2493  0.5143  0.9526
 6112TIP3    H139827   1.113   5.002   1.909 -0.2581 -0.1111 -0.6717
 6112TIP3    H239828   1.115   5.147   1.954  0.7391 -0.9133  1.9635
 6113TIP3   OH239829   3.935   3.209   0.385  0.3086 -0.3660  0.0273
 6113TIP3    H139830   3.964   3.280   0.442 -0.1830  2.9249 -3.6220
 6113TIP3    H239831   3.848   3.187   0.417 -0.6745  2.6284 -0.3791
 6114TIP3   OH239832   5.559   3.084   5.322 -0.0751  0.2363  0.0345
 6114TIP3    H139833   5.618   3.082   5.247  0.1281 -1.2386  0.2146
 6114TIP3    H239834   5.561   2.994   5.357 -0.4135  0.8193  1.6027
 6115TIP3   OH239835   5.653   0.057  15.871 -0.6424  0.3010 -0.3698
 6115TIP3    H139836   5.661   0.141  15.825  0.5995  0.2436 -0.2793
 6115TIP3    H239837   5.690  -0.006  15.810  1.3251  0.2685  0.8335
 6116TIP3   OH239838   6.734   3.754  16.893  0.0903 -0.5100  0.2501
 6116TIP3    H139839   6.699   3.666  16.905  0.2316 -0.3264  2.1624
 6116TIP3    H239840   6.793   3.767  16.968 -1.1385  1.7801  0.8829
 6117TIP3   OH239841   1.263   4.424   1.252 -0.7636  0.1293  0.2180
 6117TIP3    H139842   1.191   4.363   1.236  0.1332 -0.8540 -0.1197
 6117TIP3    H239843   1.295   4.401   1.339 -1.2558  0.9788  0.6270
 6118TIP3   OH239844   2.375   3.421   5.514  0.0638 -0.5744  0.7306
 6118TIP3    H139845   2.367   3.484   5.585 -0.6132  0.7151 -0.4548
 6118TIP3    H239846   2.437   3.461   5.453 -1.1075 -0.6166 -0.4957
 6119TIP3   OH239847   4.919   2.981  17.144 -0.1877 -0.2047 -0.1200
 6119TIP3    H139848   4.888   2.890  17.142 -1.6953  0.3207 -1.1348
 6119TIP3    H239849   4.866   3.023  17.212  0.3791 -0.0152  0.2149
 6120TIP3   OH239850   6.532   3.497   1.956  0.0048 -0.1060 -0.5609
 6120TIP3    H139851   6.446   3.456   1.958 -0.2292  0.3925 -0.1146
 6120TIP3    H239852   6.576   3.464   2.035 -0.5309  1.2073  0.3143
 6121TIP3   OH239853   2.393   3.139  14.698 -0.5062 -0.9090 -0.0065
 6121TIP3    H139854   2.348   3.119  14.615  0.1167  0.7752 -0.7727
 6121TIP3    H239855   2.486   3.135  14.675 -0.3197 -0.9349  0.7543
 6122TIP3   OH239856   0.586   3.438   5.329 -0.4940  0.3556 -0.1287
 6122TIP3    H139857   0.613   3.511   5.274  1.9162  0.5937  1.2977
 6122TIP3    H239858   0.550   3.479   5.408  0.2487  0.0091  0.3929
 6123TIP3   OH239859   3.630   1.164  13.358  0.2518 -0.2756 -0.0064
 6123TIP3    H139860   3.619   1.258  13.342 -0.2355 -0.6309 -1.9531
 6123TIP3    H239861   3.707   1.140  13.306  0.8566 -0.8142  1.1146
 6124TIP3   OH239862   3.301   6.207  15.013 -0.3366  0.2421 -0.7045
 6124TIP3    H139863   3.213   6.242  15.002  0.3067  1.3438 -2.5172
 6124TIP3    H239864   3.297   6.120  14.973 -0.2278  0.8891 -2.1584
 6125TIP3   OH239865   4.650   4.505   0.085  0.4176  0.3136 -0.0559
 6125TIP3    H139866   4.670   4.517   0.178 -0.7694  0.7054  0.1613
 6125TIP3    H239867   4.633   4.411   0.076  0.0629  0.3500  0.2186
 6126TIP3   OH239868   5.498   6.744   1.648 -0.4424 -0.1898 -0.2774
 6126TIP3    H139869   5.578   6.711   1.608 -1.1351 -2.4970  0.1587
 6126TIP3    H239870   5.430   6.728   1.584 -0.8943 -0.1425  0.1847
 6127TIP3   OH239871   6.686   1.129  12.510  0.0216  0.9131 -0.1928
 6127TIP3    H139872   6.632   1.208  12.516  0.4505  1.3121 -1.5604
 6127TIP3    H239873   6.770   1.155  12.548 -0.1564  0.8054  0.2868
 6128TIP3   OH239874   5.430   1.159   4.938  0.8312 -0.2926  0.0827
 6128TIP3    H139875   5.341   1.144   4.906  0.1785  0.3454  1.5379
 6128TIP3    H239876   5.486   1.107   4.880 -0.6258 -1.9869  0.1719
 6129TIP3   OH239877   6.259   4.518  16.725 -0.3727  0.3931 -0.0212
 6129TIP3    H139878   6.177   4.528  16.774 -1.3946 -1.5913 -1.2738
 6129TIP3    H239879   6.316   4.472  16.786 -1.6010 -1.9635 -0.6083
 6130TIP3   OH239880   1.834   1.462   1.403 -0.5125  0.1866 -0.4701
 6130TIP3    H139881   1.770   1.414   1.455 -0.7366 -0.7015 -1.5370
 6130TIP3    H239882   1.890   1.505   1.467 -0.5320 -1.2250  0.5203
 6131TIP3   OH239883   1.598   5.088   5.027 -0.1253 -0.4374  0.5089
 6131TIP3    H139884   1.636   5.144   5.095  0.0051 -1.7057  1.5018
 6131TIP3    H239885   1.517   5.132   5.002 -0.1248  0.0917  1.4217
 6132TIP3   OH239886   0.706   6.343  16.230 -0.3044  0.3769 -0.4505
 6132TIP3    H139887   0.779   6.281  16.227 -2.7186 -2.5502 -2.3102
 6132TIP3    H239888   0.737   6.414  16.286  3.1351 -1.7957  0.5864
 6133TIP3   OH239889   6.184   0.406  12.796  0.2465  0.5630 -0.0799
 6133TIP3    H139890   6.184   0.463  12.873 -0.8867  0.8194 -0.2690
 6133TIP3    H239891   6.266   0.356  12.804  0.3882  0.9478  1.0147
 6134TIP3   OH239892   0.216   2.817   2.339  0.8728  0.0617 -0.3765
 6134TIP3    H139893   0.305   2.851   2.325  1.2897 -0.6026  0.6172
 6134TIP3    H239894   0.186   2.861   2.418  0.4021  0.1107 -0.5841
 6135TIP3   OH239895   4.333   5.326   4.862  0.3861 -0.1299 -0.0595
 6135TIP3    H139896   4.318   5.409   4.815  0.2247 -0.4273 -0.5405
 6135TIP3    H239897   4.317   5.259   4.796  0.3327 -0.5501  0.3816
 6136TIP3   OH239898   4.322   2.289  15.902  0.3043  0.2194  0.0699
 6136TIP3    H139899   4.250   2.351  15.889 -0.5074 -0.8660 -0.7151
 6136TIP3    H239900   4.293   2.233  15.975  0.4127 -0.1295 -0.1547
 6137TIP3   OH239901   5.437   3.684   3.225 -0.5585  0.7343  0.6681
 6137TIP3    H139902   5.362   3.657   3.277  0.5764 -2.4971  0.7201
 6137TIP3    H239903   5.513   3.651   3.272  0.6225 -0.1769 -1.7525
 6138TIP3   OH239904   4.200   3.803  15.512  0.0803 -0.6705 -0.0824
 6138TIP3    H139905   4.208   3.708  15.512 -0.9382 -0.7672  1.2149
 6138TIP3    H239906   4.119   3.821  15.560 -0.2495  0.8156 -1.1287
 6139TIP3   OH239907   5.179   4.694  16.047  0.0177 -0.2482  0.0343
 6139TIP3    H139908   5.143   4.611  16.080  0.6051 -1.2268 -1.7351
 6139TIP3    H239909   5.273   4.680  16.045  0.1151  0.4710 -0.2725
 6140TIP3   OH239910   4.955   4.115   5.950 -0.1238  0.1006  0.1492
 6140TIP3    H139911   4.954   4.161   5.866 -0.1533 -2.3644 -1.2526
 6140TIP3    H239912   4.905   4.172   6.008 -2.0754  0.7886 -2.1028
 6141TIP3   OH239913   0.244   5.829  11.428 -0.2348 -0.6187 -0.7990
 6141TIP3    H139914   0.239   5.795  11.518 -1.6519  0.8980 -0.2652
 6141TIP3    H239915   0.332   5.807  11.399  0.6423 -0.1683  1.3824
 6142TIP3   OH239916   6.064   3.862   4.142  0.0230  0.5687 -0.1238
 6142TIP3    H139917   5.981   3.863   4.189  0.6963  0.4401  1.0967
 6142TIP3    H239918   6.130   3.860   4.211  1.0532  1.3200 -1.0737
 6143TIP3   OH239919   0.408   4.714  16.169 -0.1399  0.0485 -0.3842
 6143TIP3    H139920   0.408   4.803  16.206  0.8337  0.3528 -1.0918
 6143TIP3    H239921   0.329   4.712  16.113  0.2083  0.7089 -0.9138
 6144TIP3   OH239922   2.382   1.590  12.854  0.3827  0.1810 -0.0808
 6144TIP3    H139923   2.426   1.615  12.935 -0.2946  1.0576  0.0133
 6144TIP3    H239924   2.292   1.571  12.879  0.1611  0.4804 -0.6325
 6145TIP3   OH239925   5.132   5.309  16.832 -0.3727  0.4321 -0.1924
 6145TIP3    H139926   5.121   5.344  16.744  1.9336  1.7728 -0.0020
 6145TIP3    H239927   5.151   5.216  16.819  0.1744  0.6695 -1.1488
 6146TIP3   OH239928   3.438   5.643   2.640  0.4135 -0.0996  0.0642
 6146TIP3    H139929   3.490   5.715   2.606 -1.6445  1.7680  0.7911
 6146TIP3    H239930   3.433   5.659   2.734  0.4613 -1.5541  0.3241
 6147TIP3   OH239931   4.883   3.627   2.748  0.2647 -0.2955  0.8000
 6147TIP3    H139932   4.881   3.614   2.842 -0.4219  1.5063  1.0550
 6147TIP3    H239933   4.971   3.599   2.722  0.2486 -1.3878  1.8578
 6148TIP3   OH239934   5.969   2.354  14.550 -0.3366  0.3553 -0.3636
 6148TIP3    H139935   6.022   2.418  14.597  0.7572 -0.0611 -1.0026
 6148TIP3    H239936   5.890   2.344  14.603  0.5964  0.3639  1.0541
 6149TIP3   OH239937   3.795   5.659   2.791 -0.3354  0.8676 -0.2685
 6149TIP3    H139938   3.836   5.712   2.859  0.7401 -0.8684  0.4814
 6149TIP3    H239939   3.767   5.579   2.836  0.5468 -0.3921 -1.8632
 6150TIP3   OH239940   0.349   3.170   2.477  0.1706  0.1366  0.1544
 6150TIP3    H139941   0.285   3.115   2.432  1.9294 -1.2884 -0.6481
 6150TIP3    H239942   0.416   3.109   2.508  2.2450  1.8267 -0.8997
 6151TIP3   OH239943   2.670   5.438   5.088  0.1735  0.3242 -0.3515
 6151TIP3    H139944   2.670   5.428   5.183 -1.3243 -0.4751 -0.4336
 6151TIP3    H239945   2.638   5.527   5.073 -1.3125 -0.1813 -0.1705
 6152TIP3   OH239946   2.063   6.392  12.776 -0.0219 -0.0244 -0.5000
 6152TIP3    H139947   2.042   6.420  12.865 -1.0622  2.3321 -1.4424
 6152TIP3    H239948   2.118   6.462  12.741 -0.8074 -0.2318 -2.1883
 6153TIP3   OH239949   4.621   1.497   3.730  0.2407 -0.1058  0.0062
 6153TIP3    H139950   4.636   1.461   3.817  1.1663  0.2666  0.0038
 6153TIP3    H239951   4.529   1.522   3.730  0.1597 -0.3981  0.7693
 6154TIP3   OH239952   3.479   0.410   5.132 -0.5593  0.3219 -0.0515
 6154TIP3    H139953   3.550   0.471   5.113 -0.2835  0.1551  0.4377
 6154TIP3    H239954   3.497   0.334   5.077 -0.5131  0.3930 -0.1345
 6155TIP3   OH239955   2.673   0.446   1.721  0.5291 -0.5776 -0.0109
 6155TIP3    H139956   2.691   0.360   1.685 -0.7148 -1.4438  1.3547
 6155TIP3    H239957   2.757   0.476   1.755  1.4709 -0.2273 -2.5375
 6156TIP3   OH239958   1.073   3.286   3.017  0.8095 -0.7216 -0.0659
 6156TIP3    H139959   0.995   3.236   2.993  1.2538 -1.8720  0.8672
 6156TIP3    H239960   1.119   3.298   2.933  0.5515 -1.6364 -0.3550
 6157TIP3   OH239961   6.785   6.013   3.419  0.2872  0.2706  0.9914
 6157TIP3    H139962   6.853   6.080   3.418 -0.1985  0.7649 -0.6117
 6157TIP3    H239963   6.827   5.935   3.455  1.3910  0.8800  1.0139
 6158TIP3   OH239964   6.625   6.763  14.841 -0.4873  0.9568  0.2741
 6158TIP3    H139965   6.584   6.816  14.909 -0.1298  0.2736  1.0206
 6158TIP3    H239966   6.584   6.793  14.760 -1.6870  1.0422  0.8935
 6159TIP3   OH239967   2.775   4.705   5.308  0.1802 -0.1767  0.4636
 6159TIP3    H139968   2.735   4.781   5.351  0.6053  0.6620 -0.6072
 6159TIP3    H239969   2.810   4.739   5.226  2.6739 -1.0148  1.1522
 6160TIP3   OH239970   1.862   3.012   6.582 -0.7643 -0.0961 -0.3124
 6160TIP3    H139971   1.863   3.095   6.630  0.5876 -0.4148  0.2479
 6160TIP3    H239972   1.890   3.036   6.494  1.3794 -0.2024  0.3124
 6161TIP3   OH239973   3.239   5.362  13.724  0.3895  0.5697  0.6604
 6161TIP3    H139974   3.188   5.378  13.804  1.2261  0.1630  1.2835
 6161TIP3    H239975   3.173   5.347  13.656 -0.3303  0.8524  1.2840
 6162TIP3   OH239976   2.717   5.774  11.360  0.4546 -0.2396 -0.4639
 6162TIP3    H139977   2.772   5.745  11.432 -0.2622 -0.6805 -0.0878
 6162TIP3    H239978   2.750   5.727  11.283  1.5561  0.6338 -0.5286
 6163TIP3   OH239979   3.533   2.603   4.453  0.4609  0.2775  0.3574
 6163TIP3    H139980   3.571   2.588   4.367 -1.4656 -0.1794 -0.4371
 6163TIP3    H239981   3.560   2.527   4.504 -0.3438 -0.6299 -0.5439
 6164TIP3   OH239982   0.192   0.655   0.185  0.0747  0.1987 -0.1045
 6164TIP3    H139983   0.267   0.596   0.178 -0.6044 -0.7902  0.9006
 6164TIP3    H239984   0.187   0.675   0.279 -0.7315  0.5203 -0.2173
 6165TIP3   OH239985   3.802   1.388   1.996 -0.1333  0.5041  0.1779
 6165TIP3    H139986   3.711   1.389   2.026  0.2532 -0.4008  1.4377
 6165TIP3    H239987   3.801   1.436   1.914 -1.9135 -0.2524 -0.2607
 6166TIP3   OH239988   4.073   4.713   4.292 -0.0517  0.2081  0.1027
 6166TIP3    H139989   3.983   4.730   4.266 -0.2800  2.6895  2.3663
 6166TIP3    H239990   4.072   4.624   4.328 -1.1428 -0.5499 -1.7657
 6167TIP3   OH239991   1.309   2.478  10.670  0.1470  0.0637 -0.2322
 6167TIP3    H139992   1.353   2.396  10.645 -0.8918 -0.1002 -1.5787
 6167TIP3    H239993   1.307   2.530  10.589 -0.0825  1.0201  0.3776
 6168TIP3   OH239994   2.175   4.786   1.288  0.5888 -0.4255 -0.4914
 6168TIP3    H139995   2.188   4.858   1.226 -1.8059  0.1410 -0.3941
 6168TIP3    H239996   2.080   4.782   1.300  0.7154 -3.4001 -0.2103
 6169TIP3   OH239997   0.037   1.055  15.464  0.5034  0.0540 -0.3191
 6169TIP3    H139998   0.081   1.133  15.499  3.1929 -1.3533 -0.4611
 6169TIP3    H239999   0.108   0.996  15.441 -1.4706 -1.9054 -1.5267
 6170TIP3   OH240000   4.369   3.091   5.650  0.3544 -0.3130  0.1084
 6170TIP3    H140001   4.462   3.091   5.672  0.3998 -1.0054 -0.0812
 6170TIP3    H240002   4.338   3.178   5.677  1.2486  0.2573 -0.6692
 6171TIP3   OH240003   4.328   0.369  15.787 -0.6554  0.0766 -0.7416
 6171TIP3    H140004   4.259   0.332  15.842  0.2611 -0.3492  0.1373
 6171TIP3    H240005   4.315   0.463  15.792 -0.4263  0.0520  0.4193
 6172TIP3   OH240006   4.103   0.931   0.219  0.6686 -0.5412  0.3918
 6172TIP3    H140007   4.059   1.012   0.193 -0.1668 -1.3872 -0.8681
 6172TIP3    H240008   4.111   0.938   0.315 -0.2082  0.6075  0.3944
 6173TIP3   OH240009   3.729   6.730  13.320  0.0277  0.0734 -0.7276
 6173TIP3    H140010   3.642   6.763  13.296 -0.4180 -2.7147 -3.2134
 6173TIP3    H240011   3.711   6.665  13.388  0.2531  0.0283 -0.7138
 6174TIP3   OH240012   1.856   3.133   3.355  0.1836  0.1936 -0.3412
 6174TIP3    H140013   1.790   3.202   3.346  1.6759  1.5609 -0.9815
 6174TIP3    H240014   1.940   3.179   3.352  1.1869 -1.5419  0.2952
 6175TIP3   OH240015   6.486   3.675  15.960  0.6738  0.0797 -0.4592
 6175TIP3    H140016   6.465   3.731  16.035  1.8365  0.0707 -0.1193
 6175TIP3    H240017   6.408   3.621  15.948  0.5286 -0.0165  0.8330
 6176TIP3   OH240018   4.529   6.608  15.558 -0.0477 -0.1065  0.5838
 6176TIP3    H140019   4.468   6.589  15.486  0.5357  1.7195 -0.4442
 6176TIP3    H240020   4.602   6.548  15.543  0.5493  0.9772 -0.9920
 6177TIP3   OH240021   6.751   0.640  16.278  0.3243  0.2516  0.5594
 6177TIP3    H140022   6.697   0.642  16.356 -1.2661  0.3026 -0.5155
 6177TIP3    H240023   6.800   0.723  16.281 -0.1134  0.4899  1.2277
 6178TIP3   OH240024   6.611   0.081  11.462 -0.1404 -0.2513  0.1279
 6178TIP3    H140025   6.642  -0.001  11.424  0.0110 -0.3190  0.3937
 6178TIP3    H240026   6.688   0.138  11.464 -0.3918  0.1221 -0.6547
 6179TIP3   OH240027   4.992   4.274   6.287  0.7347 -0.3046 -0.0310
 6179TIP3    H140028   4.924   4.312   6.231  0.6086 -0.6261 -0.1009
 6179TIP3    H240029   4.943   4.232   6.358  0.9697  1.5600  1.2446
 6180TIP3   OH240030   0.739   4.136  14.022 -0.3243 -0.5328  0.5279
 6180TIP3    H140031   0.818   4.190  14.022  0.0569 -1.0855 -0.0865
 6180TIP3    H240032   0.679   4.180  13.961  0.0169 -0.8437 -0.0352
 6181TIP3   OH240033   1.674   0.751   3.903 -0.0084  0.4633  0.0583
 6181TIP3    H140034   1.613   0.760   3.976 -0.8379  1.4206 -0.7312
 6181TIP3    H240035   1.639   0.809   3.836  0.9930 -0.0634 -0.9351
 6182TIP3   OH240036   4.365   5.949   0.814 -0.4887  0.2071 -0.5376
 6182TIP3    H140037   4.359   5.953   0.909  0.0943  1.0317 -0.5273
 6182TIP3    H240038   4.439   5.890   0.797 -0.4762  0.2044 -0.4726
 6183TIP3   OH240039   1.749   5.746  13.995 -0.5791  0.1564  0.2313
 6183TIP3    H140040   1.811   5.678  13.966 -0.0685  0.7259 -0.0324
 6183TIP3    H240041   1.801   5.800  14.056 -0.7094  0.8597 -0.2853
 6184TIP3   OH240042   6.051   4.865   6.181  0.4475 -0.3855 -0.1005
 6184TIP3    H140043   6.118   4.825   6.125 -0.3416 -0.1124 -1.2553
 6184TIP3    H240044   6.053   4.958   6.158 -0.6561 -0.4535 -0.4949
 6185TIP3   OH240045   6.220   1.638  12.134 -0.3151 -0.2166  0.2324
 6185TIP3    H140046   6.186   1.676  12.053  1.5454  0.3748 -0.2736
 6185TIP3    H240047   6.295   1.585  12.107  1.6436  1.6832  1.7964
 6186TIP3   OH240048   0.273   5.300   4.303 -0.5955 -0.9303  0.1413
 6186TIP3    H140049   0.222   5.225   4.332 -0.1523 -1.5487 -0.6880
 6186TIP3    H240050   0.208   5.358   4.262 -0.5923 -1.8258 -1.1326
 6187TIP3   OH240051   5.852   2.203  13.044 -0.0831 -0.7943  0.4514
 6187TIP3    H140052   5.917   2.226  12.978 -2.0040 -0.5767 -1.4142
 6187TIP3    H240053   5.826   2.113  13.023 -0.2740 -0.9378  1.2779
 6188TIP3   OH240054   3.443   2.852  14.035  0.3165 -0.0871 -0.5513
 6188TIP3    H140055   3.397   2.822  13.956  1.5719 -0.0281 -1.3083
 6188TIP3    H240056   3.378   2.843  14.105 -1.0566  0.6265 -1.7264
 6189TIP3   OH240057   2.211   1.880  17.167  0.2965 -0.1082  0.6658
 6189TIP3    H140058   2.146   1.911  17.104  1.3351  0.7648  0.0140
 6189TIP3    H240059   2.266   1.819  17.118 -0.1525 -1.0245  1.2792
 6190TIP3   OH240060   0.861   1.301   0.046  0.2583  0.0732 -0.0629
 6190TIP3    H140061   0.930   1.351   0.003 -0.3586  1.2679  0.3224
 6190TIP3    H240062   0.780   1.341   0.017 -0.2209 -0.2730  0.7735
 6191TIP3   OH240063   3.575   6.711   2.485  0.1280 -0.0307  0.2163
 6191TIP3    H140064   3.494   6.660   2.484 -0.4100  0.8433 -1.5662
 6191TIP3    H240065   3.604   6.713   2.394  2.0618 -0.1775  0.8106
 6192TIP3   OH240066   4.087   5.583  13.644  0.7134 -0.0846 -0.5012
 6192TIP3    H140067   3.992   5.600  13.645  0.6475 -0.3436 -1.5228
 6192TIP3    H240068   4.119   5.635  13.570  1.7142  1.7414  1.1575
 6193TIP3   OH240069   6.626   0.205   0.308  0.0947 -0.0519  0.1223
 6193TIP3    H140070   6.535   0.227   0.290 -0.3363 -1.1898  0.8997
 6193TIP3    H240071   6.624   0.116   0.343  1.4303  0.1482  0.7719
 6194TIP3   OH240072   0.850   6.618   3.166  0.6347 -0.3264 -0.4215
 6194TIP3    H140073   0.760   6.586   3.156 -0.0951  1.7794 -1.0091
 6194TIP3    H240074   0.871   6.604   3.258 -1.4171  1.8301  0.4450
 6195TIP3   OH240075   1.603   1.922  14.694  0.0255  0.2351  0.4155
 6195TIP3    H140076   1.555   1.951  14.617  0.7704 -1.0462 -0.5422
 6195TIP3    H240077   1.537   1.880  14.749 -0.2018 -0.3886 -0.3202
 6196TIP3   OH240078   6.715   6.128  15.185  0.7080  0.6047  1.0219
 6196TIP3    H140079   6.654   6.200  15.173  1.7565  1.6291  1.7093
 6196TIP3    H240080   6.664   6.049  15.167 -1.1494  1.3580  2.9409
 6197TIP3   OH240081   0.027   3.794  12.506  0.7876 -0.4414  0.0372
 6197TIP3    H140082   0.044   3.888  12.511 -0.8531  0.0895 -3.3493
 6197TIP3    H240083   0.114   3.754  12.501  1.4486  1.0310 -0.3389
 6198TIP3   OH240084   5.074   6.071   2.803  0.2946 -0.2453 -0.0721
 6198TIP3    H140085   5.130   6.131   2.852  0.9715  0.4378 -1.6295
 6198TIP3    H240086   5.084   5.987   2.848  1.8253  0.0933  0.2577
 6199TIP3   OH240087   4.338   6.419   3.933 -0.2525  0.2568 -0.1629
 6199TIP3    H140088   4.411   6.357   3.934 -0.4903 -0.0356 -0.8702
 6199TIP3    H240089   4.292   6.404   4.016  1.1946  1.2860  0.8623
 6200TIP3   OH240090   1.568   0.993  16.926  0.0877  0.3129 -0.3251
 6200TIP3    H140091   1.527   1.075  16.955 -1.4765 -0.0355 -1.5367
 6200TIP3    H240092   1.659   1.002  16.955 -0.1968  2.2196  0.1032
 6201TIP3   OH240093   6.696   3.836   6.356 -0.0996  0.2914  0.1597
 6201TIP3    H140094   6.658   3.833   6.444  1.0821  0.4705  0.6805
 6201TIP3    H240095   6.705   3.744   6.332  0.9393  0.2064  0.8308
 6202TIP3   OH240096   1.317   4.044   4.282  0.6148 -0.2002 -0.5377
 6202TIP3    H140097   1.252   4.112   4.267  2.0435  0.9708 -1.5328
 6202TIP3    H240098   1.267   3.970   4.317 -0.9261  1.4217  0.7790
 6203TIP3   OH240099   3.173   4.110  13.395  0.3666 -0.8943 -0.1729
 6203TIP3    H140100   3.241   4.176  13.379 -0.6269 -0.4572 -3.0168
 6203TIP3    H240101   3.094   4.161  13.413  0.1811 -1.3570  0.3234
 6204TIP3   OH240102   1.141   6.427  13.479 -0.2127  0.2792  0.2779
 6204TIP3    H140103   1.190   6.352  13.446 -0.1399  0.1189  0.7544
 6204TIP3    H240104   1.053   6.416  13.443 -1.0104 -1.5623  2.6468
 6205TIP3   OH240105   5.610   5.588   0.241 -0.6716  0.3240  0.0736
 6205TIP3    H140106   5.629   5.681   0.226  1.4534  0.2436  1.9451
 6205TIP3    H240107   5.659   5.543   0.172  0.1003  0.4877  0.5116
 6206TIP3   OH240108   2.626   5.679   4.931  0.3833  0.0724 -0.4257
 6206TIP3    H140109   2.577   5.724   5.000 -0.7114 -1.2268 -0.3379
 6206TIP3    H240110   2.699   5.738   4.911  1.2116  0.0849  2.4455
 6207TIP3   OH240111   1.142   1.877  10.597  0.2200  0.0175 -0.8647
 6207TIP3    H140112   1.213   1.918  10.547  2.8688 -2.3648  0.7616
 6207TIP3    H240113   1.077   1.946  10.608  3.6047  3.2167  0.1099
 6208TIP3   OH240114   5.792   1.646  11.520  0.2999 -0.2401  0.4203
 6208TIP3    H140115   5.823   1.698  11.446 -0.5225  0.2405  0.4191
 6208TIP3    H240116   5.811   1.699  11.597 -1.9295  0.7513  0.3163
 6209TIP3   OH240117   0.612   0.794  11.849 -0.6153  0.3650 -0.8951
 6209TIP3    H140118   0.591   0.812  11.757 -0.5680  0.1845 -0.9431
 6209TIP3    H240119   0.706   0.811  11.855 -1.3179  4.4336  0.1143
 6210TIP3   OH240120   3.014   3.356  16.633  0.0561  0.2771 -0.3789
 6210TIP3    H140121   2.945   3.315  16.580  0.5683 -2.1840  0.8384
 6210TIP3    H240122   3.048   3.426  16.576 -3.7855  1.9426 -0.8027
 6211TIP3   OH240123   3.520   6.740   0.930  0.3027  0.4274 -0.3288
 6211TIP3    H140124   3.492   6.735   0.838  0.8767 -1.9536 -0.4066
 6211TIP3    H240125   3.556   6.653   0.949 -0.8147  0.5226  2.4868
 6212TIP3   OH240126   2.811   4.673   1.836  0.3173 -0.1972 -0.3696
 6212TIP3    H140127   2.826   4.765   1.814 -0.5853  0.2132  0.6737
 6212TIP3    H240128   2.882   4.651   1.897 -1.2368  0.7568  1.8793
 6213TIP3   OH240129   3.747   1.854   4.377  0.0099 -0.3914  0.2310
 6213TIP3    H140130   3.836   1.845   4.411  0.2289  0.8611  0.0128
 6213TIP3    H240131   3.694   1.798   4.434  0.6811  0.1411  1.4107
 6214TIP3   OH240132   6.018   3.508   1.628  0.8648  0.4896 -0.1267
 6214TIP3    H140133   6.012   3.490   1.535  0.1525  1.8584 -0.3629
 6214TIP3    H240134   5.982   3.596   1.638 -0.2352 -0.1076  1.6022
 6215TIP3   OH240135   2.605   0.056  10.643 -0.1952  0.4531 -0.7260
 6215TIP3    H140136   2.527   0.051  10.588 -1.3273  0.3544  0.8618
 6215TIP3    H240137   2.575   0.093  10.725  1.4797  0.5988 -0.1510
 6216TIP3   OH240138   6.227   0.364   2.848  0.3917 -0.1940 -0.2329
 6216TIP3    H140139   6.298   0.324   2.797 -0.2572 -0.4834 -0.9163
 6216TIP3    H240140   6.163   0.294   2.859  0.7688 -0.2863  1.4704
 6217TIP3   OH240141   6.556   3.608  12.284  0.1046 -0.0785 -0.2022
 6217TIP3    H140142   6.648   3.609  12.261 -0.1412 -0.1322 -1.1920
 6217TIP3    H240143   6.554   3.634  12.376  0.9148  2.1971 -0.7951
 6218TIP3   OH240144   1.076   3.425   5.909 -0.7849  0.3781 -0.0524
 6218TIP3    H140145   1.104   3.516   5.909 -2.5601  0.9375  0.1168
 6218TIP3    H240146   1.157   3.375   5.920  0.0814  1.9661  1.0288
 6219TIP3   OH240147   6.720   2.500   1.853  1.0800  0.1665  0.2719
 6219TIP3    H140148   6.640   2.455   1.828  1.5781  0.1162 -1.2968
 6219TIP3    H240149   6.694   2.592   1.860  0.8050  0.1019  0.1065
 6220TIP3   OH240150   6.514   6.242   2.008 -0.6096  0.6021  0.1089
 6220TIP3    H140151   6.531   6.325   2.053  0.8014  0.7228 -0.6160
 6220TIP3    H240152   6.548   6.255   1.920 -1.0515 -0.5029 -0.2348
 6221TIP3   OH240153   4.619   1.411  12.362  1.1142  0.2374 -0.5153
 6221TIP3    H140154   4.623   1.507  12.367 -0.4455  0.3633 -1.2398
 6221TIP3    H240155   4.646   1.391  12.273  0.4479  0.0802 -0.6829
 6222TIP3   OH240156   6.201   1.991   4.259  0.5822 -0.4715 -0.1272
 6222TIP3    H140157   6.270   1.926   4.272  1.5256  0.0338 -2.3395
 6222TIP3    H240158   6.245   2.063   4.213 -0.6138  1.4276  1.6346
 6223TIP3   OH240159   4.474   4.303   0.221 -0.3306 -0.4386 -0.4247
 6223TIP3    H140160   4.527   4.236   0.263 -0.7544 -0.4897  0.0311
 6223TIP3    H240161   4.428   4.347   0.293 -0.7776 -0.2858 -0.7958
 6224TIP3   OH240162   2.212   3.096   6.693 -0.4197 -0.3663  0.3184
 6224TIP3    H140163   2.197   3.063   6.781 -1.0781 -0.2226  0.2633
 6224TIP3    H240164   2.219   3.017   6.638  0.7936 -0.4774  0.6176
 6225TIP3   OH240165   1.894   6.311   4.559  0.1224  0.1266  0.7065
 6225TIP3    H140166   1.850   6.328   4.643  1.3569  1.8345  1.0372
 6225TIP3    H240167   1.926   6.221   4.566 -0.9331 -0.1954  1.5359
 6226TIP3   OH240168   2.462   5.392   0.541  0.3220 -0.1167 -0.6835
 6226TIP3    H140169   2.533   5.456   0.533 -0.3371  0.6844 -0.2275
 6226TIP3    H240170   2.465   5.364   0.632 -0.3255  0.3610 -0.5174
 6227TIP3   OH240171   4.223   5.950  11.079 -0.0667 -0.2268 -0.7015
 6227TIP3    H140172   4.131   5.974  11.066  0.8713  2.9999 -1.8015
 6227TIP3    H240173   4.264   5.961  10.993  0.9923 -3.6053 -0.7122
 6228TIP3   OH240174   5.846   3.187  12.766 -0.3913 -0.7534 -0.4964
 6228TIP3    H140175   5.812   3.122  12.705 -0.1675 -0.0861 -1.3378
 6228TIP3    H240176   5.854   3.267  12.714 -1.6886  0.2480  0.7809
 6229TIP3   OH240177   2.400   5.336  17.054  0.5708 -0.0539 -0.3727
 6229TIP3    H140178   2.460   5.409  17.067  0.6876  0.0318 -1.3162
 6229TIP3    H240179   2.323   5.358  17.105  0.7834  0.5097 -0.2922
 6230TIP3   OH240180   6.496   2.149  13.465  0.5208  0.2266  0.7104
 6230TIP3    H140181   6.582   2.159  13.506  1.0221 -1.7972  0.1981
 6230TIP3    H240182   6.499   2.207  13.388  1.4679  0.0683  0.6247
 6231TIP3   OH240183   2.271   3.689   1.928 -0.2916  0.8287 -0.2807
 6231TIP3    H140184   2.247   3.721   2.015  0.5409  0.3641  0.1269
 6231TIP3    H240185   2.191   3.650   1.893 -0.3553  0.0405  0.7240
 6232TIP3   OH240186   0.220   5.998   5.934 -0.0961 -0.1261 -0.0926
 6232TIP3    H140187   0.308   6.011   5.968 -0.2619 -0.1517  0.3486
 6232TIP3    H240188   0.166   5.981   6.011 -0.8109  1.6461 -0.1908
 6233TIP3   OH240189   4.008   0.678  12.740 -0.1283 -0.2565 -0.2028
 6233TIP3    H140190   4.042   0.757  12.698 -0.3042 -0.8679 -1.5248
 6233TIP3    H240191   3.970   0.628  12.668 -1.5637 -0.7510  0.8841
 6234TIP3   OH240192   1.451   4.461  14.007 -0.3858 -0.5513  0.2104
 6234TIP3    H140193   1.406   4.451  13.923 -0.3034  1.4749 -0.1072
 6234TIP3    H240194   1.495   4.546  14.000 -1.2909  0.1572  2.7386
 6235TIP3   OH240195   2.146   2.228  15.909 -0.2261 -0.1696 -0.1461
 6235TIP3    H140196   2.078   2.161  15.897  0.3258 -1.0108  1.3326
 6235TIP3    H240197   2.097   2.307  15.932 -0.7585 -0.5817  0.1748
 6236TIP3   OH240198   1.906   5.565  14.719 -0.1599  0.1507 -0.0897
 6236TIP3    H140199   1.872   5.519  14.643 -1.1488  0.8235 -0.0637
 6236TIP3    H240200   1.828   5.595  14.766  0.4508  0.7407  0.5603
 6237TIP3   OH240201   5.106   6.659   5.253 -0.1482  0.5804 -0.7835
 6237TIP3    H140202   5.125   6.575   5.295  0.7107  1.3109  0.3059
 6237TIP3    H240203   5.183   6.675   5.197  0.6006  1.5831  0.5191
 6238TIP3   OH240204   2.053   0.989   0.305  0.4887  0.1630 -0.1387
 6238TIP3    H140205   2.126   1.050   0.292  0.6787  0.0507  0.4159
 6238TIP3    H240206   2.003   1.027   0.378  1.4693 -1.1713  1.2362
 6239TIP3   OH240207   0.157   2.964   2.573  0.7667  0.3783  0.3814
 6239TIP3    H140208   0.108   3.045   2.585  0.4554  0.4952 -1.4657
 6239TIP3    H240209   0.094   2.894   2.592  0.8711  0.5519  1.3905
 6240TIP3   OH240210   0.952   2.077   4.978 -0.0328 -0.0406  0.0178
 6240TIP3    H140211   0.994   2.130   4.911 -0.4381  0.7452  0.3764
 6240TIP3    H240212   1.024   2.033   5.023  0.2286 -0.6793 -1.0226
 6241TIP3   OH240213   2.911   4.860   0.931 -0.0753 -0.1790 -0.1184
 6241TIP3    H140214   2.953   4.880   0.848  2.2425 -2.2146  0.5060
 6241TIP3    H240215   2.905   4.764   0.933 -1.1837 -0.0971  1.5368
 6242TIP3   OH240216   5.902   6.237   2.465 -0.2206  0.0522  0.1410
 6242TIP3    H140217   5.861   6.150   2.468 -1.4188  0.6476  1.4609
 6242TIP3    H240218   5.952   6.236   2.383 -0.9944 -1.5305 -0.3525
 6243TIP3   OH240219   5.920   0.163  15.361  0.5995  0.1724 -0.2632
 6243TIP3    H140220   5.997   0.164  15.418  0.0916 -1.2490  0.4823
 6243TIP3    H240221   5.945   0.105  15.289 -0.0409 -0.9642  0.4059
 6244TIP3   OH240222   2.866   5.874   1.140 -0.2303 -0.7851  0.0725
 6244TIP3    H140223   2.832   5.962   1.124 -1.4106 -1.2452 -0.0248
 6244TIP3    H240224   2.928   5.858   1.069 -2.3386 -1.2305 -1.6910
 6245TIP3   OH240225   6.519   3.186  10.505  0.3926  0.0142  0.0703
 6245TIP3    H140226   6.494   3.188  10.597 -0.3365 -0.2757 -0.1218
 6245TIP3    H240227   6.473   3.261  10.466  2.1362  1.2343  0.3043
 6246TIP3   OH240228   2.752   1.046  11.469 -0.0386  0.3902  0.7028
 6246TIP3    H140229   2.662   1.025  11.494 -0.1742  1.4835  1.1650
 6246TIP3    H240230   2.775   0.979  11.404 -1.4316  0.5330  0.0365
 6247TIP3   OH240231   3.397   6.744   5.644  0.0567 -0.0751 -0.0290
 6247TIP3    H140232   3.347   6.787   5.575 -0.6936 -1.1331 -0.1540
 6247TIP3    H240233   3.419   6.658   5.607 -0.4544 -0.6951  1.0872
 6248TIP3   OH240234   6.668   3.817  16.362  0.1527  0.1250 -0.3075
 6248TIP3    H140235   6.707   3.760  16.296 -0.4382 -1.0155  0.3099
 6248TIP3    H240236   6.639   3.757  16.431 -0.7066  1.1548  0.2380
 6249TIP3   OH240237   1.798   0.167  13.665 -0.1154 -0.7624 -0.0430
 6249TIP3    H140238   1.733   0.097  13.666  0.0686 -1.0021 -1.9710
 6249TIP3    H240239   1.878   0.126  13.697 -1.0959 -0.2357  3.1996
 6250TIP3   OH240240   1.087   2.973   2.923  0.0297 -0.3044  0.3885
 6250TIP3    H140241   1.057   3.026   2.997 -1.4463  0.1401 -0.4883
 6250TIP3    H240242   1.164   3.019   2.890 -1.0267  1.1135 -0.1405
 6251TIP3   OH240243   1.033   5.959  14.054 -0.2546 -0.4000 -0.1063
 6251TIP3    H140244   1.085   5.897  14.104  0.3744 -1.6073 -2.2027
 6251TIP3    H240245   0.960   5.982  14.112  0.6601 -1.4626  1.4831
 6252TIP3   OH240246   4.010   0.659   5.939 -0.0056  0.1060  0.1202
 6252TIP3    H140247   4.090   0.713   5.946  0.1656 -0.3568  2.0253
 6252TIP3    H240248   3.966   0.672   6.023 -1.2724 -0.7066 -0.4176
 6253TIP3   OH240249   6.611   5.890  15.243  0.0557  1.0833 -0.0292
 6253TIP3    H140250   6.556   5.920  15.315  1.3972  0.1112  1.4415
 6253TIP3    H240251   6.576   5.803  15.221 -0.3723  1.3928 -0.5799
 6254TIP3   OH240252   2.979   4.565   0.410  0.3450  0.0349 -0.4250
 6254TIP3    H140253   2.900   4.533   0.365  0.0449 -0.5912  0.5384
 6254TIP3    H240254   2.946   4.627   0.475  0.7222  0.4384 -0.6209
 6255TIP3   OH240255   6.512   4.120  15.368 -0.5569  0.0241 -0.6212
 6255TIP3    H140256   6.504   4.062  15.444 -1.7755  0.1867 -0.6023
 6255TIP3    H240257   6.545   4.202  15.404 -0.9166  0.0291 -0.3005
 6256TIP3   OH240258   1.600   3.989  13.051  0.1736 -0.3615 -0.0938
 6256TIP3    H140259   1.607   3.975  13.145  0.3496 -1.2951 -0.2436
 6256TIP3    H240260   1.609   4.084  13.040  0.5367 -0.2939  0.7890
 6257TIP3   OH240261   3.258   4.739  16.262 -0.8887  0.3912 -0.4095
 6257TIP3    H140262   3.306   4.818  16.286 -2.6476  0.9419  1.4416
 6257TIP3    H240263   3.269   4.733  16.167  2.3693  0.7542 -0.0951
 6258TIP3   OH240264   3.226   1.597   0.194 -0.0665 -0.1360  0.0213
 6258TIP3    H140265   3.299   1.656   0.178 -0.7460  1.1286  1.5747
 6258TIP3    H240266   3.197   1.571   0.106  0.6327  1.3236 -0.6513
 6259TIP3   OH240267   5.082   4.167  13.289  0.1181 -0.2844 -0.1909
 6259TIP3    H140268   5.039   4.115  13.357 -1.4848  2.4755  0.9424
 6259TIP3    H240269   5.060   4.122  13.207 -2.3399 -0.6812  0.6446
 6260TIP3   OH240270   4.132   5.833   4.193 -0.5061 -0.3550  0.0862
 6260TIP3    H140271   4.197   5.857   4.127  0.9736 -0.7449  1.3769
 6260TIP3    H240272   4.116   5.740   4.178  1.5719 -0.9976  1.7450
 6261TIP3   OH240273   2.928   1.282  16.060  0.4571  0.4234 -0.2133
 6261TIP3    H140274   2.909   1.367  16.020  0.8109  1.0211  0.8765
 6261TIP3    H240275   2.974   1.304  16.141  1.3073 -0.8438 -0.3552
 6262TIP3   OH240276   6.015   0.730   1.427  0.2061  0.1234 -0.4866
 6262TIP3    H140277   5.924   0.758   1.416  0.6763  1.3997 -1.1622
 6262TIP3    H240278   6.054   0.796   1.484  0.7827 -0.2734 -0.4172
 6263TIP3   OH240279   0.221   5.076  15.203  0.4010  0.1152 -0.0489
 6263TIP3    H140280   0.228   5.163  15.166  3.0227  0.0145  0.1077
 6263TIP3    H240281   0.192   5.020  15.130 -1.9127  1.1763  0.0132
 6264TIP3   OH240282   6.618   4.791   5.334  0.3991 -0.1806 -0.0101
 6264TIP3    H140283   6.710   4.800   5.358  0.2242  0.0875  0.5794
 6264TIP3    H240284   6.601   4.866   5.276  0.2455  0.4422  0.8396
 6265TIP3   OH240285   0.974   2.909   2.377 -0.4019  1.2873  0.0809
 6265TIP3    H140286   0.938   2.936   2.462 -0.1329 -0.4325  0.7617
 6265TIP3    H240287   1.068   2.901   2.393 -0.5389 -0.5301  0.0443
 6266TIP3   OH240288   3.935   3.981  17.069 -0.0873 -0.2289 -0.1166
 6266TIP3    H140289   3.912   4.074  17.065 -1.2310 -0.5535 -1.1857
 6266TIP3    H240290   4.031   3.981  17.064 -0.0481  0.9048  0.2762
 6267TIP3   OH240291   6.507   3.028   3.927 -0.2347  0.2646 -0.0046
 6267TIP3    H140292   6.451   2.955   3.954 -0.5885  0.3231 -0.5871
 6267TIP3    H240293   6.590   3.012   3.973 -1.6365  1.7968  3.2441
 6268TIP3   OH240294   5.866   5.391  16.223  0.1547  0.8208  0.4882
 6268TIP3    H140295   5.778   5.429  16.233  0.3286  0.8926  1.8275
 6268TIP3    H240296   5.925   5.466  16.228  0.3615  0.6410  0.7185
 6269TIP3   OH240297   0.098   5.650   1.100 -0.7674 -0.8619 -0.0062
 6269TIP3    H140298   0.039   5.581   1.068 -1.1939 -0.7615  0.5489
 6269TIP3    H240299   0.044   5.729   1.100 -1.1780 -1.1241  2.2428
 6270TIP3   OH240300   4.652   0.444   4.549  0.2829  0.1532 -0.2340
 6270TIP3    H140301   4.637   0.392   4.470 -0.2849  0.3835 -0.2818
 6270TIP3    H240302   4.627   0.533   4.525 -0.2703  0.1540  0.3203
 6271TIP3   OH240303   0.882   5.212   4.906 -0.1275  0.3882  0.5624
 6271TIP3    H140304   0.944   5.285   4.905  0.5685 -0.2189 -0.0320
 6271TIP3    H240305   0.809   5.245   4.959  1.6299  0.3066  3.1197
 6272TIP3   OH240306   4.210   2.571   6.234  0.4821 -0.3088  0.1775
 6272TIP3    H140307   4.209   2.556   6.140  1.7948 -0.0302  0.1048
 6272TIP3    H240308   4.161   2.652   6.246 -1.3429 -1.3706 -0.0591
 6273TIP3   OH240309   0.531   5.234   2.549 -0.3067 -0.1272 -0.6525
 6273TIP3    H140310   0.491   5.149   2.529 -0.3333 -0.5416  1.0464
 6273TIP3    H240311   0.603   5.212   2.609  0.0226  0.9980 -0.6340
 6274TIP3   OH240312   2.345   1.705   2.381 -0.0302  0.0573 -0.3977
 6274TIP3    H140313   2.254   1.693   2.409  0.4984  1.8767  2.1937
 6274TIP3    H240314   2.386   1.755   2.451  3.2211 -1.4545 -1.1306
 6275TIP3   OH240315   5.318   1.722   4.065  0.4796  0.1838 -0.4637
 6275TIP3    H140316   5.337   1.705   4.158  0.7798  1.1769 -0.3374
 6275TIP3    H240317   5.225   1.746   4.064  0.1280 -1.1753 -0.6052
 6276TIP3   OH240318   3.518   3.491   0.209  0.7014  0.6392 -0.1916
 6276TIP3    H140319   3.425   3.515   0.202  0.5006 -0.0053  0.2423
 6276TIP3    H240320   3.518   3.412   0.262  1.4701  0.3856 -0.5722
 6277TIP3   OH240321   2.666   3.605   4.856  0.2045 -0.6502 -0.4840
 6277TIP3    H140322   2.726   3.570   4.790 -1.7224 -1.1680 -2.0031
 6277TIP3    H240323   2.587   3.628   4.807 -1.3567 -1.2433  1.6754
 6278TIP3   OH240324   2.546   4.493  13.418  0.0427 -0.8993  0.0234
 6278TIP3    H140325   2.519   4.517  13.330  0.6525 -1.2397 -0.2589
 6278TIP3    H240326   2.590   4.571  13.452 -0.3655 -0.7021  0.1044
 6279TIP3   OH240327   4.019   1.277   5.181  0.6030 -0.2382  0.1087
 6279TIP3    H140328   4.001   1.184   5.165  1.8788 -0.3375 -0.8202
 6279TIP3    H240329   4.031   1.314   5.093 -1.0640  1.0503  0.4144
 6280TIP3   OH240330   0.525   4.356   4.154  0.3585 -0.0110 -0.2100
 6280TIP3    H140331   0.512   4.448   4.128  1.9957  0.1412 -0.5040
 6280TIP3    H240332   0.508   4.307   4.074 -2.0244 -0.1111  0.3047
 6281TIP3   OH240333   1.017   0.208   1.988  0.3247 -0.3451  0.2954
 6281TIP3    H140334   1.083   0.150   2.027  0.1320 -2.2651 -2.0793
 6281TIP3    H240335   0.934   0.160   1.998 -0.0695  0.2012 -0.3258
 6282TIP3   OH240336   2.445   2.573  15.736 -0.5573  0.0116  0.3331
 6282TIP3    H140337   2.466   2.639  15.670  1.7141  0.4483  1.4342
 6282TIP3    H240338   2.349   2.572  15.739 -0.7145  0.0802 -2.8124
 6283TIP3   OH240339   0.137   6.786   3.851  1.2334 -0.1872  0.1351
 6283TIP3    H140340   0.108   6.802   3.761  0.6175 -1.5496  0.0757
 6283TIP3    H240341   0.178   6.699   3.847  2.5236  0.3848  0.8682
 6284TIP3   OH240342   3.444   5.840  16.399  0.6455 -0.2571 -0.6439
 6284TIP3    H140343   3.350   5.832  16.412  0.9879 -2.4066  0.8812
 6284TIP3    H240344   3.482   5.818  16.484  2.6694 -4.0310 -2.3927
 6285TIP3   OH240345   4.041   0.071  15.376  0.3704 -0.8097 -0.4125
 6285TIP3    H140346   4.049   0.130  15.451 -0.7755  0.3313 -1.1638
 6285TIP3    H240347   3.976   0.007  15.403 -0.6776  0.1034 -0.7331
 6286TIP3   OH240348   3.962   4.556   0.813  0.1220  1.1590 -0.0186
 6286TIP3    H140349   4.020   4.487   0.846  0.5437  1.2520 -0.5673
 6286TIP3    H240350   3.997   4.578   0.727 -0.0525  2.0038  0.1169
 6287TIP3   OH240351   2.406   3.522  17.263  0.4936 -0.2469  0.1767
 6287TIP3    H140352   2.352   3.454  17.305  1.3843 -0.7340  0.5492
 6287TIP3    H240353   2.364   3.537  17.178 -0.5615 -0.2057  0.6962
 6288TIP3   OH240354   2.911   0.383  11.195 -0.1233  0.2578  0.5209
 6288TIP3    H140355   2.994   0.425  11.173  0.1240 -0.4200  0.1753
 6288TIP3    H240356   2.907   0.388  11.291  0.4282  0.0824  0.5567
 6289TIP3   OH240357   5.541   6.543   4.491 -0.1388  0.2782  0.2645
 6289TIP3    H140358   5.552   6.573   4.401 -1.6596 -0.9159 -0.3532
 6289TIP3    H240359   5.536   6.623   4.543  0.9692  0.9726 -0.6756
 6290TIP3   OH240360   0.267   4.097  14.687  0.0670  0.2350  0.4349
 6290TIP3    H140361   0.337   4.099  14.621 -1.0222  1.1646 -0.7067
 6290TIP3    H240362   0.187   4.081  14.637 -0.7631  0.8652  1.5408
 6291TIP3   OH240363   3.498   6.139  12.073  0.2891 -0.5757 -0.2633
 6291TIP3    H140364   3.521   6.215  12.019 -0.5280 -0.4430 -0.4283
 6291TIP3    H240365   3.441   6.086  12.017 -0.4322 -0.5210  0.4231
 6292TIP3   OH240366   6.572   2.968  11.079  0.4264  0.2645 -0.5372
 6292TIP3    H140367   6.494   2.970  11.024  0.5677  0.0461 -0.7425
 6292TIP3    H240368   6.645   2.972  11.018  0.5918 -0.5060 -0.4033
 6293TIP3   OH240369   2.312   0.019   6.008  0.0889  0.1340  0.1957
 6293TIP3    H140370   2.224  -0.001   6.038 -0.3524  0.2074 -0.9974
 6293TIP3    H240371   2.333  -0.052   5.947  0.4499  0.6667 -0.3078
 6294TIP3   OH240372   5.530   0.339  14.746  0.1570  0.0857 -0.5848
 6294TIP3    H140373   5.449   0.361  14.700  0.2381  0.4990 -0.5307
 6294TIP3    H240374   5.501   0.301  14.829  0.0184  1.4247 -0.0058
 6295TIP3   OH240375   5.131   3.373  11.751 -0.1965 -0.4963  0.2456
 6295TIP3    H140376   5.051   3.412  11.786 -0.0055  1.2624 -1.2665
 6295TIP3    H240377   5.194   3.381  11.823 -0.5194  0.8240  0.3901
 6296TIP3   OH240378   3.552   0.629   0.380  0.2313  0.1766 -0.4207
 6296TIP3    H140379   3.519   0.696   0.319  2.0649  0.4025 -1.2371
 6296TIP3    H240380   3.589   0.679   0.453 -1.8314 -0.0914  0.8264
 6297TIP3   OH240381   1.586   3.976  13.353 -0.2652 -0.5872  0.4182
 6297TIP3    H140382   1.521   3.987  13.423 -1.1471  2.1344 -0.7421
 6297TIP3    H240383   1.640   4.055  13.359  1.1686 -1.4907 -0.4527
 6298TIP3   OH240384   4.680   4.082   3.618  0.0580  0.3354 -0.0667
 6298TIP3    H140385   4.635   4.049   3.696  1.2279 -0.0579  0.4503
 6298TIP3    H240386   4.666   4.014   3.552 -2.8373  1.6660 -0.9264
 6299TIP3   OH240387   1.905   6.768   1.159  0.4006  0.3240 -0.0212
 6299TIP3    H140388   1.912   6.808   1.072 -0.3771  0.4187 -0.0392
 6299TIP3    H240389   1.988   6.722   1.171  0.6453  0.5962 -0.6737
 6300TIP3   OH240390   0.404   4.117   0.233  0.3106 -0.0471 -0.4000
 6300TIP3    H140391   0.397   4.081   0.322  0.5394 -1.2027 -0.8425
 6300TIP3    H240392   0.314   4.134   0.207  0.2652  0.6729  0.1980
 6301TIP3   OH240393   0.500   6.326   5.259  0.8038 -0.2707  0.3384
 6301TIP3    H140394   0.546   6.328   5.343  3.1200 -2.1968 -0.8167
 6301TIP3    H240395   0.439   6.253   5.266 -0.4610  0.8413  1.0499
 6302TIP3   OH240396   5.856   0.502   4.520 -0.2604 -0.3922 -0.0266
 6302TIP3    H140397   5.857   0.470   4.610 -2.0353 -0.4731 -0.0171
 6302TIP3    H240398   5.936   0.554   4.512  1.1131 -2.3284  0.8653
 6303TIP3   OH240399   5.512   0.880  16.020 -0.5197 -0.0615 -0.7028
 6303TIP3    H140400   5.501   0.926  16.103 -2.2689 -2.3796  0.4323
 6303TIP3    H240401   5.606   0.866  16.012 -0.4592 -1.2253  1.7262
 6304TIP3   OH240402   6.519   6.118   3.379 -0.1943  0.5895  0.1235
 6304TIP3    H140403   6.591   6.070   3.420 -0.4932 -0.2023 -0.2494
 6304TIP3    H240404   6.483   6.056   3.315 -0.8490  1.1769 -0.0855
 6305TIP3   OH240405   5.079   5.976   5.696  0.5055 -0.2231  0.4112
 6305TIP3    H140406   5.035   6.022   5.768  0.9294  0.2213  0.3840
 6305TIP3    H240407   5.146   5.924   5.739  1.3724  0.7547  0.2584
 6306TIP3   OH240408   0.731   6.379   4.789 -0.3454 -0.3296  0.1653
 6306TIP3    H140409   0.733   6.374   4.885  0.3020 -1.8445  0.0753
 6306TIP3    H240410   0.823   6.380   4.763 -0.5120  0.7922 -0.4139
 6307TIP3   OH240411   6.227   2.223   4.665 -0.4815  0.3742  0.3753
 6307TIP3    H140412   6.298   2.280   4.636  1.0497 -0.8840  1.5957
 6307TIP3    H240413   6.228   2.231   4.760 -0.2629 -1.6608  0.5546
 6308TIP3   OH240414   1.675   6.815   5.082 -0.0359 -0.5472  0.1261
 6308TIP3    H140415   1.642   6.899   5.114 -1.8718 -1.1088 -0.2354
 6308TIP3    H240416   1.735   6.838   5.011  1.2856  0.5453  1.5461
 6309TIP3   OH240417   2.680   5.494   0.372 -0.0475  0.4124 -0.7918
 6309TIP3    H140418   2.629   5.413   0.367 -1.7251  1.3457  0.8017
 6309TIP3    H240419   2.770   5.467   0.351 -0.5224 -1.9308  0.0989
 6310TIP3   OH240420   3.910   2.304  16.027 -0.7092  0.8943 -0.0711
 6310TIP3    H140421   3.889   2.260  15.944  0.1464 -0.8230  0.5850
 6310TIP3    H240422   3.950   2.387  16.001 -0.4927  0.3997 -1.3820
 6311TIP3   OH240423   4.854   0.074  14.097 -1.0162 -0.0406 -0.3092
 6311TIP3    H140424   4.848   0.134  14.172 -0.6137 -0.3971  0.0102
 6311TIP3    H240425   4.853   0.132  14.021  3.0005  0.6657  0.0770
 6312TIP3   OH240426   3.400   5.283   2.721 -0.0166  0.4957 -0.3992
 6312TIP3    H140427   3.334   5.313   2.784 -1.5910 -0.9204 -1.3401
 6312TIP3    H240428   3.440   5.206   2.763  0.2410  0.6562 -0.3445
 6313TIP3   OH240429   2.676   5.650   2.599 -0.6268 -0.2714 -0.6687
 6313TIP3    H140430   2.691   5.652   2.694 -1.0233 -1.4824 -0.5763
 6313TIP3    H240431   2.617   5.723   2.583 -0.7452 -0.2017  0.0539
 6314TIP3   OH240432   5.976   0.748  14.318 -0.0096  0.5018 -0.1752
 6314TIP3    H140433   5.882   0.736  14.327  0.0713 -1.0128 -1.1162
 6314TIP3    H240434   5.991   0.754  14.224  1.0834 -1.7763 -0.1943
 6315TIP3   OH240435   6.592   5.153  12.409  0.4492 -0.0141  0.0569
 6315TIP3    H140436   6.595   5.248  12.416  1.2829  0.0247 -0.7215
 6315TIP3    H240437   6.679   5.124  12.437  0.9665 -0.3850 -1.8460
 6316TIP3   OH240438   2.973   4.661   4.430  1.1708  0.8983 -0.4562
 6316TIP3    H140439   3.022   4.584   4.459 -0.1954  0.8643  1.9281
 6316TIP3    H240440   3.019   4.735   4.468 -0.3685  0.8867  1.5259
 6317TIP3   OH240441   0.346   4.726   1.482  0.2405  0.0351  0.7932
 6317TIP3    H140442   0.427   4.773   1.463  1.9889 -1.7195  3.5960
 6317TIP3    H240443   0.372   4.655   1.541 -3.2677 -0.8261  1.4360
 6318TIP3   OH240444   4.727   0.630   3.380  0.2238  0.6628  0.1492
 6318TIP3    H140445   4.644   0.591   3.407  0.7904 -0.2217  0.6364
 6318TIP3    H240446   4.740   0.703   3.440 -0.2694  0.8879 -0.0171
 6319TIP3   OH240447   0.403   3.374  10.717  0.6426  0.9458 -0.1315
 6319TIP3    H140448   0.455   3.320  10.657  1.1908  0.7499  0.5102
 6319TIP3    H240449   0.320   3.328  10.725  0.7613  0.6932 -0.3264
 6320TIP3   OH240450   0.284   2.134  12.564  0.1589  0.2541 -0.1118
 6320TIP3    H140451   0.311   2.141  12.656  0.6352  1.1930 -0.3127
 6320TIP3    H240452   0.288   2.040  12.545  2.1499  0.2381  0.2178
 6321TIP3   OH240453   5.933   1.616  10.942  0.5670 -0.2021  0.1624
 6321TIP3    H140454   5.848   1.616  10.986 -0.2255  1.3138 -1.3145
 6321TIP3    H240455   5.947   1.708  10.917  1.8428 -0.7246 -1.1287
 6322TIP3   OH240456   5.900   0.099   4.575  0.4096 -0.5309  0.1383
 6322TIP3    H140457   5.844   0.115   4.651  0.5709 -1.4540  0.4636
 6322TIP3    H240458   5.893   0.005   4.560  0.6079 -0.3975 -0.8160
 6323TIP3   OH240459   3.223   4.752  10.668 -0.5819 -0.0674  0.3260
 6323TIP3    H140460   3.302   4.787  10.627 -1.5196 -0.1169 -1.5676
 6323TIP3    H240461   3.247   4.663  10.695 -0.3683 -0.5528 -1.4257
 6324TIP3   OH240462   0.049   3.575  13.230  0.2006  0.5600  0.6334
 6324TIP3    H140463   0.127   3.526  13.256 -0.3860 -0.8128 -0.1334
 6324TIP3    H240464  -0.023   3.531  13.275 -0.6795 -1.0993 -2.2825
 6325TIP3   OH240465   2.450   3.025  12.908  0.0101 -0.6807 -0.1910
 6325TIP3    H140466   2.368   3.075  12.905 -0.6752 -1.8286 -1.0052
 6325TIP3    H240467   2.429   2.950  12.963  0.0533 -1.7951 -1.6728
 6326TIP3   OH240468   3.807   0.851  12.859  0.4649 -0.2238 -0.0736
 6326TIP3    H140469   3.770   0.885  12.778  0.6472 -0.1191 -0.1136
 6326TIP3    H240470   3.837   0.763  12.836 -0.9434 -0.8182  0.2868
 6327TIP3   OH240471   3.044   6.141  13.540  0.5838  0.1765  0.1437
 6327TIP3    H140472   3.099   6.218  13.549 -0.7829  1.1005  0.8069
 6327TIP3    H240473   3.081   6.093  13.466  0.6321  2.1924 -1.1702
 6328TIP3   OH240474   0.159   2.948   1.859  0.6659  0.8556  0.3811
 6328TIP3    H140475   0.131   2.975   1.947 -0.5044  4.1884 -0.9335
 6328TIP3    H240476   0.196   3.028   1.821  0.0042 -0.2047 -2.5895
 6329TIP3   OH240477   4.706   1.458  16.627  0.0571 -0.3528 -0.3319
 6329TIP3    H140478   4.679   1.488  16.714 -0.7626 -0.3707 -0.5712
 6329TIP3    H240479   4.642   1.390  16.604 -0.4523  0.4702 -1.4385
 6330TIP3   OH240480   5.346   5.861  10.476 -0.2574 -0.6128 -0.2760
 6330TIP3    H140481   5.362   5.916  10.552 -0.9317  0.4641 -0.8885
 6330TIP3    H240482   5.335   5.923  10.403 -0.3556 -1.5814 -1.1068
 6331TIP3   OH240483   1.973   3.413   0.904  0.3752 -0.2972 -0.3049
 6331TIP3    H140484   1.908   3.353   0.866  1.2676 -0.9796 -0.7951
 6331TIP3    H240485   2.050   3.404   0.846  1.9491 -1.7237  1.9384
 6332TIP3   OH240486   2.334   4.141  14.495 -0.0193 -0.2857 -0.4906
 6332TIP3    H140487   2.273   4.118  14.425 -1.8321 -0.7664  1.2068
 6332TIP3    H240488   2.321   4.235  14.508  0.1658 -0.2370 -0.6577
 6333TIP3   OH240489   2.441   1.933  12.913  0.1010 -0.1212 -0.6446
 6333TIP3    H140490   2.472   1.846  12.940  1.0236 -0.1787 -1.8218
 6333TIP3    H240491   2.476   1.992  12.980  1.2050 -0.4199 -0.9449
 6334TIP3   OH240492   2.748   3.052  12.043 -0.4620 -0.1473  0.4024
 6334TIP3    H140493   2.738   2.962  12.074  0.5306 -1.7013 -3.5440
 6334TIP3    H240494   2.661   3.077  12.011 -0.0356 -0.8528 -1.3458
 6335TIP3   OH240495   3.387   1.908  11.069  0.1797 -0.3637 -0.5355
 6335TIP3    H140496   3.458   1.970  11.083  0.7086 -0.9826 -0.4737
 6335TIP3    H240497   3.407   1.866  10.986 -0.8862  0.4968 -1.2446
 6336TIP3   OH240498   3.096   3.049   2.850  0.2213 -0.2400 -0.1823
 6336TIP3    H140499   3.171   3.036   2.792  0.5623 -0.5083  0.3250
 6336TIP3    H240500   3.095   3.143   2.867  0.8111 -0.3253  0.3165
 6337TIP3   OH240501   3.620   1.459   1.075 -0.2700  0.3585 -0.1056
 6337TIP3    H140502   3.692   1.501   1.123  0.4926 -2.1597  1.0759
 6337TIP3    H240503   3.621   1.501   0.990  2.1631  0.9154  0.1428
 6338TIP3   OH240504   1.743   6.129   1.126  0.6936 -0.4672 -0.3618
 6338TIP3    H140505   1.774   6.121   1.217  0.5863 -1.0389 -0.3741
 6338TIP3    H240506   1.747   6.223   1.108 -1.4258 -0.0662  0.9992
 6339TIP3   OH240507   4.782   3.155  13.868  0.2316 -0.0858 -0.4410
 6339TIP3    H140508   4.819   3.067  13.862 -3.1044 -1.5326 -1.1900
 6339TIP3    H240509   4.793   3.180  13.959  1.2187 -1.2791 -0.2256
 6340TIP3   OH240510   4.640   3.199   3.499  0.5044  0.0022  0.1820
 6340TIP3    H140511   4.703   3.157   3.557  0.1539 -0.3645  0.2964
 6340TIP3    H240512   4.618   3.132   3.434  2.4333  1.0448 -1.5966
 6341TIP3   OH240513   3.449   5.174  15.792  0.1274 -0.2011 -0.1978
 6341TIP3    H140514   3.460   5.092  15.840  0.7013 -0.2831 -0.4614
 6341TIP3    H240515   3.538   5.199  15.767  0.0256  0.8840  0.5106
 6342TIP3   OH240516   1.582   5.266  13.879 -0.5554  0.6720  0.2185
 6342TIP3    H140517   1.553   5.357  13.884 -0.4470  0.7370 -0.3585
 6342TIP3    H240518   1.522   5.219  13.937 -1.4830  0.8899 -0.5618
 6343TIP3   OH240519   0.585   6.766   4.860  0.1032 -0.1191  0.3597
 6343TIP3    H140520   0.587   6.688   4.804  1.5044 -0.0327  0.2680
 6343TIP3    H240521   0.673   6.772   4.897 -0.5067  0.4277  1.7619
 6344TIP3   OH240522   5.295   1.521  11.196  0.1427  0.7769 -0.1913
 6344TIP3    H140523   5.368   1.493  11.140 -1.0779  0.7156 -1.7989
 6344TIP3    H240524   5.278   1.612  11.170 -0.2878  0.8265  0.2549
 6345TIP3   OH240525   0.491   1.894   1.034 -0.4410 -0.2078  0.0121
 6345TIP3    H140526   0.585   1.908   1.046 -0.3364 -1.4674  0.7656
 6345TIP3    H240527   0.451   1.945   1.105 -0.2600 -0.6095  0.4097
 6346TIP3   OH240528   5.649   0.388  13.115  0.2389  0.0527 -0.0471
 6346TIP3    H140529   5.580   0.454  13.117  0.7972  0.6182  1.4333
 6346TIP3    H240530   5.650   0.357  13.024 -1.8090  0.1641 -0.1117
 6347TIP3   OH240531   3.967   6.672  12.763  0.0275  0.2031 -0.0289
 6347TIP3    H140532   4.034   6.647  12.826  1.9896  2.3468 -1.1858
 6347TIP3    H240533   3.989   6.624  12.683 -1.1781 -0.8447  0.2561
 6348TIP3   OH240534   3.990   0.102  13.535 -0.2841 -0.2602 -0.3126
 6348TIP3    H140535   4.023   0.125  13.448  2.2396  1.7683  1.0944
 6348TIP3    H240536   4.020   0.013  13.549  1.0638  0.1179 -0.7174
 6349TIP3   OH240537   2.019   3.450   2.533 -0.6506 -0.1243 -0.2441
 6349TIP3    H140538   1.952   3.426   2.468  0.5540 -2.6468 -0.6477
 6349TIP3    H240539   2.020   3.545   2.532 -2.9077 -0.0569 -1.6010
 6350TIP3   OH240540   5.158   4.114  10.453 -0.0678  0.4989 -0.5315
 6350TIP3    H140541   5.117   4.130  10.368 -1.2194 -0.7622 -0.2227
 6350TIP3    H240542   5.104   4.046  10.493  1.8245 -0.5708  0.2466
 6351TIP3   OH240543   5.035   0.550  10.397  0.2114 -0.0224 -0.0183
 6351TIP3    H140544   5.066   0.624  10.449  0.6240 -0.4194  0.3104
 6351TIP3    H240545   5.114   0.514  10.357 -0.1510  0.5109 -1.2393
 6352TIP3   OH240546   0.191   0.909  17.002 -0.8281  0.5033  0.4970
 6352TIP3    H140547   0.240   0.914  17.084 -3.1058  1.8061  1.8192
 6352TIP3    H240548   0.236   0.841  16.952 -0.9158 -2.2174  3.8963
 6353TIP3   OH240549   3.534   3.716  16.519  0.0629  0.4051  0.2687
 6353TIP3    H140550   3.473   3.716  16.593 -1.1845 -0.4384 -0.7517
 6353TIP3    H240551   3.570   3.628  16.517  0.4090  0.5484  0.1097
 6354TIP3   OH240552   2.631   0.590  16.902 -0.4098 -0.5502  0.0253
 6354TIP3    H140553   2.547   0.599  16.947 -0.4210  0.8273 -0.2550
 6354TIP3    H240554   2.609   0.595  16.809 -0.1308 -1.2142 -0.0833
 6355TIP3   OH240555   1.235   4.444   6.038  0.4748  0.0540  0.2538
 6355TIP3    H140556   1.262   4.529   6.004  0.1937  0.6475  1.4874
 6355TIP3    H240557   1.220   4.459   6.131  0.5495 -1.3833  0.5048
 6356TIP3   OH240558   0.358   6.046   2.031 -0.2807 -0.0928 -0.0313
 6356TIP3    H140559   0.309   5.964   2.034 -1.1710  0.4380  0.5343
 6356TIP3    H240560   0.410   6.041   1.951  1.5465 -2.2363  1.2337
 6357TIP3   OH240561   0.237   0.598   1.998 -0.3035  0.4150  0.2869
 6357TIP3    H140562   0.288   0.519   1.980  2.8007  2.4888 -0.4464
 6357TIP3    H240563   0.149   0.576   1.970  0.6658 -2.5154 -0.6703
 6358TIP3   OH240564   4.081   1.080  14.510  0.5437  0.1945  0.5234
 6358TIP3    H140565   4.092   1.109  14.601  0.2827  0.0825  0.5911
 6358TIP3    H240566   4.161   1.031  14.491  0.1966 -0.5664  0.9913
 6359TIP3   OH240567   0.332   6.760  16.360  0.4281 -0.2048 -0.5757
 6359TIP3    H140568   0.394   6.695  16.327 -0.4365 -1.4483  0.2190
 6359TIP3    H240569   0.263   6.763  16.294  1.1287  0.8954 -1.2710
 6360TIP3   OH240570   1.116   1.825   5.929 -0.6433 -0.1638 -0.3458
 6360TIP3    H140571   1.111   1.790   5.840  1.2012 -1.6909  0.1275
 6360TIP3    H240572   1.038   1.791   5.972 -3.7651  3.8918 -2.4461
 6361TIP3   OH240573   4.271   3.946  16.446 -0.1692 -0.3226  0.8708
 6361TIP3    H140574   4.204   4.013  16.440  0.6202  0.3771 -0.3003
 6361TIP3    H240575   4.237   3.872  16.395 -0.2795 -0.1720  0.7290
 6362TIP3   OH240576   5.940   0.573   3.565 -0.6793  0.5157  0.1017
 6362TIP3    H140577   5.960   0.635   3.495  0.2736 -0.6876 -0.7058
 6362TIP3    H240578   5.986   0.493   3.540  0.3402  0.3187  2.5155
 6363TIP3   OH240579   5.484   3.664  13.681  0.3493 -0.6221 -0.0232
 6363TIP3    H140580   5.558   3.723  13.663  0.6559 -0.5545  1.3794
 6363TIP3    H240581   5.408   3.722  13.686  0.7772 -0.1967  2.2149
 6364TIP3   OH240582   0.412   2.425   4.448  0.0992 -0.3638  0.1763
 6364TIP3    H140583   0.474   2.492   4.419  0.9289 -1.3927 -0.4878
 6364TIP3    H240584   0.443   2.399   4.534 -0.5744  0.5273  0.6895
 6365TIP3   OH240585   4.792   1.648   3.128 -0.0735 -0.3781  0.1087
 6365TIP3    H140586   4.786   1.735   3.168  0.2281 -0.0382 -0.5899
 6365TIP3    H240587   4.737   1.654   3.050 -0.5471 -1.0018  0.3955
 6366TIP3   OH240588   3.163   5.792   5.566  0.3859 -0.2598  0.4240
 6366TIP3    H140589   3.143   5.864   5.626  1.3065 -0.9866  1.6307
 6366TIP3    H240590   3.245   5.756   5.599  0.6545 -0.9782 -1.0050
 6367TIP3   OH240591   0.332   5.428  10.320 -0.1307  0.0276 -0.3957
 6367TIP3    H140592   0.349   5.410  10.412  2.6930  1.9205 -0.5014
 6367TIP3    H240593   0.387   5.365  10.272 -0.7196 -0.1869 -0.7976
 6368TIP3   OH240594   1.111   0.773  13.127 -0.0201 -0.6593 -0.3320
 6368TIP3    H140595   1.111   0.819  13.212 -1.7731 -2.3894  0.6422
 6368TIP3    H240596   1.032   0.720  13.129  1.1224 -2.4689 -2.1322
 6369TIP3   OH240597   4.210   0.739   3.278 -0.4481  0.0688  0.3159
 6369TIP3    H140598   4.142   0.703   3.336 -1.4425  1.5788  0.1332
 6369TIP3    H240599   4.289   0.741   3.332 -0.4504 -2.0563  0.4238
 6370TIP3   OH240600   4.973   2.855  12.222 -0.1759  0.0824 -0.5760
 6370TIP3    H140601   5.024   2.820  12.149  0.6016  1.9038 -0.9364
 6370TIP3    H240602   4.921   2.925  12.183 -0.9941 -0.0198  0.3078
 6371TIP3   OH240603   1.817   5.623  12.315 -0.2375  0.7181  0.2872
 6371TIP3    H140604   1.819   5.528  12.301 -1.3592  0.4457  1.9019
 6371TIP3    H240605   1.895   5.655  12.269 -0.6708 -0.8036 -1.5609
 6372TIP3   OH240606   5.414   1.507  15.437  0.1351  0.7005 -0.2411
 6372TIP3    H140607   5.440   1.476  15.350  2.4268 -2.3056  1.4031
 6372TIP3    H240608   5.442   1.599  15.438  1.5084  0.3537 -2.1656
 6373TIP3   OH240609   2.566   3.548   3.449  0.2477 -0.2929 -0.1096
 6373TIP3    H140610   2.581   3.527   3.357  1.0215 -0.6147  0.0853
 6373TIP3    H240611   2.569   3.644   3.453 -0.4238 -0.2581 -0.5271
 6374TIP3   OH240612   0.671   4.913   6.004 -0.4207 -0.1557 -0.4137
 6374TIP3    H140613   0.686   4.921   6.098  0.7126 -1.8053 -0.4202
 6374TIP3    H240614   0.639   4.999   5.977  0.6996  0.8020  1.2186
 6375TIP3   OH240615   4.142   1.147   1.487 -0.2784  0.2676  0.4351
 6375TIP3    H140616   4.093   1.100   1.555  1.4984  1.5980  2.6933
 6375TIP3    H240617   4.212   1.086   1.462 -1.1949 -0.3955 -0.5255
 6376TIP3   OH240618   0.335   3.506  16.380 -0.3610 -0.2716  0.0532
 6376TIP3    H140619   0.267   3.573  16.389  0.1901  0.3396 -0.2279
 6376TIP3    H240620   0.288   3.423  16.376 -1.1091  0.1774 -0.5141
 6377TIP3   OH240621   3.997   2.368   0.900 -0.3378  0.3996  0.1900
 6377TIP3    H140622   4.090   2.372   0.924 -0.1795  2.1316 -0.5989
 6377TIP3    H240623   3.951   2.386   0.982  0.1034  2.0549  0.1054
 6378TIP3   OH240624   3.248   2.751  14.184  0.0866  0.3899  0.0758
 6378TIP3    H140625   3.161   2.731  14.148 -0.5137 -0.1063  1.7671
 6378TIP3    H240626   3.274   2.671  14.230  1.3323  0.6320 -0.1934
 6379TIP3   OH240627   3.724   3.713   1.130 -0.0335 -0.5062 -0.2452
 6379TIP3    H140628   3.719   3.802   1.166 -1.5541 -1.0804  1.0592
 6379TIP3    H240629   3.805   3.711   1.081 -1.5544  2.6356 -3.0661
 6380TIP3   OH240630   2.341   1.706   4.561  0.3267 -0.0330  0.6974
 6380TIP3    H140631   2.373   1.710   4.651 -0.0604 -0.3594  0.8521
 6380TIP3    H240632   2.420   1.698   4.507  0.5858  0.6165  0.9760
 6381TIP3   OH240633   6.137   3.702   4.911 -0.4910 -0.1726 -0.1253
 6381TIP3    H140634   6.105   3.678   4.998  1.3177 -1.4107  0.2279
 6381TIP3    H240635   6.202   3.770   4.928 -0.3887 -0.1693 -0.5456
 6382TIP3   OH240636   6.072   5.187  16.826 -0.0287  0.2304 -0.4336
 6382TIP3    H140637   6.046   5.275  16.852  0.8500  0.5493 -0.6379
 6382TIP3    H240638   5.989   5.140  16.813 -0.4827  0.5209  1.3620
 6383TIP3   OH240639   2.502   3.449  13.803  0.2945  0.2163  0.0938
 6383TIP3    H140640   2.561   3.453  13.728 -1.4508  0.2542 -1.3123
 6383TIP3    H240641   2.560   3.446  13.879  2.0962 -0.2643 -1.2669
 6384TIP3   OH240642   2.752   2.286   2.879 -0.5065 -0.2175  0.2218
 6384TIP3    H140643   2.671   2.336   2.878 -0.9232 -0.8901 -0.1216
 6384TIP3    H240644   2.793   2.307   2.795 -0.4245 -0.0426  0.3048
 6385TIP3   OH240645   5.604   5.892   1.565 -0.4124  0.2896 -0.3637
 6385TIP3    H140646   5.598   5.813   1.512 -1.7190 -0.2675  0.5892
 6385TIP3    H240647   5.575   5.962   1.506  0.4688  0.0269 -1.1189
 6386TIP3   OH240648   3.737   1.380  12.200 -0.0263 -0.1560  0.0467
 6386TIP3    H140649   3.776   1.412  12.119 -0.8833  2.4275  0.6043
 6386TIP3    H240650   3.659   1.331  12.172 -0.3304  0.7501 -0.7004
 6387TIP3   OH240651   6.131   6.004   6.057  0.0172 -0.6444 -0.1173
 6387TIP3    H140652   6.059   5.959   6.100  1.1557 -0.0256  2.5321
 6387TIP3    H240653   6.210   5.965   6.094  1.0595 -0.5117 -2.1112
 6388TIP3   OH240654   1.171   4.337   1.734 -0.3443 -0.8360 -0.2100
 6388TIP3    H140655   1.118   4.366   1.809  0.9814  0.3703  0.2838
 6388TIP3    H240656   1.210   4.255   1.763  2.0591  0.7911  1.3956
 6389TIP3   OH240657   2.472   3.337  14.393 -0.3797 -0.0618 -0.3116
 6389TIP3    H140658   2.400   3.385  14.352 -0.3043  0.0853 -0.2738
 6389TIP3    H240659   2.536   3.404  14.415 -0.2228 -0.1947 -0.3606
 6390TIP3   OH240660   2.006   2.769  13.212  0.5145 -0.4108 -0.5917
 6390TIP3    H140661   1.966   2.789  13.297  1.9223 -2.3558  0.5476
 6390TIP3    H240662   2.044   2.852  13.184 -1.5186  0.6931 -0.2091
 6391TIP3   OH240663   1.253   2.898  14.091 -0.1252  0.3155  0.0727
 6391TIP3    H140664   1.177   2.849  14.059 -0.2179 -0.0948  0.9047
 6391TIP3    H240665   1.217   2.959  14.156 -0.0503  1.7070 -1.1749
 6392TIP3   OH240666   4.842   1.810   5.745  0.1837 -0.7690 -0.3969
 6392TIP3    H140667   4.771   1.747   5.732  0.0782 -1.1274  1.6827
 6392TIP3    H240668   4.918   1.770   5.703 -0.6073 -0.8538 -1.7562
 6393TIP3   OH240669   4.261   6.269   3.426  0.0949  0.1618 -0.4332
 6393TIP3    H140670   4.242   6.358   3.455 -0.9189  0.2547 -1.3819
 6393TIP3    H240671   4.355   6.259   3.440  0.1257  1.2024  0.1544
 6394TIP3   OH240672   1.674   6.810  13.002 -0.2041  0.0143 -0.2102
 6394TIP3    H140673   1.652   6.796  12.910 -2.1318 -0.1487  0.2715
 6394TIP3    H240674   1.592   6.838  13.043  1.0268  1.8317  1.1049
 6395TIP3   OH240675   2.814   6.135   4.821  0.6059 -0.8474 -0.1989
 6395TIP3    H140676   2.846   6.219   4.787 -0.2093 -0.4927 -0.1076
 6395TIP3    H240677   2.891   6.093   4.858  1.2313 -0.6028 -1.1945
 6396TIP3   OH240678   0.925   6.350   3.160 -0.0513 -0.6009 -0.2643
 6396TIP3    H140679   0.925   6.446   3.161 -0.4851 -0.6033  2.1663
 6396TIP3    H240680   0.852   6.326   3.217  1.5376 -2.3704  1.0688
 6397TIP3   OH240681   0.987   2.604  13.282  0.0185  0.2240  0.6147
 6397TIP3    H140682   0.939   2.575  13.204  0.7464  1.6866 -0.3869
 6397TIP3    H240683   0.937   2.567  13.355 -0.8294 -0.9379 -0.5150
 6398TIP3   OH240684   4.624   6.372  13.415  0.6333 -0.3384 -0.0469
 6398TIP3    H140685   4.567   6.448  13.409 -0.4168 -1.0767  0.4976
 6398TIP3    H240686   4.712   6.409  13.427  0.2137  0.7852 -0.3681
 6399TIP3   OH240687   0.849   4.758   6.628  0.4703 -0.0707 -0.0021
 6399TIP3    H140688   0.861   4.836   6.573  0.1871 -0.2948 -0.3880
 6399TIP3    H240689   0.916   4.697   6.599 -0.9286 -0.9378 -1.4710
 6400TIP3   OH240690   3.059   5.504  15.535 -0.2340 -0.3492 -0.1905
 6400TIP3    H140691   3.099   5.565  15.473 -0.0615 -1.1198 -0.8372
 6400TIP3    H240692   2.972   5.487  15.500 -0.0451 -0.9803 -0.3530
 6401TIP3   OH240693   3.060   5.752   0.976 -0.0872 -0.2498 -0.4421
 6401TIP3    H140694   3.122   5.679   0.980 -0.6587 -0.7055  0.2358
 6401TIP3    H240695   3.084   5.799   0.897  1.9465  0.3065  0.4586
 6402TIP3   OH240696   2.534   3.111  12.529 -0.3476  0.1991 -0.2219
 6402TIP3    H140697   2.585   3.145  12.456  1.7120 -2.3781 -0.0281
 6402TIP3    H240698   2.530   3.017  12.515 -2.8559  0.0482  1.1825
 6403TIP3   OH240699   4.635   4.962  11.496  0.2139  0.1235  0.0459
 6403TIP3    H140700   4.611   4.896  11.431 -1.2335 -0.7642  1.4455
 6403TIP3    H240701   4.552   5.005  11.518  0.4108 -0.7191  2.5046
 6404TIP3   OH240702   6.234   2.672  12.635  0.0223 -0.5325 -0.6104
 6404TIP3    H140703   6.199   2.738  12.574 -0.3447  1.5655  1.7900
 6404TIP3    H240704   6.328   2.671  12.618  0.0956  0.9432 -0.4292
 6405TIP3   OH240705   5.788   6.481  14.995  0.3868  0.2865  0.1074
 6405TIP3    H140706   5.876   6.482  15.033  0.0247  2.8305  0.9782
 6405TIP3    H240707   5.729   6.491  15.070 -0.4608  2.4698 -0.8296
 6406TIP3   OH240708   3.272   6.685   6.748  0.1611  0.1131  0.0348
 6406TIP3    H140709   3.187   6.647   6.769  0.4546 -0.3468  0.3920
 6406TIP3    H240710   3.332   6.611   6.747  0.2475  0.1763 -1.9734
 6407TIP3   OH240711   3.231   3.030  12.635  0.6237 -0.2383 -0.3311
 6407TIP3    H140712   3.204   2.977  12.560  1.6611 -1.0288 -0.1610
 6407TIP3    H240713   3.149   3.059  12.676  0.0511 -1.4470 -0.6146
 6408TIP3   OH240714   0.501   5.249   4.659 -0.4272 -0.0062  0.2163
 6408TIP3    H140715   0.524   5.225   4.749 -1.8949  0.2324  0.6568
 6408TIP3    H240716   0.584   5.241   4.610  0.0078 -1.8142  1.2239
 6409TIP3   OH240717   3.532   2.858   0.570 -0.1166 -0.2460 -0.7150
 6409TIP3    H140718   3.576   2.893   0.648  1.0940 -0.6494 -1.2023
 6409TIP3    H240719   3.441   2.888   0.579  0.3312  0.9316  0.1209
 6410TIP3   OH240720   3.470   3.646   3.801  0.0326  0.0295 -0.1131
 6410TIP3    H140721   3.484   3.725   3.854  2.4089 -1.1474  1.0762
 6410TIP3    H240722   3.436   3.679   3.717  2.8792  2.5183 -0.3594
 6411TIP3   OH240723   0.490   3.417  11.136  0.1196 -0.0966  0.5457
 6411TIP3    H140724   0.400   3.384  11.143  0.7232 -1.6380  1.3588
 6411TIP3    H240725   0.540   3.364  11.199  1.3732  1.5674  0.9865
 6412TIP3   OH240726   5.578   5.688  14.486 -0.2012 -0.3340 -0.2331
 6412TIP3    H140727   5.594   5.774  14.447 -3.4446 -0.0677 -1.1335
 6412TIP3    H240728   5.612   5.626  14.422  1.3400  0.2389  0.0064
 6413TIP3   OH240729   2.616   1.489  11.394  0.4842 -0.4254  0.7509
 6413TIP3    H140730   2.553   1.460  11.327 -0.1527 -0.0467  1.1841
 6413TIP3    H240731   2.603   1.583  11.400  0.5096 -0.4633  1.4458
 6414TIP3   OH240732   2.743   1.906  16.229 -0.1469  0.5132 -0.5337
 6414TIP3    H140733   2.834   1.880  16.241  0.0948  1.1777 -0.8973
 6414TIP3    H240734   2.742   1.999  16.252 -0.8800  0.3317  0.1823
 6415TIP3   OH240735   5.245   2.990  15.757  0.3610  0.1318 -0.2075
 6415TIP3    H140736   5.327   3.032  15.729  1.0487 -0.0781  1.4420
 6415TIP3    H240737   5.208   3.051  15.821  0.6757 -1.1075  1.1685
 6416TIP3   OH240738   1.301   2.055   6.577 -0.3198 -0.6062  0.3358
 6416TIP3    H140739   1.361   2.078   6.506  0.0533 -2.2112  0.1166
 6416TIP3    H240740   1.357   2.039   6.653 -0.6667  0.3523  0.8117
 6417TIP3   OH240741   1.466   0.136  14.345 -0.5693  0.1334 -0.2681
 6417TIP3    H140742   1.464   0.183  14.428  0.3939 -3.5587  1.9806
 6417TIP3    H240743   1.550   0.090  14.346 -0.2545  0.4851 -3.6200
 6418TIP3   OH240744   0.844   6.369   2.426 -0.3577 -0.2289  0.1640
 6418TIP3    H140745   0.929   6.406   2.399  0.4334 -0.7744  1.8694
 6418TIP3    H240746   0.793   6.445   2.453 -0.1934  0.0383 -0.2647
 6419TIP3   OH240747   1.711   3.077  16.459 -0.0627 -0.0139 -0.1629
 6419TIP3    H140748   1.629   3.034  16.484 -0.2624  1.4543  1.8073
 6419TIP3    H240749   1.759   3.009  16.411 -1.8327 -1.3361 -0.1364
 6420TIP3   OH240750   2.960   1.140  15.803 -0.1269 -0.1050 -0.5522
 6420TIP3    H140751   3.047   1.157  15.765 -0.7100  1.1416 -1.3769
 6420TIP3    H240752   2.954   1.202  15.876 -1.0621  1.1809 -1.6861
 6421TIP3   OH240753   2.947   0.808  11.511 -0.5909 -0.0877 -0.3513
 6421TIP3    H140754   3.018   0.871  11.507 -0.9208  0.2783 -0.5129
 6421TIP3    H240755   2.988   0.727  11.539  0.2169 -0.4059 -2.4060
 6422TIP3   OH240756   5.475   0.988   0.566  0.1003  0.4163 -0.0612
 6422TIP3    H140757   5.501   1.045   0.494  1.2979 -3.2361 -2.6637
 6422TIP3    H240758   5.433   0.913   0.524 -2.9686  0.0739  3.3280
 6423TIP3   OH240759   2.883   4.132  12.896 -0.3206 -0.0929 -0.7315
 6423TIP3    H140760   2.804   4.149  12.947 -1.0569  0.4912 -2.0424
 6423TIP3    H240761   2.867   4.049  12.851  0.6528 -1.0162  0.5954
 6424TIP3   OH240762   6.616   6.236  15.976 -0.6949  0.2732 -0.2420
 6424TIP3    H140763   6.574   6.314  15.940  0.4472  1.9582  1.9376
 6424TIP3    H240764   6.706   6.264  15.995  0.0371 -1.8801 -0.4170
 6425TIP3   OH240765   0.033   4.908   4.418 -0.0092  0.2070 -0.4568
 6425TIP3    H140766   0.089   4.949   4.484  0.9838  0.1889 -1.2705
 6425TIP3    H240767   0.049   4.959   4.338 -0.8520 -0.0576 -0.8025
 6426TIP3   OH240768   4.011   3.043   3.416 -0.5057 -0.2797  0.2277
 6426TIP3    H140769   4.091   3.095   3.429 -1.2315  0.6204  1.1497
 6426TIP3    H240770   4.005   3.032   3.321  0.8237 -0.5299  0.1663
 6427TIP3   OH240771   0.529   0.044   0.743 -0.4809 -0.2545 -0.3682
 6427TIP3    H140772   0.438   0.076   0.745 -0.3419  0.0710  1.1444
 6427TIP3    H240773   0.580   0.115   0.781  0.3589 -0.5998 -0.8548
 6428TIP3   OH240774   0.778   0.442  14.957  0.7121 -0.0572 -0.4405
 6428TIP3    H140775   0.786   0.429  14.863 -0.0186  0.3217 -0.5637
 6428TIP3    H240776   0.690   0.410  14.978  0.8472 -0.0791  0.0990
 6429TIP3   OH240777   2.965   1.237  10.542 -0.5342  0.0285  0.4493
 6429TIP3    H140778   2.915   1.305  10.497  0.2188  0.1981 -0.1425
 6429TIP3    H240779   3.013   1.283  10.610  1.2551  0.3686 -1.0004
 6430TIP3   OH240780   1.501   6.743   0.173  0.8133  0.0453  0.0703
 6430TIP3    H140781   1.559   6.778   0.105  1.4588 -0.3267  0.4167
 6430TIP3    H240782   1.559   6.688   0.227  0.5875  1.3072  1.6415
 6431TIP3   OH240783   2.783   6.021  11.242 -0.7433 -0.2670  0.1853
 6431TIP3    H140784   2.760   6.082  11.313 -2.4912  0.6178 -1.1018
 6431TIP3    H240785   2.775   5.934  11.282 -0.7932  0.2481  1.3259
 6432TIP3   OH240786   6.806   3.900   2.405 -0.1740  0.2627  0.3978
 6432TIP3    H140787   6.870   3.946   2.352 -0.1234 -0.1094  0.1351
 6432TIP3    H240788   6.724   3.948   2.392 -0.6128 -0.9857 -1.5642
 6433TIP3   OH240789   2.281   5.795   0.701 -0.3508  0.5023 -0.0110
 6433TIP3    H140790   2.315   5.875   0.661 -2.2977  0.9475 -0.8499
 6433TIP3    H240791   2.283   5.731   0.630 -2.8652  1.0193 -0.6045
 6434TIP3   OH240792   4.870   1.976   0.956  0.1731  0.3307  0.5670
 6434TIP3    H140793   4.789   1.926   0.967  1.5746 -2.2658 -0.3353
 6434TIP3    H240794   4.939   1.916   0.986  2.1711  0.6874 -3.0408
 6435TIP3   OH240795   2.632   0.435  12.930  0.3773  0.4063  0.0871
 6435TIP3    H140796   2.677   0.363  12.975  0.6700 -0.1365 -1.0668
 6435TIP3    H240797   2.584   0.393  12.859  0.7509  1.3767 -0.7502
 6436TIP3   OH240798   2.282   3.965  13.960 -0.0568 -0.1828 -0.2122
 6436TIP3    H140799   2.372   3.973  13.991  0.0232 -0.4058 -0.3791
 6436TIP3    H240800   2.291   3.954  13.865 -0.3649  1.9793 -0.5202
 6437TIP3   OH240801   5.135   1.517  16.956  0.4579 -0.2450 -0.1610
 6437TIP3    H140802   5.081   1.484  16.884  0.5863 -0.6009 -0.0929
 6437TIP3    H240803   5.125   1.612  16.950  1.0833 -0.2293 -1.1334
 6438TIP3   OH240804   1.879   5.560   5.033  0.3174  0.1101 -0.5000
 6438TIP3    H140805   1.877   5.651   5.002 -0.4972  0.1579 -0.3313
 6438TIP3    H240806   1.934   5.514   4.971 -1.2001  0.2328 -1.9728
 6439TIP3   OH240807   2.318   5.604  11.133  0.5437  0.3180  0.2511
 6439TIP3    H140808   2.282   5.599  11.222  0.4247  0.6846  0.2267
 6439TIP3    H240809   2.311   5.515  11.099 -0.1458  0.3465  0.3218
 6440TIP3   OH240810   1.104   2.593   0.691 -1.0167 -0.1449  0.4644
 6440TIP3    H140811   1.038   2.603   0.622 -3.7849  2.1245  3.2790
 6440TIP3    H240812   1.168   2.662   0.671 -0.0196 -1.6451 -1.6673
 6441TIP3   OH240813   3.493   4.193  12.755  0.1243  0.6278 -0.9726
 6441TIP3    H140814   3.414   4.140  12.752 -0.0353  0.9141 -1.7304
 6441TIP3    H240815   3.480   4.261  12.689  0.3582  1.5687 -0.0662
 6442TIP3   OH240816   0.994   5.999   3.089 -0.0844 -0.1627 -0.1004
 6442TIP3    H140817   0.995   6.051   3.169 -0.8423 -0.3985  0.0650
 6442TIP3    H240818   0.993   6.063   3.018  1.1963  0.0528  0.0581
 6443TIP3   OH240819   0.543   3.278  16.066 -0.0460 -0.1896 -0.3637
 6443TIP3    H140820   0.490   3.308  15.992 -0.8765  0.6978  0.5679
 6443TIP3    H240821   0.557   3.185  16.050  0.2359  0.1057 -1.9004
 6444TIP3   OH240822   6.042   2.978   0.951 -0.0777  0.6994  0.2504
 6444TIP3    H140823   6.055   3.011   0.862  4.5888 -2.8369 -0.5846
 6444TIP3    H240824   5.983   2.903   0.941  0.9532 -0.0903 -0.0085
 6445TIP3   OH240825   3.321   1.356  13.316 -0.1523  0.0058  0.5562
 6445TIP3    H140826   3.262   1.383  13.245  0.4038 -1.4372 -0.4853
 6445TIP3    H240827   3.337   1.263  13.300  0.7802 -0.1035  2.0142
 6446TIP3   OH240828   2.007   0.529   2.734  0.0987 -0.2863 -0.3863
 6446TIP3    H140829   2.080   0.515   2.674  0.2804  0.2100 -0.2789
 6446TIP3    H240830   1.932   0.486   2.691 -0.5807  2.9103 -2.6131
 6447TIP3   OH240831   2.165   0.153  12.423  0.4938 -0.9842  0.0987
 6447TIP3    H140832   2.169   0.063  12.390  0.9951 -0.7170 -0.5775
 6447TIP3    H240833   2.076   0.182  12.403  0.4756 -1.1690 -0.0827
 6448TIP3   OH240834   2.277   0.190   0.255 -0.3815 -0.2213 -0.8626
 6448TIP3    H140835   2.309   0.100   0.243  2.1988  0.7210 -1.2424
 6448TIP3    H240836   2.182   0.180   0.261 -0.2725 -2.8177 -2.5048
 6449TIP3   OH240837   0.258   2.679   0.958 -0.2584  0.0022 -0.1947
 6449TIP3    H140838   0.228   2.663   1.047 -1.6362  0.1976 -0.6060
 6449TIP3    H240839   0.197   2.629   0.903  0.0684  0.5453 -1.0669
 6450TIP3   OH240840   2.713   0.653   6.145 -0.2994 -0.1967  0.2578
 6450TIP3    H140841   2.776   0.676   6.213 -1.7497  0.5635  1.3892
 6450TIP3    H240842   2.655   0.589   6.188 -0.8524 -0.1811 -0.4643
 6451TIP3   OH240843   4.480   2.815  14.335 -0.1572  0.0235  0.2322
 6451TIP3    H140844   4.407   2.869  14.368  0.9481  0.1814  2.4997
 6451TIP3    H240845   4.489   2.745  14.399  2.8222  0.9996  0.9572
 6452TIP3   OH240846   1.913   4.498  11.891 -0.5889 -0.4023 -0.5909
 6452TIP3    H140847   1.827   4.538  11.904  0.1823  1.0211  0.2672
 6452TIP3    H240848   1.924   4.439  11.966 -0.1014  0.7348  0.2536
 6453TIP3   OH240849   2.522   0.391  12.487 -0.4665 -0.2616 -0.4768
 6453TIP3    H140850   2.578   0.464  12.458 -0.4615 -1.1769 -2.9454
 6453TIP3    H240851   2.439   0.432  12.509  0.3680  0.8104  0.7440
 6454TIP3   OH240852   4.971   0.676   0.217  0.3056 -0.7357  0.5640
 6454TIP3    H140853   4.979   0.758   0.168  0.5370 -1.0208  0.1185
 6454TIP3    H240854   4.936   0.702   0.302  1.0187 -0.0879  0.6657
 6455TIP3   OH240855   2.100   2.152   0.935  0.1578  0.6186  0.4206
 6455TIP3    H140856   2.150   2.173   0.857  0.0358  1.6318  0.6076
 6455TIP3    H240857   2.011   2.135   0.903  0.5858 -1.0404  0.1066
 6456TIP3   OH240858   0.431   2.466   5.592  0.2852  0.0174 -0.1030
 6456TIP3    H140859   0.391   2.534   5.646 -0.3048  0.1510 -0.7068
 6456TIP3    H240860   0.398   2.383   5.628 -1.3009  0.1575 -1.1947
 6457TIP3   OH240861   5.089   0.413   0.572  0.0504  0.8842 -0.2197
 6457TIP3    H140862   5.152   0.483   0.554 -0.2885  0.6989 -2.2764
 6457TIP3    H240863   5.008   0.457   0.594  0.1153  1.1414 -0.4982
 6458TIP3   OH240864   4.223   0.215   1.269  0.3573  0.5041  0.0675
 6458TIP3    H140865   4.252   0.139   1.320 -0.3694 -0.2652 -0.6520
 6458TIP3    H240866   4.304   0.262   1.250  0.6681  0.6638  1.6945
 6459TIP3   OH240867   5.047   4.421   1.397  0.7967  0.4008  0.2740
 6459TIP3    H140868   4.952   4.433   1.391  0.6712 -0.1373  1.1667
 6459TIP3    H240869   5.084   4.500   1.358 -0.0187  0.4250 -0.4553
 6460TIP3   OH240870   2.358   3.583   0.650  0.1255  0.0393  0.0099
 6460TIP3    H140871   2.391   3.512   0.595  0.8501  0.5686 -0.2424
 6460TIP3    H240872   2.425   3.651   0.644 -0.9355  1.0510 -0.3582
 6461TIP3   OH240873   6.248   4.705   3.321 -0.8678 -0.2416  0.1971
 6461TIP3    H140874   6.315   4.641   3.344 -1.1386  0.1459  2.1511
 6461TIP3    H240875   6.198   4.664   3.250  0.5634 -1.1021 -0.3210
 6462TIP3   OH240876   6.043   3.374  11.628  0.1740  0.1423  0.4981
 6462TIP3    H140877   6.078   3.286  11.643 -2.0145 -0.8473 -0.0137
 6462TIP3    H240878   6.115   3.422  11.588  1.4018 -1.4235  0.7841
 6463TIP3   OH240879   2.277   4.238  13.881 -0.0570  0.0262  0.1131
 6463TIP3    H140880   2.302   4.163  13.936 -0.4913 -2.1558 -2.5774
 6463TIP3    H240881   2.361   4.275  13.852  0.1377 -0.6961 -0.2429
 6464TIP3   OH240882   2.283   3.669  14.103  0.3030 -0.4008  0.1345
 6464TIP3    H140883   2.287   3.682  14.008 -0.3598 -1.1922 -0.0153
 6464TIP3    H240884   2.200   3.708  14.129 -1.0222 -2.9226 -0.1085
 6465TIP3   OH240885   6.203   1.839  15.585 -0.5567  0.1494 -0.5840
 6465TIP3    H140886   6.241   1.847  15.497  0.4838  1.9514  0.0078
 6465TIP3    H240887   6.269   1.875  15.643 -0.1909 -3.3308  1.2368
 6466TIP3   OH240888   4.644   0.707   1.790  0.5527  0.2171  0.4155
 6466TIP3    H140889   4.678   0.746   1.710 -0.0742 -0.2996 -0.1068
 6466TIP3    H240890   4.580   0.770   1.823  0.2157  0.0541  0.0705
 6467TIP3   OH240891   4.443   3.290   0.444  0.0708  0.4036 -0.0644
 6467TIP3    H140892   4.456   3.272   0.538  0.9025 -0.4349 -0.3239
 6467TIP3    H240893   4.504   3.360   0.424 -1.9130  2.3645  0.5609
 6468TIP3   OH240894   0.548   0.539   3.645 -0.0128 -0.3256  0.1120
 6468TIP3    H140895   0.530   0.458   3.597 -0.6601 -0.4986  0.6270
 6468TIP3    H240896   0.576   0.510   3.732 -0.8293  0.0039  0.4945
 6469TIP3   OH240897   5.573   5.579  15.785 -0.6243 -0.6771 -0.1815
 6469TIP3    H140898   5.648   5.608  15.734  0.6851 -2.1167  0.8572
 6469TIP3    H240899   5.500   5.632  15.754  0.1986 -1.2883 -3.2814
 6470TIP3   OH240900   1.529   4.029   0.885  0.3367 -0.3009  0.3377
 6470TIP3    H140901   1.449   4.040   0.834  1.6995 -1.0087 -2.0632
 6470TIP3    H240902   1.594   4.084   0.841  1.2224  0.1732  2.1643
 6471TIP3   OH240903   2.513   6.772   5.743  0.2879  0.1154 -0.4637
 6471TIP3    H140904   2.598   6.767   5.698  0.1029  0.9006 -0.9093
 6471TIP3    H240905   2.496   6.682   5.771  1.2646 -0.0544 -0.3802
 6472TIP3   OH240906   1.435   4.654   1.741  0.1543 -0.0037  0.5515
 6472TIP3    H140907   1.523   4.640   1.706 -0.3708  0.2408 -0.9244
 6472TIP3    H240908   1.419   4.579   1.798  0.9866 -0.5022  0.1347
 6473TIP3   OH240909   1.029   2.553  11.657 -0.1062  0.2674  0.1227
 6473TIP3    H140910   1.007   2.478  11.712 -0.0107 -1.5942 -2.2757
 6473TIP3    H240911   1.107   2.590  11.698 -0.1802 -0.9177  1.3805
 6474TIP3   OH240912   4.476   1.959   2.121 -0.1093  0.1276  0.0401
 6474TIP3    H140913   4.444   1.872   2.098  0.7125 -0.2954  0.4826
 6474TIP3    H240914   4.571   1.951   2.120 -0.0296  0.9991  0.1720
 6475TIP3   OH240915   0.912   1.661   4.919 -0.4993  0.5098 -0.1021
 6475TIP3    H140916   0.946   1.589   4.867  0.5233  1.0066 -0.1362
 6475TIP3    H240917   0.817   1.647   4.921 -0.2800 -1.0668  0.2491
 6476TIP3   OH240918   2.802   4.283  15.420 -0.0637  0.3408 -0.3182
 6476TIP3    H140919   2.776   4.291  15.328 -0.2352  1.1851 -0.1961
 6476TIP3    H240920   2.897   4.273  15.417 -0.1908 -0.8055 -0.6530
 6477TIP3   OH240921   5.592   0.814   1.621  0.2431  0.2124  0.3212
 6477TIP3    H140922   5.571   0.822   1.528  0.0309 -0.0510  0.3475
 6477TIP3    H240923   5.572   0.900   1.658  1.3974  0.6615 -0.0920
 6478TIP3   OH240924   1.583   1.186   4.023  0.3102 -0.2825 -0.8853
 6478TIP3    H140925   1.657   1.145   3.978  1.3461 -0.3156  0.8160
 6478TIP3    H240926   1.515   1.119   4.022  1.0742 -1.0738 -0.4901
 6479TIP3   OH240927   0.105   5.696  15.078 -0.2963  0.1164 -0.5605
 6479TIP3    H140928   0.129   5.788  15.089 -0.5136  0.3844 -2.2122
 6479TIP3    H240929   0.181   5.655  15.038 -0.6328 -0.1610 -0.9300
 6480TIP3   OH240930   6.073   4.679   2.264  0.1589 -0.2535 -0.3057
 6480TIP3    H140931   6.119   4.623   2.202  0.8007 -0.1851  0.1092
 6480TIP3    H240932   6.020   4.736   2.209 -0.1603 -0.9731 -0.7444
 6481TIP3   OH240933   6.609   4.594   1.591 -0.3624  0.4200  0.3227
 6481TIP3    H140934   6.677   4.652   1.557 -0.1398 -1.1787 -2.0552
 6481TIP3    H240935   6.655   4.512   1.610 -1.4706 -0.4111 -0.5269
 6482TIP3   OH240936   0.012   4.899  13.415 -0.3203 -0.5999 -0.1500
 6482TIP3    H140937   0.076   4.879  13.484  0.7575 -2.6314 -1.6632
 6482TIP3    H240938  -0.073   4.879  13.455  0.3274 -2.3156  0.4236
 6483TIP3   OH240939   0.987   3.945  12.898  0.2433 -0.3800  0.0105
 6483TIP3    H140940   1.043   3.922  12.973 -1.0485 -0.4953  0.9515
 6483TIP3    H240941   0.898   3.936  12.931 -0.3559  2.4611 -0.6530
 6484TIP3   OH240942   6.466   4.909   5.567  0.1955  0.3971 -0.2398
 6484TIP3    H140943   6.385   4.924   5.520  0.9500 -0.5028 -1.8769
 6484TIP3    H240944   6.528   4.879   5.500  1.3615 -0.6809  1.2794
 6485TIP3   OH240945   2.331   2.730   2.512 -0.7574  0.3308  0.5583
 6485TIP3    H140946   2.377   2.647   2.499 -0.1257  0.6130  0.9379
 6485TIP3    H240947   2.258   2.708   2.570  0.6338  0.4046  2.4195
 6486TIP3   OH240948   2.865   2.900   1.827  0.4999 -0.2732  0.2978
 6486TIP3    H140949   2.908   2.930   1.746  2.1301 -1.9840  0.4857
 6486TIP3    H240950   2.777   2.874   1.799  0.6411  0.2753 -0.7010
 6487TIP3   OH240951   3.765   3.982   0.591  0.3224 -0.1825  0.3783
 6487TIP3    H140952   3.719   3.934   0.522  0.7831  0.2916 -0.2608
 6487TIP3    H240953   3.734   4.072   0.583 -0.5784 -0.3693  1.6125
 6488TIP3   OH240954   2.576   4.535  11.993  0.3623 -0.5785  0.2515
 6488TIP3    H140955   2.487   4.571  11.993  0.4159 -0.4326  1.3184
 6488TIP3    H240956   2.616   4.568  12.074  1.7922  0.3330 -0.8063
 6489TIP3   OH240957   1.939   0.720   4.003  0.4929  0.4565 -0.2716
 6489TIP3    H140958   1.935   0.702   4.097 -0.2736 -0.3325 -0.4537
 6489TIP3    H240959   1.863   0.775   3.986 -0.0170 -0.3660 -0.6437
 6490TIP3   OH240960   6.412   1.640  13.167 -0.1509  0.0435  0.2083
 6490TIP3    H140961   6.427   1.634  13.261  0.4784 -2.2467 -0.0002
 6490TIP3    H240962   6.392   1.550  13.140  0.4295  0.5225 -1.9504
 6491TIP3   OH240963   0.395   2.157  13.136  0.0766  0.1616  0.4053
 6491TIP3    H140964   0.457   2.084  13.141 -1.0078 -0.7058  2.2143
 6491TIP3    H240965   0.435   2.227  13.187  0.7973  0.5768 -0.7300
 6492TIP3   OH240966   0.218   3.602   5.484  0.5410  0.1561  0.5383
 6492TIP3    H140967   0.265   3.655   5.420 -0.9145  0.4233 -0.3316
 6492TIP3    H240968   0.160   3.547   5.431  0.8101 -1.0894  1.5230
 6493TIP3   OH240969   6.012   3.593   5.134  0.1698  0.9213 -0.4368
 6493TIP3    H140970   6.009   3.499   5.149  1.7684  1.0694  1.0814
 6493TIP3    H240971   5.984   3.631   5.217  1.2144  1.7748 -0.4636
 6494TIP3   OH240972   1.430   1.306   6.278  0.0561 -0.7872  0.1596
 6494TIP3    H140973   1.392   1.238   6.222  0.8397 -0.3298 -0.9482
 6494TIP3    H240974   1.407   1.388   6.235 -0.1731 -0.3845  1.0460
 6495TIP3   OH240975   4.916   0.049  15.262  0.4986 -0.3419  0.4217
 6495TIP3    H140976   4.830   0.075  15.295  0.4862  0.7812 -0.4535
 6495TIP3    H240977   4.918  -0.046  15.272  0.5796 -0.0582  3.8350
 6496TIP3   OH240978   1.585   5.906   5.823 -0.1057 -0.0943 -0.1863
 6496TIP3    H140979   1.585   5.959   5.902 -0.5727  0.4809 -0.5726
 6496TIP3    H240980   1.522   5.836   5.841 -0.4787  0.2396 -0.1848
 6497TIP3   OH240981   5.116   4.428  14.103 -0.4571 -0.0313  0.0520
 6497TIP3    H140982   5.160   4.367  14.043 -0.4241 -1.1116  1.1398
 6497TIP3    H240983   5.175   4.503  14.109 -0.2798 -0.0857 -0.9605
 6498TIP3   OH240984   2.454   5.361   4.331  0.1461  0.6390 -0.2902
 6498TIP3    H140985   2.502   5.303   4.272 -0.5530  0.1957 -0.4402
 6498TIP3    H240986   2.363   5.331   4.324 -0.4619  2.6436 -1.4478
 6499TIP3   OH240987   2.079   1.836   2.456 -0.2225  0.0414  0.2540
 6499TIP3    H140988   2.088   1.928   2.481  1.7319  0.1348 -0.7364
 6499TIP3    H240989   2.067   1.838   2.361 -0.2372 -0.7237  0.2354
 6500TIP3   OH240990   0.326   3.624   0.824 -0.0296 -0.2404  0.0249
 6500TIP3    H140991   0.286   3.631   0.738 -1.3821 -0.7224  0.5954
 6500TIP3    H240992   0.259   3.658   0.884  0.2388 -1.4831  1.0415
 6501TIP3   OH240993   1.732   3.851   4.513  0.3923  0.6668  0.2572
 6501TIP3    H140994   1.656   3.906   4.529  0.3547  0.7602 -0.2441
 6501TIP3    H240995   1.774   3.843   4.599  0.7605  2.0144  0.2123
 6502TIP3   OH240996   1.574   3.973  15.188  0.4877 -0.5782 -0.0491
 6502TIP3    H140997   1.629   3.932  15.121 -0.3624  0.6428 -1.5232
 6502TIP3    H240998   1.599   4.065  15.186 -0.2913 -0.3477  0.5986
 6503TIP3   OH240999   3.594   4.753   2.730 -0.7180  0.0014 -0.0964
 6503TIP3    H141000   3.645   4.810   2.672  1.8784  0.5066  2.5448
 6503TIP3    H241001   3.648   4.675   2.741 -1.3532 -0.2678  1.2746
 6504TIP3   OH241002   1.450   1.522  13.383 -0.3820 -0.6574 -0.2904
 6504TIP3    H141003   1.414   1.607  13.360 -0.4812 -0.0812  1.9543
 6504TIP3    H241004   1.373   1.467  13.397 -0.3215 -0.8503 -0.6913
 6505TIP3   OH241005   4.370   2.425  13.517 -0.6982 -0.0926 -0.0583
 6505TIP3    H141006   4.411   2.500  13.473 -3.8978  1.2041 -0.9215
 6505TIP3    H241007   4.329   2.463  13.595  2.1900 -1.8690  2.4795
 6506TIP3   OH241008   2.179   3.748  14.683  0.1255  0.0035  0.2767
 6506TIP3    H141009   2.202   3.660  14.654  0.3681 -0.2756  1.2786
 6506TIP3    H241010   2.140   3.789  14.606  0.3453 -0.8509 -0.3075
 6507TIP3   OH241011   1.893   1.444  16.205  0.3861  0.0732  0.2339
 6507TIP3    H141012   1.817   1.482  16.249  1.3500 -1.1428  3.0959
 6507TIP3    H241013   1.921   1.511  16.143 -0.5738  2.1917  2.0149
 6508TIP3   OH241014   0.314   2.286   0.975 -0.1080  0.2596 -0.9203
 6508TIP3    H141015   0.301   2.369   0.929 -1.5139  1.5532  1.7552
 6508TIP3    H241016   0.398   2.296   1.020  0.7229 -0.5934 -2.2130
 6509TIP3   OH241017   4.601   2.683   6.127  0.4817  0.6785  0.4130
 6509TIP3    H141018   4.543   2.744   6.172 -0.7756  0.4794 -0.9068
 6509TIP3    H241019   4.551   2.602   6.122  1.0850  0.3421 -0.2558
 6510TIP3   OH241020   3.726   3.241   5.474  0.2958 -0.1802  0.4374
 6510TIP3    H141021   3.748   3.242   5.567 -0.7598  1.0503  0.6968
 6510TIP3    H241022   3.757   3.325   5.441 -0.9447  0.1513  0.0838
 6511TIP3   OH241023   5.014   5.826  12.924  0.3235 -0.0805 -0.5880
 6511TIP3    H141024   4.928   5.822  12.967  1.8231  0.7944  2.6501
 6511TIP3    H241025   5.036   5.735  12.904 -0.7181 -0.4311 -0.1527
 6512TIP3   OH241026   5.347   6.599  13.283 -1.2985  0.2310 -0.0690
 6512TIP3    H141027   5.360   6.523  13.340 -2.4134  0.2152  0.1722
 6512TIP3    H241028   5.432   6.644  13.283 -1.0604 -0.2107  0.9487
 6513TIP3   OH241029   1.813   4.269   3.602  0.0528 -1.0967 -0.7152
 6513TIP3    H141030   1.746   4.210   3.568 -1.0724 -1.1607  1.4796
 6513TIP3    H241031   1.844   4.227   3.682  1.2620 -0.0727 -0.6177
 6514TIP3   OH241032   3.584   5.566   1.570 -0.2493  0.0242  0.1019
 6514TIP3    H141033   3.492   5.563   1.595 -0.5033 -0.1754 -0.8650
 6514TIP3    H241034   3.585   5.550   1.476  0.8525 -1.0565  0.2835
 6515TIP3   OH241035   5.277   3.185   2.706  0.0322 -0.2651  0.3480
 6515TIP3    H141036   5.191   3.220   2.730 -0.1466 -0.4262 -0.0596
 6515TIP3    H241037   5.265   3.151   2.617  0.7792  0.6192 -0.0902
 6516TIP3   OH241038   1.562   3.701   6.041  0.4888  0.2226 -0.0713
 6516TIP3    H141039   1.584   3.720   6.132  1.8493 -0.8810 -0.1672
 6516TIP3    H241040   1.643   3.715   5.993  0.2491 -1.0231 -0.8468
 6517TIP3   OH241041   5.826   1.155  13.083 -0.1156  0.7669  0.3795
 6517TIP3    H141042   5.764   1.095  13.124 -0.4188  0.7125 -0.1500
 6517TIP3    H241043   5.882   1.099  13.030 -0.3352  0.9429 -0.0359
 6518TIP3   OH241044   0.847   1.238  15.722  0.2712 -0.2660 -0.1414
 6518TIP3    H141045   0.895   1.302  15.668  0.2847  0.3599  0.6055
 6518TIP3    H241046   0.898   1.232  15.803 -0.8685  0.3337  0.6216
 6519TIP3   OH241047   4.217   2.113   3.534 -0.0763 -0.2129 -0.1961
 6519TIP3    H141048   4.274   2.187   3.556  0.4071 -0.5309 -0.3691
 6519TIP3    H241049   4.129   2.150   3.531  0.2444  0.4921 -0.9450
 6520TIP3   OH241050   6.577   3.735  12.536  0.5356 -0.0542 -0.0148
 6520TIP3    H141051   6.669   3.762  12.535 -0.0690  2.1934  1.4801
 6520TIP3    H241052   6.553   3.738  12.629 -1.0903 -0.4696 -0.4184
 6521TIP3   OH241053   6.487   2.582   1.301  0.5613  0.1556  0.2934
 6521TIP3    H141054   6.442   2.511   1.347 -1.0073  0.8305 -0.1560
 6521TIP3    H241055   6.551   2.615   1.364  0.2644 -0.6733  1.0360
 6522TIP3   OH241056   5.729   1.383  11.655  0.4724  0.4192  0.1294
 6522TIP3    H141057   5.777   1.452  11.608  0.2845  1.1270  0.9673
 6522TIP3    H241058   5.787   1.360  11.728 -0.4606  1.2974  1.1628
 6523TIP3   OH241059   3.571   2.511  11.911 -0.2253  0.4524 -0.3193
 6523TIP3    H141060   3.643   2.461  11.949  0.6084  1.8422 -0.0250
 6523TIP3    H241061   3.518   2.536  11.987 -0.6266  0.0382 -0.4627
 6524TIP3   OH241062   1.867   6.310  16.611  0.3383 -0.1634 -0.4362
 6524TIP3    H141063   1.815   6.258  16.550 -0.0762 -0.5596  0.2474
 6524TIP3    H241064   1.957   6.297  16.583  0.4442 -2.9967  1.0068
 6525TIP3   OH241065   2.143   4.141  12.535 -0.0285 -0.4927 -0.0720
 6525TIP3    H141066   2.063   4.093  12.514 -0.6788 -1.4776  4.1193
 6525TIP3    H241067   2.112   4.223  12.573  0.8425 -1.1856  2.2591
 6526TIP3   OH241068   1.688   4.204   1.732 -0.3975  0.1970 -0.3221
 6526TIP3    H141069   1.768   4.189   1.682 -0.1019  2.3469 -0.5440
 6526TIP3    H241070   1.712   4.185   1.823  0.2521  0.4221 -0.4465
 6527TIP3   OH241071   0.421   5.460  11.263 -0.4224 -0.4351 -0.1392
 6527TIP3    H141072   0.475   5.466  11.342  1.0373 -1.4010 -1.0435
 6527TIP3    H241073   0.333   5.483  11.293  0.1931 -0.3488  1.6790
 6528TIP3   OH241074   2.921   6.675  16.681 -0.5469  0.0499  0.1886
 6528TIP3    H141075   2.893   6.756  16.724 -0.4184 -0.2102  0.7614
 6528TIP3    H241076   2.872   6.673  16.599 -2.4293 -0.5366  1.3063
 6529TIP3   OH241077   2.431   2.344  13.778  0.2765 -0.1616 -0.0519
 6529TIP3    H141078   2.520   2.378  13.786 -1.0432  3.1620  1.2849
 6529TIP3    H241079   2.413   2.346  13.684  1.1853  0.2274 -0.2233
 6530TIP3   OH241080   2.874   2.492   5.455 -0.1933  0.1216  0.0149
 6530TIP3    H141081   2.949   2.531   5.501  1.4633 -1.0110 -1.6380
 6530TIP3    H241082   2.864   2.546   5.376 -1.1230  0.2741  0.2430
 6531TIP3   OH241083   4.547   6.813   0.003  0.6527  0.0321 -0.2445
 6531TIP3    H141084   4.484   6.768  -0.054  0.7300  0.3012 -0.5441
 6531TIP3    H241085   4.619   6.750   0.012 -0.2945 -0.8468  1.2566
 6532TIP3   OH241086   6.291   5.503  13.565  0.0387  0.4567 -0.4599
 6532TIP3    H141087   6.215   5.450  13.543  0.8149 -1.2263  0.8074
 6532TIP3    H241088   6.271   5.590  13.529 -1.8939 -0.2926 -1.2603
 6533TIP3   OH241089   3.631   0.563   5.792 -0.1104 -0.0451 -0.4892
 6533TIP3    H141090   3.708   0.575   5.737 -0.8435 -0.0268 -1.5339
 6533TIP3    H241091   3.617   0.648   5.833  0.9306 -0.2890  0.3776
 6534TIP3   OH241092   4.626   3.515  14.623 -0.5236  0.4958  0.5119
 6534TIP3    H141093   4.537   3.532  14.592 -0.9411  0.1029  1.4748
 6534TIP3    H241094   4.651   3.595  14.670  0.7620  1.7840 -2.2428
 6535TIP3   OH241095   0.105   0.491  13.595  0.5565 -0.0995 -0.1306
 6535TIP3    H141096   0.191   0.459  13.567  1.9315  2.3936  1.0787
 6535TIP3    H241097   0.083   0.560  13.533 -0.3541 -0.3936 -0.1417
 6536TIP3   OH241098   5.284   2.196   4.738 -0.0628 -0.3154  1.0408
 6536TIP3    H141099   5.369   2.227   4.708  0.0420 -0.1625  1.4821
 6536TIP3    H241100   5.284   2.103   4.718 -0.1049 -0.1590  0.3272
 6537TIP3   OH241101   1.213   0.539   0.114  0.4541 -0.4858 -0.2743
 6537TIP3    H141102   1.271   0.462   0.117 -0.1567 -0.9540 -0.4458
 6537TIP3    H241103   1.174   0.543   0.201 -1.0215 -1.5423 -0.8633
 6538TIP3   OH241104   4.111   1.568   5.546  0.4591  0.5543 -0.3595
 6538TIP3    H141105   4.205   1.557   5.529  0.3213 -4.0078  1.3006
 6538TIP3    H241106   4.069   1.548   5.462  0.8611  0.6339 -0.5817
 6539TIP3   OH241107   0.215   6.695   1.801  0.4415 -0.0256  0.1281
 6539TIP3    H141108   0.245   6.657   1.884  0.1984 -0.4418  0.0264
 6539TIP3    H241109   0.199   6.787   1.821  3.3497  0.6062 -0.1916
 6540TIP3   OH241110   1.636   6.591   2.899  0.1537 -0.2829  0.6629
 6540TIP3    H141111   1.633   6.646   2.820  2.0238 -1.0975 -0.0010
 6540TIP3    H241112   1.553   6.543   2.898 -0.3564  0.5973 -0.1639
 6541TIP3   OH241113   5.279   0.574   1.559 -0.1600  0.0213  0.2471
 6541TIP3    H141114   5.194   0.533   1.545 -0.7583  1.1810  0.3965
 6541TIP3    H241115   5.318   0.578   1.471  0.4014 -1.8777  0.3872
 6542TIP3   OH241116   0.837   4.841  15.925 -0.1541 -0.7205  0.3400
 6542TIP3    H141117   0.841   4.801  15.838 -0.2329 -0.7767  0.3635
 6542TIP3    H241118   0.744   4.844  15.947 -0.1610 -0.3995  0.2816
 6543TIP3   OH241119   2.357   2.607   1.423 -0.0202  0.3598  0.1074
 6543TIP3    H141120   2.340   2.646   1.337 -1.6393 -0.5454  0.0142
 6543TIP3    H241121   2.299   2.653   1.482 -0.0834 -0.1549  0.4441
 6544TIP3   OH241122   5.654   5.431  14.786 -0.4937 -0.1613 -0.7556
 6544TIP3    H141123   5.721   5.392  14.731 -0.0799 -0.1507 -0.2598
 6544TIP3    H241124   5.572   5.392  14.755 -0.3038  0.0990 -1.6051
 6545TIP3   OH241125   0.186   5.599  16.923 -0.1951 -0.1282 -0.1286
 6545TIP3    H141126   0.116   5.660  16.899  0.5087  0.9448  0.4836
 6545TIP3    H241127   0.247   5.652  16.974  0.9724 -1.1012 -0.4927
 6546TIP3   OH241128   0.538   4.185  11.719 -0.1721 -0.3190 -0.2761
 6546TIP3    H141129   0.596   4.201  11.645  0.1497 -1.2227 -0.2237
 6546TIP3    H241130   0.499   4.271  11.738  2.8317  0.8346  1.1325
 6547TIP3   OH241131   2.347   4.887   1.954 -0.0767 -0.1198 -0.0406
 6547TIP3    H141132   2.410   4.815   1.948  0.3725  0.3701 -1.5029
 6547TIP3    H241133   2.395   4.957   1.999  0.0920 -0.1071 -0.2384
 6548TIP3   OH241134   2.450   3.026  16.912 -0.3927  0.4724 -0.5692
 6548TIP3    H141135   2.431   3.100  16.854 -0.1284  0.3397 -0.8269
 6548TIP3    H241136   2.452   3.065  16.999 -1.5004  0.5457 -0.5699
 6549TIP3   OH241137   3.788   3.855   1.398  0.4296 -0.0152 -0.3138
 6549TIP3    H141138   3.832   3.939   1.402  2.5036 -1.0676 -0.5080
 6549TIP3    H241139   3.706   3.868   1.446  1.0653  1.8880  0.2734
 6550TIP3   OH241140   1.058   2.217  16.190  0.2359 -0.2083  0.2093
 6550TIP3    H141141   1.044   2.184  16.279  1.5322  2.9693  1.6719
 6550TIP3    H241142   1.151   2.240  16.187  0.6475 -2.0636 -2.6485
 6551TIP3   OH241143   1.178   0.915  15.538  0.1004  0.1827  0.3566
 6551TIP3    H141144   1.123   0.878  15.469  1.8862 -0.3197 -0.8571
 6551TIP3    H241145   1.216   0.839  15.582  0.4204  0.5235  0.6722
 6552TIP3   OH241146   6.192   4.605  12.734  0.0271 -0.4039 -0.1478
 6552TIP3    H141147   6.159   4.522  12.699  3.1346 -0.8159 -2.3840
 6552TIP3    H241148   6.129   4.671  12.703 -1.3891 -1.6716 -0.0404
 6553TIP3   OH241149   6.282   3.769   3.651 -0.5021 -0.7591  0.1721
 6553TIP3    H141150   6.227   3.842   3.621  2.4687  1.6889  0.3221
 6553TIP3    H241151   6.274   3.770   3.746 -0.6984 -0.8061  0.1558
 6554TIP3   OH241152   1.787   2.875  16.715  0.2565 -0.5587 -0.3862
 6554TIP3    H141153   1.845   2.829  16.654  0.2286 -1.6183  0.3853
 6554TIP3    H241154   1.835   2.877  16.798  0.1442  0.5773 -0.3341
 6555TIP3   OH241155   4.702   2.766   3.654 -0.2216 -0.1205 -0.2126
 6555TIP3    H141156   4.775   2.705   3.664  1.4740  1.9759  0.6005
 6555TIP3    H241157   4.640   2.721   3.596  1.5414 -2.0810 -0.6086
 6556TIP3   OH241158   1.009   6.600  16.375 -0.3512 -0.2330  0.2805
 6556TIP3    H141159   1.095   6.605  16.334 -0.1144 -0.4157  0.7564
 6556TIP3    H241160   0.980   6.510  16.357 -0.5872 -0.0696 -0.1671
 6557TIP3   OH241161   4.056   2.446  15.152  0.3648  0.2147 -0.2086
 6557TIP3    H141162   4.040   2.352  15.165  2.9656 -0.6830 -2.9383
 6557TIP3    H241163   4.091   2.476  15.236 -0.4323 -1.2687  0.6807
 6558TIP3   OH241164   0.177   3.398   4.580 -0.1625 -0.3947 -0.2797
 6558TIP3    H141165   0.210   3.343   4.651  0.6482 -0.8526 -1.0114
 6558TIP3    H241166   0.082   3.394   4.589 -0.1995 -3.5444 -1.5388
 6559TIP3   OH241167   6.642   3.413  14.499  0.6448 -0.0247  0.0775
 6559TIP3    H141168   6.608   3.498  14.528  2.4228  0.3364  1.1449
 6559TIP3    H241169   6.631   3.414  14.404 -0.5360  0.8640  0.2182
 6560TIP3   OH241170   5.832   5.484  12.970 -0.7418 -0.3489 -0.5008
 6560TIP3    H141171   5.830   5.570  13.012  0.5422 -0.3163 -0.4879
 6560TIP3    H241172   5.902   5.490  12.905 -0.5252 -1.4200 -0.3888
 6561TIP3   OH241173   6.699   0.252  17.094  0.0858  0.0373  0.4043
 6561TIP3    H141174   6.756   0.180  17.124 -0.4885 -0.7646 -0.4071
 6561TIP3    H241175   6.682   0.232  17.002 -0.3275  1.0630  0.2529
 6562TIP3   OH241176   5.840   2.028   1.190 -0.4331 -0.0821  0.2881
 6562TIP3    H141177   5.757   2.060   1.156 -0.2452  0.8550  0.7044
 6562TIP3    H241178   5.906   2.063   1.129 -0.2552  0.0577  0.5594
 6563TIP3   OH241179   4.230   3.228   3.458 -0.2204 -0.0003  0.1597
 6563TIP3    H141180   4.300   3.270   3.510 -0.8266  1.5177 -0.2275
 6563TIP3    H241181   4.158   3.291   3.460 -1.1247 -1.0097 -0.5057
 6564TIP3   OH241182   3.219   1.046  11.137  0.5875 -0.3119 -0.4638
 6564TIP3    H141183   3.233   1.139  11.153  0.3106 -0.3435 -0.0301
 6564TIP3    H241184   3.161   1.042  11.061  0.2659 -0.1247 -0.2253
 6565TIP3   OH241185   6.037   3.750  16.497 -0.3263 -0.2849 -0.2055
 6565TIP3    H141186   6.040   3.699  16.416 -1.0512  0.6816 -0.8510
 6565TIP3    H241187   5.960   3.805  16.488  1.3563  2.1273 -0.2672
 6566TIP3   OH241188   3.495   4.169  15.592  0.1465 -0.4839 -0.0420
 6566TIP3    H141189   3.536   4.231  15.533  1.1788 -1.3435 -0.2561
 6566TIP3    H241190   3.532   4.190  15.678  0.1064 -0.4611 -0.0306
 6567TIP3   OH241191   3.389   1.270   3.707  0.9316  0.0590  0.1505
 6567TIP3    H141192   3.465   1.218   3.734  1.5636  1.8395  1.9828
 6567TIP3    H241193   3.347   1.294   3.790 -0.3916  0.9071 -0.7530
 6568TIP3   OH241194   0.402   0.726  14.567 -0.4360 -0.6674  0.0846
 6568TIP3    H141195   0.481   0.724  14.620 -1.5710 -2.7459  1.7546
 6568TIP3    H241196   0.330   0.726  14.630 -1.8060  2.2945 -1.3791
 6569TIP3   OH241197   5.895   5.042  10.589  0.0917  0.3056  0.2535
 6569TIP3    H141198   5.896   5.126  10.634 -0.1796  1.6200 -2.1212
 6569TIP3    H241199   5.812   5.002  10.615 -0.3538  1.3281  0.4241
 6570TIP3   OH241200   5.977   5.405   2.941  0.3232 -0.0567 -0.1102
 6570TIP3    H141201   5.991   5.499   2.951 -0.0979  0.2265 -1.9930
 6570TIP3    H241202   5.882   5.394   2.939  0.3575 -0.6222  0.8343
 6571TIP3   OH241203   3.915   4.748  11.049  0.1678 -0.0836 -0.0389
 6571TIP3    H141204   3.851   4.710  11.109 -0.0824 -2.2657 -1.6128
 6571TIP3    H241205   3.933   4.678  10.986  2.8336  1.0673 -0.6180
 6572TIP3   OH241206   5.686   5.038   4.194 -0.4650 -0.0406 -0.5699
 6572TIP3    H141207   5.671   5.121   4.239  0.7900 -0.1753  0.1167
 6572TIP3    H241208   5.607   5.025   4.141 -0.1072  2.2335 -1.7110
 6573TIP3   OH241209   4.532   0.048   1.173  0.0375 -0.0189 -0.2098
 6573TIP3    H141210   4.581  -0.027   1.208  2.2060  1.2983 -0.3357
 6573TIP3    H241211   4.451   0.010   1.140 -0.2508 -1.8885  2.4703
 6574TIP3   OH241212   6.366   6.487   2.090  0.2432  0.3225  0.0056
 6574TIP3    H141213   6.384   6.521   2.002 -0.6342  1.2136  0.1637
 6574TIP3    H241214   6.284   6.440   2.081 -0.3807  1.2856  0.5649
 6575TIP3   OH241215   0.956   4.127  12.058 -0.6806 -0.5884  0.0255
 6575TIP3    H141216   0.971   4.047  12.109 -1.3216 -0.3285  0.6263
 6575TIP3    H241217   0.864   4.123  12.034 -1.6829  1.6987  3.0937
 6576TIP3   OH241218   1.818   2.626  13.087 -0.2259 -0.2415 -0.1445
 6576TIP3    H141219   1.853   2.578  13.012 -0.2039  1.1028 -1.0067
 6576TIP3    H241220   1.892   2.674  13.123 -0.8100  1.2589 -0.9270
 6577TIP3   OH241221   6.534   3.700  12.839 -0.1472 -0.2008  0.4175
 6577TIP3    H141222   6.588   3.680  12.915 -2.7280 -1.7519  1.9366
 6577TIP3    H241223   6.470   3.629  12.836 -0.7977  0.4424 -2.5510
 6578TIP3   OH241224   0.496   6.315   3.029 -0.0894 -0.0055  0.6136
 6578TIP3    H141225   0.402   6.327   3.043  0.0819 -0.1820  1.9861
 6578TIP3    H241226   0.508   6.220   3.026 -0.0909  0.0270 -0.5794
 6579TIP3   OH241227   4.427   1.159  13.504  0.0042  0.2714 -0.8377
 6579TIP3    H141228   4.333   1.140  13.506  0.1256 -0.3948 -1.2341
 6579TIP3    H241229   4.445   1.198  13.589 -0.5814  0.1381 -0.6476
 6580TIP3   OH241230   6.145   2.754   0.500  0.1104 -0.2119  0.5794
 6580TIP3    H141231   6.117   2.674   0.455  1.3027 -1.5284  2.1208
 6580TIP3    H241232   6.064   2.805   0.509 -0.6446 -1.1616 -0.5701
 6581TIP3   OH241233   5.638   3.747  11.650 -0.0442  0.1608  0.3849
 6581TIP3    H141234   5.560   3.721  11.699  0.7677 -0.2450  1.4961
 6581TIP3    H241235   5.661   3.833  11.685  0.4475 -0.0607  0.6126
 6582TIP3   OH241236   2.781   0.737   4.952  0.2573  0.2193  0.2317
 6582TIP3    H141237   2.765   0.644   4.968  0.1644  0.2566  0.3532
 6582TIP3    H241238   2.869   0.752   4.987  0.2948  0.1655  0.1637
 6583TIP3   OH241239   1.320   0.783  14.015  0.1956 -0.1362 -0.3534
 6583TIP3    H141240   1.394   0.823  14.061 -1.1687  1.8431  0.1802
 6583TIP3    H241241   1.327   0.817  13.925 -0.4913  0.6734 -0.1081
 6584TIP3   OH241242   4.062   6.206  12.964  0.4218 -0.1631  0.2529
 6584TIP3    H141243   4.150   6.203  13.002  0.7256 -1.9734 -0.5498
 6584TIP3    H241244   4.076   6.228  12.872  0.1871 -2.0200 -0.2538
 6585TIP3   OH241245   6.545   5.494  12.862 -0.1198 -0.0882 -0.3553
 6585TIP3    H141246   6.615   5.487  12.926 -0.4986 -1.2766 -0.0622
 6585TIP3    H241247   6.578   5.447  12.785  0.3409  1.3469 -1.0606
 6586TIP3   OH241248   3.037   2.049  17.261 -0.0656  0.0131 -0.5188
 6586TIP3    H141249   3.040   2.098  17.179 -0.4676  0.6878 -0.1352
 6586TIP3    H241250   2.954   2.074  17.301  0.5162  0.3459  0.4936
 6587TIP3   OH241251   4.010   4.810  14.745  0.3038  0.6710  0.0321
 6587TIP3    H141252   3.986   4.750  14.674  0.4671 -0.7384  1.1500
 6587TIP3    H241253   3.987   4.764  14.825  1.4040  1.6703  0.9574
 6588TIP3   OH241254   2.282   4.898  11.608 -0.3408  0.1531 -0.1411
 6588TIP3    H141255   2.189   4.894  11.587  0.1542  0.3253 -2.5661
 6588TIP3    H241256   2.297   4.989  11.633 -0.5448  0.5326 -1.3298
 6589TIP3   OH241257   6.805   0.488  12.063 -0.3564  0.0777 -0.7473
 6589TIP3    H141258   6.781   0.579  12.050 -1.0742 -0.0069 -0.0115
 6589TIP3    H241259   6.722   0.440  12.061 -0.0257 -0.5037 -0.6995
 6590TIP3   OH241260   0.121   1.228  17.064 -0.4000  0.5393 -0.4684
 6590TIP3    H141261   0.210   1.250  17.091 -0.6811 -0.2272  1.1007
 6590TIP3    H241262   0.128   1.142  17.023  0.1006  1.8860 -3.3777
 6591TIP3   OH241263   2.499   2.770  15.964 -0.4352  0.0793 -0.4228
 6591TIP3    H141264   2.538   2.750  15.878 -0.1112 -1.0962 -0.0128
 6591TIP3    H241265   2.573   2.801  16.017 -0.4153 -0.2843 -0.2337
 6592TIP3   OH241266   1.995   2.937   3.448 -0.3057 -0.2510 -1.1703
 6592TIP3    H141267   1.988   2.891   3.532  0.4863  0.6050 -0.6332
 6592TIP3    H241268   1.931   3.008   3.455 -2.2835 -1.8776 -2.4083
 6593TIP3   OH241269   2.505   6.056  16.879 -0.0599 -0.4711  0.3911
 6593TIP3    H141270   2.583   6.001  16.886 -1.3895 -2.2197  2.0685
 6593TIP3    H241271   2.438   5.997  16.843 -1.0875  0.5064  0.6822
 6594TIP3   OH241272   2.253   6.289   2.908  0.7402 -0.5352  0.1714
 6594TIP3    H141273   2.298   6.365   2.946  0.4673 -0.3072  0.0431
 6594TIP3    H241274   2.181   6.272   2.969  1.6388 -1.5892  0.9804
 6595TIP3   OH241275   2.233   5.103  16.936  0.1434  0.7479 -0.0682
 6595TIP3    H141276   2.285   5.085  16.858  0.3085  0.2810  0.1410
 6595TIP3    H241277   2.247   5.196  16.954  0.8696  0.6398 -0.0416
 6596TIP3   OH241278   0.012   5.030  11.454 -0.5555 -0.1830 -0.3971
 6596TIP3    H141279   0.053   5.030  11.541 -0.1736 -2.5647 -0.5481
 6596TIP3    H241280  -0.042   5.109  11.453  0.3459  0.4987  1.5615
 6597TIP3   OH241281   6.514   4.716   3.753 -0.5459 -0.2451  0.6099
 6597TIP3    H141282   6.496   4.793   3.807 -2.4434 -0.4272  0.2427
 6597TIP3    H241283   6.440   4.710   3.693  0.7149 -1.0257 -0.9007
 6598TIP3   OH241284   6.272   4.382  15.701 -0.2376 -0.1379 -0.2322
 6598TIP3    H141285   6.181   4.407  15.717  0.1899  1.2132  0.1058
 6598TIP3    H241286   6.322   4.463  15.708  1.0377 -0.9053 -0.1567
 6599TIP3   OH241287   1.989   6.222  14.318 -0.2332  0.3627 -0.0017
 6599TIP3    H141288   2.005   6.135  14.356  0.8108  0.4934 -0.1195
 6599TIP3    H241289   2.069   6.242  14.269 -0.5355  1.3192 -0.1193
 6600TIP3   OH241290   1.153   3.605  11.141 -0.2299  0.8675  0.5530
 6600TIP3    H141291   1.161   3.524  11.092 -1.2347  0.6422  0.7561
 6600TIP3    H241292   1.243   3.626  11.167  0.2141  0.5871 -0.7141
 6601TIP3   OH241293   1.043   1.000  14.708 -0.0113  0.2211  0.0039
 6601TIP3    H141294   1.101   1.060  14.756 -1.7424  0.9468  1.2148
 6601TIP3    H241295   1.017   1.049  14.630  1.6549 -0.4252 -0.9880
 6602TIP3   OH241296   2.368   0.661   3.726  0.4927  0.1891  0.8745
 6602TIP3    H141297   2.459   0.641   3.707 -0.1620 -0.1869 -2.0130
 6602TIP3    H241298   2.318   0.601   3.671 -1.5042  1.0522  1.6947
 6603TIP3   OH241299   4.850   4.511  15.383 -0.0252 -0.2570  0.2570
 6603TIP3    H141300   4.939   4.513  15.418  0.7109 -1.5516 -1.4513
 6603TIP3    H241301   4.849   4.435  15.324 -2.3976 -0.5430  0.6114
 6604TIP3   OH241302   4.624   6.766  12.126  0.3824 -0.0777 -0.0134
 6604TIP3    H141303   4.617   6.776  12.221 -1.4623  1.1185 -0.2475
 6604TIP3    H241304   4.576   6.685  12.107 -2.9872  1.8836 -0.3270
 6605TIP3   OH241305   4.398   4.574   3.167  0.3294 -0.3628  0.2808
 6605TIP3    H141306   4.475   4.566   3.110  0.2027  0.3758 -0.0012
 6605TIP3    H241307   4.421   4.645   3.228 -0.1480 -0.0985  0.1566
 6606TIP3   OH241308   5.441   2.592  10.736 -0.3606 -0.9914 -0.0902
 6606TIP3    H141309   5.465   2.509  10.778  0.1269  0.0999  1.8317
 6606TIP3    H241310   5.524   2.639  10.727 -0.7590 -0.3341 -0.3545
 6607TIP3   OH241311   0.940   0.665   5.298  0.2440  0.0880 -0.5935
 6607TIP3    H141312   0.930   0.692   5.389 -0.3803  2.2001 -1.2555
 6607TIP3    H241313   0.934   0.569   5.300 -2.1624  0.2337  1.2934
 6608TIP3   OH241314   1.888   0.632  12.490  0.8541 -0.9222  0.3479
 6608TIP3    H141315   1.886   0.542  12.523 -0.7513 -0.0989  2.6617
 6608TIP3    H241316   1.961   0.673  12.535  1.7628 -1.1358 -0.9228
 6609TIP3   OH241317   6.192   1.226  13.288 -0.2033  0.5568 -0.1338
 6609TIP3    H141318   6.170   1.134  13.280  0.9589  0.3637 -1.3271
 6609TIP3    H241319   6.244   1.245  13.210  1.0468  1.7796  0.9670
 6610TIP3   OH241320   3.165   1.099   2.747  0.1129 -0.2185 -0.1743
 6610TIP3    H141321   3.158   1.190   2.774  1.5428 -0.3786  0.7653
 6610TIP3    H241322   3.233   1.062   2.803 -0.7743 -1.9842 -0.2385
 6611TIP3   OH241323   1.610   4.785  13.486  0.3058  0.1998 -0.4042
 6611TIP3    H141324   1.631   4.724  13.415  1.1905 -0.3351  0.3072
 6611TIP3    H241325   1.515   4.789  13.486  0.2804 -0.0241 -1.4289
 6612TIP3   OH241326   1.275   1.731  14.399 -0.5508 -0.0348  0.0449
 6612TIP3    H141327   1.349   1.673  14.385 -1.2990 -0.8329 -0.6797
 6612TIP3    H241328   1.208   1.700  14.337 -1.1217  1.3024 -0.0234
 6613TIP3   OH241329   1.988   1.511   2.894  0.0582  1.1207 -0.4706
 6613TIP3    H141330   1.927   1.468   2.835 -1.5835  1.4843  0.9247
 6613TIP3    H241331   1.989   1.602   2.864 -1.8597  1.6240  0.8742
 6614TIP3   OH241332   2.752   6.403   4.395 -1.1331 -0.2492 -0.7716
 6614TIP3    H141333   2.703   6.484   4.380 -0.1744  0.7416  1.3414
 6614TIP3    H241334   2.699   6.355   4.458  1.2880  1.5536  2.8149
 6615TIP3   OH241335   0.643   5.366   6.075  0.6083 -0.0431  0.3064
 6615TIP3    H141336   0.629   5.295   6.013 -0.5768  0.0658  0.4416
 6615TIP3    H241337   0.643   5.323   6.161 -0.4615  0.1479  0.4151
 6616TIP3   OH241338   4.144   0.458   2.448 -0.0694 -0.4469 -0.5481
 6616TIP3    H141339   4.104   0.545   2.457  2.3407  0.5530  0.8336
 6616TIP3    H241340   4.154   0.446   2.353  0.8308  1.3580 -0.6969
 6617TIP3   OH241341   2.997   1.937  15.833  0.0166 -0.4540 -0.5571
 6617TIP3    H141342   3.041   1.859  15.868 -2.3609 -1.5626  0.0331
 6617TIP3    H241343   2.920   1.903  15.788 -1.3881  1.5942  0.2205
 6618TIP3   OH241344   4.551   5.767   1.383 -0.0570  0.8707 -0.0748
 6618TIP3    H141345   4.519   5.854   1.357  0.3261  1.0268 -0.0425
 6618TIP3    H241346   4.641   5.784   1.414 -0.2122  0.5556  0.5455
 6619TIP3   OH241347   2.736   4.885  10.467 -0.4066 -0.4377  0.2173
 6619TIP3    H141348   2.814   4.830  10.476 -0.1075 -0.1762 -0.7319
 6619TIP3    H241349   2.769   4.975  10.479 -0.8994 -0.4525  1.8100
 6620TIP3   OH241350   0.628   1.628   4.817  0.1380 -0.4362  0.0727
 6620TIP3    H141351   0.623   1.620   4.721 -0.0766 -0.3892  0.0784
 6620TIP3    H241352   0.589   1.547   4.849 -0.0266 -0.3396  0.1201
 6621TIP3   OH241353   1.086   3.061   5.760 -0.4084  0.0563  0.1768
 6621TIP3    H141354   1.165   3.081   5.811 -1.2707  1.4545  0.9684
 6621TIP3    H241355   1.119   3.035   5.674  1.1507 -3.4043  1.6942
 6622TIP3   OH241356   5.621   3.085  12.020 -0.0167  0.3472 -0.3581
 6622TIP3    H141357   5.567   3.113  11.946 -0.3045 -0.2489 -0.3743
 6622TIP3    H241358   5.559   3.049  12.083  0.4741 -1.6010 -0.9450
 6623TIP3   OH241359   2.033   4.878   0.777 -0.2670 -0.2068 -0.6251
 6623TIP3    H141360   1.989   4.837   0.852  1.0257  1.0406  0.8502
 6623TIP3    H241361   2.080   4.806   0.735 -0.8390 -0.8879 -0.1181
 6624TIP3   OH241362   2.186   2.345  16.316 -0.3319  0.2874 -0.3003
 6624TIP3    H141363   2.204   2.307  16.402  0.0449 -2.0804 -1.3814
 6624TIP3    H241364   2.258   2.407  16.302 -0.1690  0.3868  0.9019
 6625TIP3   OH241365   3.252   0.713   2.661 -0.1807 -0.2501  0.3817
 6625TIP3    H141366   3.247   0.675   2.749 -3.6993  0.0680  0.4027
 6625TIP3    H241367   3.202   0.794   2.667 -0.3330 -0.1402 -1.8969
 6626TIP3   OH241368   4.161   2.630  13.555 -0.1701 -0.1606 -0.6144
 6626TIP3    H141369   4.182   2.656  13.645  0.0099 -0.9792 -0.4129
 6626TIP3    H241370   4.065   2.626  13.554 -0.1883  0.2629 -0.5760
 6627TIP3   OH241371   4.605   2.671   1.137 -0.2432 -0.1574 -0.9461
 6627TIP3    H141372   4.598   2.593   1.191  1.9670 -0.1192 -0.5348
 6627TIP3    H241373   4.563   2.740   1.189 -0.5828 -0.6927 -0.5072
 6628TIP3   OH241374   2.139   0.414  16.254  0.4230 -0.6402  0.2395
 6628TIP3    H141375   2.226   0.381  16.274  0.0621 -0.9356  1.4040
 6628TIP3    H241376   2.083   0.377  16.323 -0.6528 -0.6057 -0.5896
 6629TIP3   OH241377   5.451   5.883  12.138 -0.0351  0.0831 -0.1311
 6629TIP3    H141378   5.429   5.851  12.050 -0.8075 -0.9045  0.4196
 6629TIP3    H241379   5.436   5.978  12.133 -0.9349 -0.0834 -0.8152
 6630TIP3   OH241380   1.191   2.584   6.580 -0.2280 -0.1083 -0.2694
 6630TIP3    H141381   1.198   2.490   6.563 -0.0106  0.3307 -2.8698
 6630TIP3    H241382   1.228   2.625   6.501  1.6124  2.1583  1.6995
 6631TIP3   OH241383   5.727   2.116  16.066  0.6651  0.2208  0.1925
 6631TIP3    H141384   5.637   2.138  16.044  0.9721  1.3758  0.0427
 6631TIP3    H241385   5.752   2.049  16.003 -0.7506 -1.6204  1.5616
 6632TIP3   OH241386   3.786   1.092   0.439 -0.3126 -0.5038  0.3795
 6632TIP3    H141387   3.789   0.996   0.441 -1.2834 -0.5921 -1.4761
 6632TIP3    H241388   3.718   1.112   0.375  0.4417  1.4290  0.1586
 6633TIP3   OH241389   3.189   6.558   6.110  0.3092  0.1415  0.8805
 6633TIP3    H141390   3.095   6.543   6.097  0.3103  0.0779  0.9487
 6633TIP3    H241391   3.220   6.590   6.025  0.6328 -1.7596  0.2749
 6634TIP3   OH241392   3.329   0.428  16.526 -0.7740 -0.1786  0.4617
 6634TIP3    H141393   3.263   0.475  16.475 -2.2829 -2.4392  0.2495
 6634TIP3    H241394   3.368   0.366  16.464  0.3817 -0.0287  1.0215
 6635TIP3   OH241395   5.128   3.811  16.647 -0.6511 -0.1371  0.2625
 6635TIP3    H141396   5.151   3.718  16.640 -1.6454 -0.3380 -0.4569
 6635TIP3    H241397   5.201   3.850  16.695 -0.2746 -1.3120  0.6688
 6636TIP3   OH241398   6.398   4.642   0.068  0.3438  0.0339 -0.2396
 6636TIP3    H141399   6.478   4.680   0.106  0.7294  0.0948 -1.1035
 6636TIP3    H241400   6.400   4.551   0.098  0.3034  0.2456  0.4271
 6637TIP3   OH241401   0.414   5.432  15.388 -0.0995 -0.0130 -0.2179
 6637TIP3    H141402   0.438   5.481  15.309 -1.8511 -0.3521 -0.9902
 6637TIP3    H241403   0.487   5.445  15.448  0.4565  1.7266 -1.2433
 6638TIP3   OH241404   3.250   0.327  15.985  0.1458  0.1361  0.5036
 6638TIP3    H141405   3.210   0.390  15.926 -1.6549 -0.0659  1.4712
 6638TIP3    H241406   3.325   0.292  15.937 -0.9810  0.3659 -1.4391
 6639TIP3   OH241407   4.647   0.260   5.269  0.2437  0.5434  0.3214
 6639TIP3    H141408   4.650   0.185   5.209 -1.4907  0.0729  0.7876
 6639TIP3    H241409   4.558   0.294   5.259  0.2443  1.0347  1.9419
 6640TIP3   OH241410   5.355   2.148  13.165  0.4638  0.1623 -0.5069
 6640TIP3    H141411   5.371   2.189  13.250  0.2166  0.0864 -0.4225
 6640TIP3    H241412   5.331   2.057  13.186  1.1757 -0.0767 -0.7014
 6641TIP3   OH241413   0.612   3.055   6.145  0.1228  0.5159  0.1433
 6641TIP3    H141414   0.637   3.085   6.058 -0.0319  0.8359  0.2098
 6641TIP3    H241415   0.570   2.970   6.130 -0.5706  0.9148 -0.1644
 6642TIP3   OH241416   2.201   4.947  14.609 -0.5588  0.0521  0.4069
 6642TIP3    H141417   2.249   4.986  14.536 -1.2884  0.3307  0.0693
 6642TIP3    H241418   2.252   4.971  14.687  0.1785 -0.1827  0.0070
 6643TIP3   OH241419   4.802   1.181  15.623  0.4704  0.7216 -0.7374
 6643TIP3    H141420   4.788   1.206  15.715 -2.0938  1.8586 -1.3787
 6643TIP3    H241421   4.840   1.259  15.583  1.4166  0.2890 -0.6687
 6644TIP3   OH241422   3.201   5.271   3.685  0.2061  0.3158  0.2961
 6644TIP3    H141423   3.119   5.304   3.721 -0.7185 -1.1017 -0.4893
 6644TIP3    H241424   3.223   5.196   3.741 -0.5930 -1.1375 -1.3245
 6645TIP3   OH241425   4.656   0.022  14.894  0.2992  0.4406  0.1858
 6645TIP3    H141426   4.637   0.106  14.937 -0.4923  0.5539 -0.3770
 6645TIP3    H241427   4.629   0.035  14.803 -1.2594 -0.9112  0.4342
 6646TIP3   OH241428   0.180   1.507  17.070  0.2795  0.3469 -0.2942
 6646TIP3    H141429   0.146   1.428  17.028 -2.0272  0.7860  0.6774
 6646TIP3    H241430   0.240   1.474  17.137  0.8211 -0.4986 -1.1812
 6647TIP3   OH241431   0.647   1.540   5.875 -0.6679 -0.2187 -0.2934
 6647TIP3    H141432   0.712   1.484   5.916 -0.2357  0.8560  0.4927
 6647TIP3    H241433   0.574   1.543   5.937  0.4673  2.3627  0.9904
 6648TIP3   OH241434   1.881   3.458  13.235 -0.2014 -0.0468  0.6044
 6648TIP3    H141435   1.856   3.444  13.144  0.8500  0.2874  0.2573
 6648TIP3    H241436   1.974   3.437  13.238 -0.7997 -2.6666  2.1841
 6649TIP3   OH241437   2.982   3.708   1.656 -0.5552  0.0818  0.2821
 6649TIP3    H141438   2.969   3.620   1.620 -0.0182  0.2221 -0.2562
 6649TIP3    H241439   2.894   3.745   1.661 -0.6544 -0.0049 -0.7200
 6650TIP3   OH241440   5.217   1.494   2.777 -0.4827 -0.2250 -0.1585
 6650TIP3    H141441   5.174   1.568   2.820  0.7568  0.8736 -0.7547
 6650TIP3    H241442   5.146   1.442   2.741 -1.3529  1.2297 -0.5924
 6651TIP3   OH241443   4.845   3.901   1.999  0.3793 -0.0598  0.5132
 6651TIP3    H141444   4.802   3.816   1.996  0.9823 -0.3530  0.3280
 6651TIP3    H241445   4.887   3.904   2.085  0.8446 -0.1800  0.2880
 6652TIP3   OH241446   3.659   1.860  12.434  0.2549 -0.5453 -0.3022
 6652TIP3    H141447   3.613   1.944  12.443  1.6138  0.1582  0.3270
 6652TIP3    H241448   3.653   1.839  12.341  1.2174  1.0268 -0.7408
 6653TIP3   OH241449   4.715   0.129   2.362  0.0863 -0.2462  0.1974
 6653TIP3    H141450   4.690   0.200   2.420  1.5575 -2.9952  4.4460
 6653TIP3    H241451   4.806   0.110   2.385  0.0013 -2.9458 -1.4035
 6654TIP3   OH241452   1.364   1.823   1.177 -0.2143  0.7574 -0.5322
 6654TIP3    H141453   1.311   1.894   1.211 -0.3625 -0.3547  1.6472
 6654TIP3    H241454   1.451   1.860   1.166 -0.6267  1.6494 -0.8180
 6655TIP3   OH241455   3.604   2.382  14.597 -0.1977  0.6983  0.0202
 6655TIP3    H141456   3.675   2.325  14.567 -1.2509  0.1058 -1.3699
 6655TIP3    H241457   3.638   2.471  14.584  0.7477  0.4119  0.4944
 6656TIP3   OH241458   0.768   3.473   1.814  0.2779 -0.8445  0.4515
 6656TIP3    H141459   0.704   3.504   1.750  2.2736 -0.2362 -1.2712
 6656TIP3    H241460   0.840   3.438   1.762  1.8035 -0.6013  2.3371
 6657TIP3   OH241461   1.253   2.019   5.027  0.0994 -0.3016  0.0315
 6657TIP3    H141462   1.298   2.032   5.111  1.4390 -1.2719 -0.5134
 6657TIP3    H241463   1.200   1.941   5.040 -0.1340 -0.1203  0.1606
 6658TIP3   OH241464   0.507   6.085   4.279  0.1273  0.2203  0.7803
 6658TIP3    H141465   0.494   6.001   4.322  0.1858  0.6270  1.6063
 6658TIP3    H241466   0.482   6.150   4.345 -2.9434  0.8122 -0.8525
 6659TIP3   OH241467   0.876   6.430   5.378 -0.0149  0.0542 -0.2154
 6659TIP3    H141468   0.883   6.376   5.299 -1.1112 -0.4013  0.0003
 6659TIP3    H241469   0.909   6.516   5.350  1.7174 -0.6941 -0.5590
 6660TIP3   OH241470   4.504   1.748   2.388 -0.0190 -0.1297  0.1284
 6660TIP3    H141471   4.599   1.747   2.401 -0.0362  1.2973  0.3452
 6660TIP3    H241472   4.484   1.658   2.360  1.3425 -0.5335  0.3848
 6661TIP3   OH241473   1.621   2.549   5.458  0.2353  0.2650  0.1512
 6661TIP3    H141474   1.621   2.458   5.487  0.4892 -0.2009 -1.2583
 6661TIP3    H241475   1.529   2.576   5.464  0.3906  0.4053  2.0283
 6662TIP3   OH241476   0.357   2.546   0.333 -0.7664 -0.4733 -0.3013
 6662TIP3    H141477   0.283   2.514   0.281 -0.1838 -2.0406 -0.1987
 6662TIP3    H241478   0.357   2.641   0.319 -0.9722 -0.7915 -2.7119
 6663TIP3   OH241479   3.533   1.239   2.722 -0.4306 -0.3644  0.0943
 6663TIP3    H141480   3.614   1.261   2.676 -0.4975 -0.2854  0.0140
 6663TIP3    H241481   3.520   1.146   2.707 -0.6528 -0.2611 -0.3609
 6664TIP3   OH241482   0.280   2.870   1.471 -0.6155 -0.6502 -0.5069
 6664TIP3    H141483   0.286   2.778   1.496 -0.4258 -0.6869 -0.6838
 6664TIP3    H241484   0.206   2.904   1.522 -0.3216 -0.7558 -0.0094
 6665TIP3   OH241485   0.216   5.389  14.270 -0.6935  0.5035 -0.3240
 6665TIP3    H141486   0.185   5.467  14.318 -0.4280  0.4433 -0.0451
 6665TIP3    H241487   0.308   5.409  14.252 -0.9057  0.7021 -1.1804
 6666TIP3   OH241488   6.215   5.097   3.778 -0.1084  0.1566  0.3008
 6666TIP3    H141489   6.209   5.115   3.684 -0.0244  0.0240  0.2710
 6666TIP3    H241490   6.126   5.074   3.803 -0.1239  0.1554  0.2471
 6667TIP3   OH241491   3.710   1.346   2.320  0.2197  0.1774  0.4635
 6667TIP3    H141492   3.621   1.342   2.285  0.4157 -0.4474  0.0217
 6667TIP3    H241493   3.751   1.419   2.274  0.1622 -0.0046  0.1209
 6668TIP3   OH241494   5.240   2.355   0.198 -1.0559 -0.0381  0.4128
 6668TIP3    H141495   5.216   2.277   0.247 -2.0621 -0.5520 -0.8578
 6668TIP3    H241496   5.287   2.323   0.121 -0.3561  0.6826  0.5316
 6669TIP3   OH241497   1.104   0.584  15.954  0.3747 -0.0510 -0.2584
 6669TIP3    H141498   1.068   0.640  16.022  0.3570  0.0078 -0.3146
 6669TIP3    H241499   1.075   0.624  15.872  1.4227  0.5666 -0.3329
 6670TIP3   OH241500   1.947   0.775   4.282 -0.0224 -0.1254 -0.1487
 6670TIP3    H141501   2.028   0.810   4.245 -0.6632 -1.5400 -3.0439
 6670TIP3    H241502   1.956   0.788   4.376  1.6869  3.6378 -0.7537
 6671TIP3   OH241503   5.046   4.676   0.205  0.0359  0.0504 -0.3761
 6671TIP3    H141504   5.011   4.690   0.117  1.6857  2.7249 -0.6736
 6671TIP3    H241505   4.981   4.715   0.263 -0.5734 -0.8095 -0.4835
 6672TIP3   OH241506   1.977   1.576  14.207  0.4327  0.1102 -0.1716
 6672TIP3    H141507   1.980   1.617  14.121  0.4387  0.2853 -0.0895
 6672TIP3    H241508   2.059   1.603  14.249 -0.0474  0.8806  0.2735
 6673TIP3   OH241509   4.116   0.612   4.902  0.2427  0.5781 -0.5475
 6673TIP3    H141510   4.185   0.600   4.836 -0.8106 -0.0092 -1.5561
 6673TIP3    H241511   4.153   0.575   4.982  1.4373  1.0737 -0.8602
 6674TIP3   OH241512   0.826   1.353   4.040  0.1168 -0.0605 -0.1208
 6674TIP3    H141513   0.743   1.387   4.073  0.1906  0.1311 -0.1366
 6674TIP3    H241514   0.873   1.323   4.118 -0.7972 -2.0006 -0.2743
 6675TIP3   OH241515   1.225   5.473  14.514  0.1080 -0.0164 -0.0573
 6675TIP3    H141516   1.232   5.378  14.519  1.6457  0.0915  0.1919
 6675TIP3    H241517   1.286   5.498  14.444 -1.7519  0.6358 -1.4825
 6676TIP3   OH241518   5.318   6.711  15.088 -0.3455  0.3868  0.2478
 6676TIP3    H141519   5.336   6.755  15.171 -1.4480  1.5622 -0.1067
 6676TIP3    H241520   5.288   6.782  15.030 -0.8659 -0.6344 -0.7427
 6677TIP3   OH241521   3.542   0.244  17.226  0.5660 -0.4445  0.1083
 6677TIP3    H141522   3.482   0.172  17.206 -0.2069 -0.0943  1.0893
 6677TIP3    H241523   3.601   0.248  17.151  0.1392 -1.6042 -0.3054
 6678TIP3   OH241524   2.056   1.198   5.046  0.0734 -0.2381 -0.6980
 6678TIP3    H141525   1.962   1.217   5.048 -0.3550 -2.4090  3.3926
 6678TIP3    H241526   2.095   1.259   5.109  1.0906 -1.0054 -0.5688
 6679TIP3   OH241527   3.212   4.638  13.950  0.0539 -0.2442  0.0769
 6679TIP3    H141528   3.291   4.693  13.955 -0.3663  0.2567  1.3024
 6679TIP3    H241529   3.143   4.699  13.922  0.2572 -0.8584 -1.8359
 6680TIP3   OH241530   5.751   6.258  11.920 -0.2341  0.5388 -0.0311
 6680TIP3    H141531   5.659   6.261  11.893 -0.0857  0.2166 -0.5583
 6680TIP3    H241532   5.800   6.249  11.839  0.1830 -0.8653  0.3769
 6681TIP3   OH241533   0.702   3.555  15.091  0.1771 -0.8414 -0.4302
 6681TIP3    H141534   0.735   3.533  15.004  1.9383  0.3325 -0.0834
 6681TIP3    H241535   0.684   3.649  15.088 -0.7466 -0.9894  0.1677
 6682TIP3   OH241536   2.406   6.726   5.372  0.1051 -0.2198  0.0237
 6682TIP3    H141537   2.369   6.738   5.459 -0.2338 -0.7540 -0.0440
 6682TIP3    H241538   2.342   6.671   5.326 -1.2856  2.6137 -1.5716
 6683TIP3   OH241539   2.438   5.669   5.892  0.1826  0.0137  0.1126
 6683TIP3    H141540   2.475   5.633   5.811 -0.6048  2.1270 -1.2622
 6683TIP3    H241541   2.351   5.631   5.897  0.7584 -1.2306  0.7461
 6684TIP3   OH241542   1.171   1.683  13.019  0.5235  0.5540  0.0223
 6684TIP3    H141543   1.224   1.740  12.965  1.0149  0.4114  0.3521
 6684TIP3    H241544   1.204   1.695  13.108  0.3635  0.0632  0.1530
 6685TIP3   OH241545   1.289   2.027   5.977  0.2609 -0.1997  0.2524
 6685TIP3    H141546   1.346   1.985   6.042  0.8669  0.2450  0.0223
 6685TIP3    H241547   1.210   1.974   5.975  0.8690 -1.1025  0.2393
 6686TIP3   OH241548   0.485   0.447   1.993 -0.7902 -0.5145  0.1296
 6686TIP3    H141549   0.517   0.407   2.073  0.1184 -1.9646 -0.9316
 6686TIP3    H241550   0.522   0.536   1.995  3.3636 -2.0857 -0.9868
 6687TIP3   OH241551   6.570   3.055   4.616 -0.1692 -0.3230  0.1163
 6687TIP3    H141552   6.576   2.961   4.600 -1.2087 -0.3392 -0.2370
 6687TIP3    H241553   6.565   3.094   4.529 -1.2810 -0.0617  0.2834
 6688TIP3   OH241554   1.296   2.674  10.947 -0.0936 -0.0307  0.3481
 6688TIP3    H141555   1.278   2.695  10.855 -3.2774  1.1730  1.2037
 6688TIP3    H241556   1.390   2.691  10.956  0.5428 -1.3296 -2.9566
 6689TIP3   OH241557   0.259   1.985   1.432 -0.0177 -0.2151  0.1549
 6689TIP3    H141558   0.173   1.944   1.425  0.5555 -1.3177 -0.4275
 6689TIP3    H241559   0.240   2.074   1.462 -1.6503  0.7057 -3.3549
 6690TIP3   OH241560   1.082   1.901   2.329  0.1988  0.4114 -0.3440
 6690TIP3    H141561   1.138   1.979   2.324  1.1172 -0.2814 -1.0243
 6690TIP3    H241562   1.141   1.828   2.312 -0.8691 -0.3578 -0.8129
 6691TIP3   OH241563   1.199   3.557  11.557 -0.6992 -0.5650 -0.3946
 6691TIP3    H141564   1.261   3.624  11.584 -0.4883 -1.2204  0.7560
 6691TIP3    H241565   1.241   3.513  11.483  0.4989 -1.3977  0.7509
 6692TIP3   OH241566   0.405   6.645  15.997 -0.3810  0.1460  0.3795
 6692TIP3    H141567   0.401   6.739  15.981 -0.9074  0.4550  2.2669
 6692TIP3    H241568   0.449   6.636  16.082 -0.5505 -1.3035  0.3402
 6693TIP3   OH241569   1.345   0.489  12.072 -0.1994 -1.0937 -0.1133
 6693TIP3    H141570   1.334   0.534  12.156 -1.2992 -0.8864 -0.3589
 6693TIP3    H241571   1.300   0.546  12.009  2.2385 -0.2689 -1.1797
 6694TIP3   OH241572   4.640   5.599   2.866 -0.3715  0.4021  0.1274
 6694TIP3    H141573   4.633   5.692   2.887 -2.9856  0.5025 -1.0064
 6694TIP3    H241574   4.682   5.560   2.943 -0.5910  2.2802  1.2284
 6695TIP3   OH241575   1.734   2.723  17.074 -0.1685 -0.1317  0.0286
 6695TIP3    H141576   1.795   2.792  17.048 -1.6856  0.6282 -1.6586
 6695TIP3    H241577   1.780   2.673  17.140  1.2510  2.0877  0.7622
 6696TIP3   OH241578   6.127   2.627  15.557  0.4299  0.0853  0.1111
 6696TIP3    H141579   6.113   2.534  15.580  0.7399 -0.1984 -0.8449
 6696TIP3    H241580   6.091   2.675  15.632  0.0533 -0.8006  0.5125
 6697TIP3   OH241581   5.380   1.273  12.790  0.2977 -0.7234 -0.3202
 6697TIP3    H141582   5.386   1.178  12.790 -1.7838 -0.8831 -1.3100
 6697TIP3    H241583   5.463   1.303  12.828  1.0512 -2.9073 -0.2117
 6698TIP3   OH241584   4.005   1.108   0.670  0.1051  0.3168 -0.5539
 6698TIP3    H141585   3.990   1.066   0.755  0.1279  1.2450 -0.0863
 6698TIP3    H241586   3.920   1.145   0.647 -0.1137 -0.6364 -1.3395
 6699TIP3   OH241587   1.915   4.174  16.077 -0.6167  0.3308  0.0629
 6699TIP3    H141588   1.858   4.244  16.109  0.5191  1.0659  0.5010
 6699TIP3    H241589   1.935   4.198  15.986  0.0393  0.7623  0.3153
 6700TIP3   OH241590   3.112   5.508  14.893 -0.0906  0.2524 -0.0776
 6700TIP3    H141591   3.177   5.552  14.839  0.3149  0.5804  0.6618
 6700TIP3    H241592   3.104   5.420  14.855  2.6779 -0.6679  1.3408
 6701TIP3   OH241593   1.594   1.065   1.694  0.1136 -0.1918 -0.3424
 6701TIP3    H141594   1.586   0.974   1.668 -0.2669 -1.6639  4.4216
 6701TIP3    H241595   1.516   1.108   1.660 -1.5873 -2.5148  0.5348
 6702TIP3   OH241596   1.627   1.057  14.081  0.3897  0.0051  0.1512
 6702TIP3    H141597   1.699   0.999  14.106 -0.1010 -0.9278 -0.6025
 6702TIP3    H241598   1.664   1.113  14.013  0.1435 -1.0806 -0.8821
 6703TIP3   OH241599   2.397   4.812   3.848  0.2549  0.0855 -0.1224
 6703TIP3    H141600   2.437   4.882   3.899 -0.0073 -1.0819  1.7577
 6703TIP3    H241601   2.326   4.854   3.799  0.0765  1.1256  1.0175
 6704TIP3   OH241602   1.060   1.130   5.341  0.2314 -0.3740  0.2862
 6704TIP3    H141603   1.009   1.057   5.376  1.5422 -0.8048  1.3475
 6704TIP3    H241604   1.097   1.098   5.259 -3.6071  0.9393 -2.1166
 6705TIP3   OH241605   4.242   3.002  14.091 -0.1643  0.0591  0.0066
 6705TIP3    H141606   4.203   3.008  14.178 -0.5515  0.2848 -0.1814
 6705TIP3    H241607   4.175   2.960  14.037 -0.3523  0.9136 -0.4355
 6706TIP3   OH241608   4.055   1.503   3.240  0.3058 -0.3317 -0.1084
 6706TIP3    H141609   4.007   1.509   3.323 -1.0574 -1.7501 -0.7612
 6706TIP3    H241610   4.120   1.435   3.254 -1.5070 -2.2731 -0.9327
 6707TIP3   OH241611   3.397   3.953  13.533  0.8190 -0.8622 -0.0715
 6707TIP3    H141612   3.479   3.911  13.505  1.4485  0.8920 -0.9465
 6707TIP3    H241613   3.393   4.034  13.482 -0.6659 -0.1466  1.1326
 6708TIP3   OH241614   2.448   6.810   4.490  0.0751 -0.8525 -0.4363
 6708TIP3    H141615   2.375   6.790   4.549  0.4063 -2.1829 -0.4438
 6708TIP3    H241616   2.407   6.825   4.405 -0.3557  0.4495  0.0037
 6709TIP3   OH241617   0.544   5.077  11.638 -0.0801 -0.4849 -0.0599
 6709TIP3    H141618   0.611   5.119  11.584  1.7350  0.6855  2.9826
 6709TIP3    H241619   0.550   4.984  11.615  1.0269 -0.0890 -1.4561
 6710TIP3   OH241620   1.587   1.661   0.427 -0.1481  0.2641 -0.0601
 6710TIP3    H141621   1.662   1.708   0.464  1.1299 -1.4619 -0.3979
 6710TIP3    H241622   1.598   1.669   0.332 -1.2239  1.2542 -0.1223
 6711TIP3   OH241623   4.011   4.648  11.857 -0.6574  0.1336  0.2967
 6711TIP3    H141624   4.029   4.561  11.892 -1.5084 -0.3831 -0.5171
 6711TIP3    H241625   3.916   4.651  11.845 -0.5700  0.9219 -0.3165
 6712TIP3   OH241626   2.575   0.087   5.982 -0.4286  0.1680 -0.0911
 6712TIP3    H141627   2.484   0.108   6.001 -0.9270 -0.5635 -1.5539
 6712TIP3    H241628   2.571   0.032   5.903  1.2711  0.1130 -0.1641
 6713TIP3   OH241629   4.761   1.554   2.686 -0.3450 -0.3638  0.0734
 6713TIP3    H141630   4.756   1.582   2.594  2.4921  0.5305  0.1513
 6713TIP3    H241631   4.842   1.502   2.691 -0.5625 -0.5513  2.0359
 6714TIP3   OH241632   6.340   4.632  14.273  0.3491  0.5460  0.4219
 6714TIP3    H141633   6.424   4.590  14.254  1.5587  1.7316  2.8974
 6714TIP3    H241634   6.326   4.692  14.200  0.2596 -1.6540 -1.4166
 6715TIP3   OH241635   3.995   3.836  16.548 -0.1117  0.0966  0.0261
 6715TIP3    H141636   4.017   3.781  16.624  0.0277  0.1072 -0.0063
 6715TIP3    H241637   4.052   3.912  16.556  0.5904 -0.3647 -0.6277
 6716TIP3   OH241638   0.609   4.210   3.412  0.1118 -0.2643  0.1476
 6716TIP3    H141639   0.639   4.141   3.353  1.7873  1.9601 -1.6396
 6716TIP3    H241640   0.523   4.234   3.379  0.3140 -0.2126 -0.3397
 6717TIP3   OH241641   6.060   1.986   3.764 -0.3327  0.6613  0.1819
 6717TIP3    H141642   6.028   2.021   3.847 -0.3841 -1.1877  0.9749
 6717TIP3    H241643   5.988   1.931   3.731  1.0049 -1.4769  0.7076
 6718TIP3   OH241644   3.975   6.694   0.076  0.1169  0.4439  0.0107
 6718TIP3    H141645   3.955   6.730   0.162 -0.0361 -2.0228  1.0549
 6718TIP3    H241646   4.068   6.672   0.079  0.2817  0.9944 -0.7179
 6719TIP3   OH241647   6.420   2.048   2.447 -0.0493  0.1161 -0.1913
 6719TIP3    H141648   6.502   2.009   2.416  0.4620  0.0391  1.2516
 6719TIP3    H241649   6.404   2.008   2.532 -0.9345  1.0461  0.0967
 6720TIP3   OH241650   5.725   2.589   4.688  0.8921 -0.3805 -0.3792
 6720TIP3    H141651   5.676   2.584   4.771  1.6490 -1.1143  0.0287
 6720TIP3    H241652   5.760   2.678   4.688  0.2029 -0.0989 -0.3111
 6721TIP3   OH241653   4.062   0.671   3.521  0.2371  0.9262  0.1661
 6721TIP3    H141654   4.029   0.693   3.608  2.3582 -0.3969  1.3554
 6721TIP3    H241655   4.046   0.577   3.513 -0.6862  1.1843 -1.2344
 6722TIP3   OH241656   5.933   5.014   3.453  0.2566 -0.2575 -0.4353
 6722TIP3    H141657   5.919   5.109   3.450 -1.4523 -0.4652  0.5672
 6722TIP3    H241658   5.978   4.999   3.536 -2.5604 -0.6827  1.0542
 6723TIP3   OH241659   2.090   1.169  14.546  0.4500  0.3161 -0.1565
 6723TIP3    H141660   2.093   1.216  14.463  0.1787 -0.0464 -0.3736
 6723TIP3    H241661   2.181   1.160  14.572  0.6243 -0.7490 -1.0829
 6724TIP3   OH241662   5.210   0.123  15.000  1.2694 -0.4109 -0.1162
 6724TIP3    H141663   5.178   0.152  14.915  0.7480 -0.0674  0.1912
 6724TIP3    H241664   5.291   0.171  15.014  0.2755  1.1013  0.5077
 6725TIP3   OH241665   3.693   6.466   4.287 -0.0303  0.7934 -0.0093
 6725TIP3    H141666   3.780   6.490   4.319  1.1078  1.1200 -3.1784
 6725TIP3    H241667   3.706   6.382   4.242 -1.4215  0.6748 -0.2182
 6726TIP3   OH241668   3.542   3.540   1.021 -0.0921  0.3396  0.4751
 6726TIP3    H141669   3.588   3.510   0.942 -0.4193  1.1500 -0.0269
 6726TIP3    H241670   3.609   3.586   1.072 -0.3348  1.5209 -0.2564
 6727TIP3   OH241671   6.270   6.015  13.403 -0.8511  0.4924 -0.3468
 6727TIP3    H141672   6.304   5.981  13.320  0.8674  2.5067 -0.5125
 6727TIP3    H241673   6.179   6.039  13.384  0.2529  3.3333 -2.4186
 6728TIP3   OH241674   5.770   6.014  12.723  0.3632 -0.2266  0.7579
 6728TIP3    H141675   5.825   5.939  12.698  0.7394  0.1984  0.3046
 6728TIP3    H241676   5.731   6.044  12.640 -1.2521 -1.0676  1.1911
 6729TIP3   OH241677   5.040   4.939   6.467  0.5759 -0.5363  0.2990
 6729TIP3    H141678   5.009   4.991   6.393 -0.2166 -0.2826  0.8054
 6729TIP3    H241679   5.135   4.944   6.462  0.5156  0.0414 -0.3059
 6730TIP3   OH241680   5.401   2.377  14.430 -0.0312  0.1352  1.0860
 6730TIP3    H141681   5.335   2.308  14.439  0.3494 -0.3468  0.2561
 6730TIP3    H241682   5.370   2.431  14.357  0.9255 -0.6009  0.1214
 6731TIP3   OH241683   2.146   2.173  12.311  0.1243  0.2711  0.3615
 6731TIP3    H141684   2.178   2.200  12.398 -2.0226  0.9201  0.9779
 6731TIP3    H241685   2.091   2.097  12.328 -0.5550  0.5859 -0.3767
 6732TIP3   OH241686   0.002   3.671  12.222  0.6721  0.3316  0.7098
 6732TIP3    H141687   0.090   3.677  12.185  0.1964  1.0683 -0.3191
 6732TIP3    H241688   0.002   3.734  12.295 -0.2189  3.3414 -1.7937
 6733TIP3   OH241689   1.092   4.674  11.400 -0.6385 -0.0547 -0.3138
 6733TIP3    H141690   1.133   4.680  11.314  0.6624 -0.3665  0.2604
 6733TIP3    H241691   1.109   4.759  11.441  0.1808 -0.4717  0.2345
 6734TIP3   OH241692   1.620   0.304  13.059  0.1902  0.5297 -0.1100
 6734TIP3    H141693   1.533   0.271  13.035 -0.6286  1.4477  1.5342
 6734TIP3    H241694   1.680   0.253  13.005 -1.1887 -1.9744  0.6489
 6735TIP3   OH241695   5.538   2.143   6.141  0.4649  0.2823  0.0001
 6735TIP3    H141696   5.481   2.143   6.064 -0.6214  0.2599  0.7858
 6735TIP3    H241697   5.478   2.147   6.216  1.4842 -0.0303  0.8591
 6736TIP3   OH241698   2.482   0.763  12.718  0.2264 -0.1555 -0.5464
 6736TIP3    H141699   2.406   0.714  12.748  1.0169 -1.1976 -0.2353
 6736TIP3    H241700   2.521   0.708  12.650  1.7952 -0.5317  0.6262
 6737TIP3   OH241701   1.795   3.342  13.493 -0.3748  0.3063 -0.0460
 6737TIP3    H141702   1.854   3.412  13.521 -2.3219  2.2187 -0.5960
 6737TIP3    H241703   1.835   3.308  13.412  0.5593  0.7965  0.2034
 6738TIP3   OH241704   5.885   0.718  12.398  0.0917  0.2649  0.5096
 6738TIP3    H141705   5.921   0.807  12.402 -0.6795  0.5567  1.0755
 6738TIP3    H241706   5.926   0.673  12.472  0.3531  0.2009  0.3242
 6739TIP3   OH241707   5.604   1.626  17.171 -0.1674 -0.0641 -0.0316
 6739TIP3    H141708   5.644   1.584  17.248 -1.6853  1.7412  1.7859
 6739TIP3    H241709   5.584   1.553  17.113 -0.4285 -1.6346  1.9611
 6740TIP3   OH241710   1.727   3.050   3.011  0.9486  0.6134 -0.1714
 6740TIP3    H141711   1.822   3.056   3.000  0.8084  1.1726 -1.0893
 6740TIP3    H241712   1.703   2.968   2.967  1.2631 -0.6080  1.8553
 6741TIP3   OH241713   5.783   6.409  16.740 -0.3790 -0.0740  0.3213
 6741TIP3    H141714   5.863   6.416  16.688  0.6242 -4.8602  0.9344
 6741TIP3    H241715   5.731   6.341  16.696 -3.3925  1.7760  0.8732
 6742TIP3   OH241716   3.993   6.332   6.266  0.3215 -0.0876  0.0903
 6742TIP3    H141717   3.927   6.380   6.316 -0.6520 -1.8497  0.5350
 6742TIP3    H241718   3.949   6.251   6.240  1.3088  0.1079 -2.3113
 6743TIP3   OH241719   6.258   2.885  11.641  0.0308 -0.3514 -0.2183
 6743TIP3    H141720   6.251   2.793  11.668 -0.3802 -0.8081 -1.8200
 6743TIP3    H241721   6.340   2.915  11.679  0.6846 -1.6817 -0.5360
 6744TIP3   OH241722   3.169   5.381  16.582 -0.4957 -0.3207 -0.1279
 6744TIP3    H141723   3.175   5.451  16.648  1.5463 -0.1554 -0.4474
 6744TIP3    H241724   3.076   5.373  16.563 -0.6785  3.1342 -0.9566
 6745TIP3   OH241725   4.293   1.027   0.036 -0.7689  0.0649  0.3912
 6745TIP3    H141726   4.240   0.984   0.104 -0.4827  0.6970  1.0347
 6745TIP3    H241727   4.379   1.037   0.076 -0.1353 -1.0281 -0.6849
 6746TIP3   OH241728   5.865   4.238  14.523 -0.4360  0.0484 -0.0737
 6746TIP3    H141729   5.859   4.294  14.601 -0.9346 -0.2531  0.1033
 6746TIP3    H241730   5.888   4.299  14.453 -1.6572  0.5954 -0.0150
 6747TIP3   OH241731   5.265   5.557  13.807  0.2941 -0.3563 -0.0036
 6747TIP3    H141732   5.182   5.581  13.848  1.0539  0.8114  0.8915
 6747TIP3    H241733   5.315   5.514  13.877  0.4778 -0.9988 -0.5199
 6748TIP3   OH241734   4.916   1.501  12.581 -0.7077  0.5095  0.5225
 6748TIP3    H141735   4.851   1.469  12.643 -1.8844  4.7797  1.7225
 6748TIP3    H241736   4.999   1.493  12.627 -0.7797 -1.8397  0.2946
 6749TIP3   OH241737   6.645   3.815  14.858 -0.4458  0.6527 -0.0271
 6749TIP3    H141738   6.691   3.779  14.782  1.4911  0.9940  0.9706
 6749TIP3    H241739   6.554   3.823  14.828 -0.3344 -2.1076 -1.3134
 6750TIP3   OH241740   1.228   6.113   1.702  0.8417  0.2482 -0.0846
 6750TIP3    H141741   1.270   6.164   1.633 -0.8275  0.4697 -0.9552
 6750TIP3    H241742   1.185   6.041   1.657  2.5794 -1.5903  1.0766
 6751TIP3   OH241743   5.030   1.944  14.356  0.4859  0.3474 -0.3186
 6751TIP3    H141744   4.937   1.930  14.339  0.6490 -1.5531  0.3116
 6751TIP3    H241745   5.074   1.900  14.283  0.9408 -0.4946  0.4587
 6752TIP3   OH241746   6.138   4.472   3.951  0.8024  0.1144 -0.2423
 6752TIP3    H141747   6.071   4.422   3.904  0.6941  3.7439 -4.2001
 6752TIP3    H241748   6.219   4.453   3.903  1.7066 -0.1269  1.3319
 6753TIP3   OH241749   1.299   5.457  15.030 -0.3129  0.0777 -0.1120
 6753TIP3    H141750   1.242   5.460  14.953 -0.2822 -0.0977 -0.1430
 6753TIP3    H241751   1.367   5.522  15.012 -1.3931  1.4307  0.6522
 6754TIP3   OH241752   4.392   3.000   0.892  0.7024 -0.0478  0.3716
 6754TIP3    H141753   4.425   3.090   0.895 -0.8929  0.5336  0.8748
 6754TIP3    H241754   4.380   2.982   0.799  0.1970  0.5669  0.3176
 6755TIP3   OH241755   2.701   6.370   1.068 -0.0111 -0.1454 -0.0165
 6755TIP3    H141756   2.752   6.426   1.009 -0.4421  1.3040  0.9634
 6755TIP3    H241757   2.671   6.429   1.137 -3.2151 -0.9056 -0.6828
 6756TIP3   OH241758   3.328   4.767   5.203  0.4279 -0.2696 -0.1791
 6756TIP3    H141759   3.239   4.802   5.194  0.3747 -0.9506 -2.6131
 6756TIP3    H241760   3.318   4.673   5.189  1.4885 -0.3808 -0.1987
 6757TIP3   OH241761   4.780   2.940  15.567 -0.0434  0.2212  0.3137
 6757TIP3    H141762   4.825   2.856  15.564 -0.4961  0.0086 -0.6141
 6757TIP3    H241763   4.806   2.978  15.651  2.7349  0.6113 -0.6681
 6758TIP3   OH241764   1.625   5.110   3.848 -0.5704  0.6810 -0.4686
 6758TIP3    H141765   1.542   5.063   3.851 -0.0707 -0.2235 -0.5394
 6758TIP3    H241766   1.676   5.064   3.781  0.5099  0.3404  0.5664
 6759TIP3   OH241767   6.092   5.449   0.305 -0.0280 -0.3818 -0.8343
 6759TIP3    H141768   6.052   5.536   0.299  0.2167 -0.3259 -1.8324
 6759TIP3    H241769   6.088   5.416   0.215  2.1722 -0.3712 -0.9514
 6760TIP3   OH241770   1.176   6.205   2.371 -0.1686 -0.4429 -0.4892
 6760TIP3    H141771   1.141   6.294   2.373 -1.3196 -0.8941  1.2018
 6760TIP3    H241772   1.141   6.168   2.290 -0.1436  0.4696 -0.9284
 6761TIP3   OH241773   0.567   1.007  15.991  0.5907  0.0353  0.4055
 6761TIP3    H141774   0.597   0.956  15.916  0.5563  1.8609 -0.8863
 6761TIP3    H241775   0.491   1.055  15.958 -0.2410 -0.1737  2.0017
 6762TIP3   OH241776   0.111   0.012   3.551  0.4404  0.7418  0.6202
 6762TIP3    H141777   0.038   0.059   3.593  0.2622  0.1221  1.0156
 6762TIP3    H241778   0.143   0.072   3.485 -0.8276  0.8010  0.0305
 6763TIP3   OH241779   6.637   1.655   3.490  0.4645  0.2349 -0.3183
 6763TIP3    H141780   6.674   1.743   3.498 -1.7954  1.1767  0.0702
 6763TIP3    H241781   6.621   1.628   3.581  1.0118 -0.5370 -0.4430
 6764TIP3   OH241782   4.776   1.875  13.311 -0.6423 -0.1307 -1.1433
 6764TIP3    H141783   4.807   1.945  13.254 -1.2476 -0.0146 -1.3236
 6764TIP3    H241784   4.681   1.875  13.301 -0.7018 -0.5195 -0.6112
 6765TIP3   OH241785   6.507   0.139  12.609 -0.0150  0.1882  0.3068
 6765TIP3    H141786   6.569   0.204  12.641  0.2760 -0.0727  0.2722
 6765TIP3    H241787   6.443   0.129  12.680  1.8094 -1.9589  1.7196
 6766TIP3   OH241788   4.992   5.799  17.019 -0.0103 -0.6479  0.1756
 6766TIP3    H141789   4.945   5.786  17.101  1.6484  2.7500  1.7695
 6766TIP3    H241790   5.073   5.748  17.029 -0.8140 -2.0422 -0.3038
 6767TIP3   OH241791   2.261   2.248   2.925  0.1190  0.1207 -0.2760
 6767TIP3    H141792   2.285   2.337   2.903  0.7412  0.1785  0.5774
 6767TIP3    H241793   2.166   2.246   2.920  0.1060  0.8313 -0.2970
 6768TIP3   OH241794   4.602   5.792   3.911 -0.2400 -0.4673  0.0385
 6768TIP3    H141795   4.516   5.750   3.905 -0.3203 -0.3560  0.4473
 6768TIP3    H241796   4.619   5.824   3.822 -0.5149 -0.6967 -0.0975
 6769TIP3   OH241797   4.435   1.527   2.263 -0.3861  0.7164  0.4339
 6769TIP3    H141798   4.394   1.486   2.188  0.5990 -0.4294  0.5046
 6769TIP3    H241799   4.415   1.469   2.336 -0.6232  1.3817  0.9056
 6770TIP3   OH241800   1.202   0.598   3.033 -0.0957  0.0743  0.0857
 6770TIP3    H141801   1.195   0.523   2.974  1.3570  1.5988 -2.0973
 6770TIP3    H241802   1.157   0.669   2.987  1.3072  1.3658  0.6453
 6771TIP3   OH241803   0.081   3.517  13.917 -0.0168  0.6162  0.8447
 6771TIP3    H141804   0.023   3.487  13.987  1.3878  0.3330  1.9086
 6771TIP3    H241805   0.131   3.589  13.956  0.1627  1.0372 -0.1335
 6772TIP3   OH241806   5.868   4.181  15.477  0.4536  0.4590  0.3938
 6772TIP3    H141807   5.908   4.259  15.516 -0.8286  1.7830 -0.8869
 6772TIP3    H241808   5.928   4.156  15.406  0.1014  1.1914 -0.1700
 6773TIP3   OH241809   0.117   5.867   4.722  0.1552 -0.0974 -0.1580
 6773TIP3    H141810   0.104   5.808   4.797 -1.2782  0.5367  0.1109
 6773TIP3    H241811   0.085   5.952   4.753 -0.4320  0.1728 -1.4835
 6774TIP3   OH241812   0.649   2.224   0.489 -0.0986  0.3457  0.1914
 6774TIP3    H141813   0.648   2.154   0.424  0.4507 -0.5914  1.1759
 6774TIP3    H241814   0.658   2.304   0.437  0.9847 -0.4255 -0.8498
 6775TIP3   OH241815   0.145   1.741   3.436  0.4145  0.4124 -0.4490
 6775TIP3    H141816   0.071   1.773   3.487 -0.2448  0.6854 -1.5582
 6775TIP3    H241817   0.221   1.786   3.472 -0.1168  0.9930 -0.0576
 6776TIP3   OH241818   6.287   3.063  14.813 -0.2477 -0.5316 -0.2164
 6776TIP3    H141819   6.379   3.088  14.818 -0.5184  0.3255  0.7896
 6776TIP3    H241820   6.246   3.132  14.760 -0.7016  0.3462  1.2254
 6777TIP3   OH241821   6.346   4.684  15.756  0.7054  0.5825 -0.0125
 6777TIP3    H141822   6.316   4.671  15.846  0.5625 -0.2581 -0.1753
 6777TIP3    H241823   6.407   4.758  15.762  0.2346  0.9209  0.6706
 6778TIP3   OH241824   3.636   3.488   3.469  0.3083  0.1117  0.3844
 6778TIP3    H141825   3.721   3.494   3.426  0.6032 -0.6331  0.8609
 6778TIP3    H241826   3.577   3.453   3.402  0.3133  0.8565 -0.0203
 6779TIP3   OH241827   4.058   2.351   2.523 -0.2730 -0.2133  0.2457
 6779TIP3    H141828   4.141   2.322   2.486 -0.5549 -0.4537 -0.2100
 6779TIP3    H241829   4.018   2.272   2.557 -0.4070 -0.1325  0.2775
 6780TIP3   OH241830   1.403   6.777  11.049 -0.4971 -0.6677 -0.4225
 6780TIP3    H141831   1.475   6.749  10.992  1.6951  0.3703  1.7392
 6780TIP3    H241832   1.391   6.870  11.029 -0.4619 -0.5670  0.0108
 6781TIP3   OH241833   3.548   4.508   0.612 -0.2416  0.2259 -0.0930
 6781TIP3    H141834   3.622   4.459   0.577 -0.4482  2.2183 -3.4995
 6781TIP3    H241835   3.484   4.441   0.637  1.1442 -1.3570 -0.7330
 6782TIP3   OH241836   3.825   2.264   4.873  0.4385 -0.4755  0.0502
 6782TIP3    H141837   3.796   2.344   4.828  0.0352 -0.4051  0.4360
 6782TIP3    H241838   3.879   2.296   4.945 -0.0075 -0.5356  0.4126
 6783TIP3   OH241839   2.382   6.055   3.683  0.1380 -0.0461  0.1110
 6783TIP3    H141840   2.319   6.020   3.746  1.4142 -1.3896  0.6551
 6783TIP3    H241841   2.407   5.980   3.629  0.0136  0.8330 -1.2032
 6784TIP3   OH241842   3.573   1.666   2.738  0.0959  0.3023  0.0015
 6784TIP3    H141843   3.530   1.703   2.661  1.4037  2.3431  0.2395
 6784TIP3    H241844   3.559   1.730   2.807 -2.7208 -2.3478  2.0819
 6785TIP3   OH241845   1.680   1.940   4.321  0.0622  0.5447  0.0321
 6785TIP3    H141846   1.717   1.862   4.361 -0.5083  0.0375 -0.4216
 6785TIP3    H241847   1.740   1.961   4.249  0.4209  0.7463  0.3914
 6786TIP3   OH241848   2.227   2.548  11.989  0.1963  0.1984  0.2261
 6786TIP3    H141849   2.219   2.453  11.994 -0.7336  0.2519 -0.1935
 6786TIP3    H241850   2.163   2.574  11.923 -0.4516  1.2391  1.2519
 6787TIP3   OH241851   1.065   4.904   4.109  0.5503 -0.5161 -0.4451
 6787TIP3    H141852   1.012   4.947   4.176 -2.4971 -1.7872 -1.9507
 6787TIP3    H241853   1.128   4.851   4.159 -1.3753 -1.1306  1.4281
 6788TIP3   OH241854   5.047   4.415   0.619  0.9156  0.3697  0.9407
 6788TIP3    H141855   5.126   4.436   0.668  0.7847 -1.0580  1.7896
 6788TIP3    H241856   4.979   4.408   0.685  1.1713 -3.8609  0.9014
 6789TIP3   OH241857   0.234   0.146   3.021  0.5084 -0.5899 -0.2860
 6789TIP3    H141858   0.144   0.162   2.991  0.0310 -0.4064  1.1743
 6789TIP3    H241859   0.282   0.225   2.998  0.5988 -1.1686 -2.1617
 6790TIP3   OH241860   2.467   0.591  16.642 -0.2656 -0.7501  0.1057
 6790TIP3    H141861   2.444   0.504  16.610 -1.5901  0.5486 -2.6455
 6790TIP3    H241862   2.402   0.649  16.602  0.1896  1.4527  2.3993
 6791TIP3   OH241863   4.795   4.939  16.490  0.3587 -0.4155  0.5371
 6791TIP3    H141864   4.752   5.017  16.456  1.9239  0.6935  1.0851
 6791TIP3    H241865   4.822   4.963  16.579  0.2193 -1.8244  0.9757
 6792TIP3   OH241866   2.190   5.635   2.521 -0.3804  0.2770 -0.0435
 6792TIP3    H141867   2.235   5.577   2.461  0.6302  1.8035 -0.7889
 6792TIP3    H241868   2.222   5.610   2.608 -0.6786 -0.9028 -0.2703
 6793TIP3   OH241869   5.641   1.697  13.177  0.9216 -0.1978  1.1177
 6793TIP3    H141870   5.639   1.610  13.217  1.0559 -1.3600 -1.2893
 6793TIP3    H241871   5.696   1.686  13.099 -0.6286  1.5687 -0.2737
 6794TIP3   OH241872   0.254   4.639  13.323 -0.1676 -0.3111 -0.3079
 6794TIP3    H141873   0.333   4.613  13.276 -0.4295  1.6087 -1.9197
 6794TIP3    H241874   0.254   4.587  13.402  1.9231 -1.4323 -1.0145
 6795TIP3   OH241875   4.095   2.535   3.396  0.1114 -0.0969 -0.7884
 6795TIP3    H141876   4.163   2.492   3.344  1.0433  1.6037 -1.0181
 6795TIP3    H241877   4.101   2.495   3.482  1.6056  0.2152 -0.7290
 6796TIP3   OH241878   6.543   3.053   5.743  0.2898  0.3364 -0.5274
 6796TIP3    H141879   6.603   3.077   5.814  0.0039 -0.1461 -0.1206
 6796TIP3    H241880   6.582   2.974   5.704 -2.6239 -3.0731  2.9810
 6797TIP3   OH241881   2.961   4.046   3.844  0.4028 -0.3619  0.3477
 6797TIP3    H141882   2.895   4.080   3.783  0.4404 -0.0895  0.4558
 6797TIP3    H241883   2.910   4.019   3.921  0.4479  0.1385  0.5553
 6798TIP3   OH241884   3.764   2.214   0.774  0.2959 -0.4382  0.3614
 6798TIP3    H141885   3.841   2.196   0.828  1.2857 -0.5287 -1.0736
 6798TIP3    H241886   3.728   2.295   0.811 -0.4658 -1.7879  2.7136
 6799TIP3   OH241887   6.373   2.409   0.540 -1.0987  0.6390 -0.2448
 6799TIP3    H141888   6.413   2.419   0.453  0.1789 -0.0790  0.2398
 6799TIP3    H241889   6.448   2.406   0.600 -1.8360 -1.3814  0.6336
 6800TIP3   OH241890   5.696   6.548  14.071  0.3451 -0.4298 -0.1796
 6800TIP3    H141891   5.728   6.475  14.124 -2.7759 -1.0059  1.0617
 6800TIP3    H241892   5.644   6.601  14.133  2.0311  2.5127 -1.2058
 6801TIP3   OH241893   6.146   1.674  12.461  0.0220 -0.2816 -0.6276
 6801TIP3    H141894   6.145   1.680  12.366 -0.6543 -1.7103 -0.7367
 6801TIP3    H241895   6.216   1.732  12.489 -1.4782  2.1729 -1.8143
 6802TIP3   OH241896   5.199   1.867  15.707  0.1765  0.0407  0.3732
 6802TIP3    H141897   5.106   1.843  15.712  0.3490 -0.2860  2.5730
 6802TIP3    H241898   5.245   1.783  15.706  0.3966  0.1627 -2.8421
 6803TIP3   OH241899   3.115   6.029  12.216  0.6497 -0.0011 -0.0378
 6803TIP3    H141900   3.046   6.025  12.283  0.6019  1.1979 -0.0068
 6803TIP3    H241901   3.163   6.110  12.236 -0.3972  1.2553 -2.4340
 6804TIP3   OH241902   4.775   0.371   4.932 -0.0363 -0.5005  0.1593
 6804TIP3    H141903   4.832   0.412   4.997 -0.4218  2.2711 -1.1965
 6804TIP3    H241904   4.686   0.388   4.964 -0.2477  1.4785 -1.3806
 6805TIP3   OH241905   3.928   2.152  13.265  0.0352 -0.1925  0.2862
 6805TIP3    H141906   3.967   2.135  13.180 -0.3449 -0.1847  0.1059
 6805TIP3    H241907   3.841   2.111  13.260 -0.5205  0.9673  0.1822
 6806TIP3   OH241908   2.650   6.398   5.252 -0.5399  0.6338 -0.1151
 6806TIP3    H141909   2.597   6.417   5.329 -0.9988 -0.0773 -0.2515
 6806TIP3    H241910   2.668   6.304   5.258 -1.3795  0.3901 -1.3848
 6807TIP3   OH241911   1.288   1.081   0.794 -0.0793  0.1172 -0.0622
 6807TIP3    H141912   1.237   1.127   0.727 -0.3453  1.1520  0.8316
 6807TIP3    H241913   1.225   1.061   0.863  0.1312 -1.2056 -0.2500
 6808TIP3   OH241914   2.828   0.584   0.371 -0.3371 -0.6116  0.0532
 6808TIP3    H141915   2.870   0.543   0.296  0.7759 -0.6100  0.6636
 6808TIP3    H241916   2.736   0.557   0.365 -0.0254 -1.5387 -0.6752
 6809TIP3   OH241917   6.412   3.657  11.964 -0.4277 -0.7397  0.0516
 6809TIP3    H141918   6.500   3.687  11.939  0.0627 -0.2593  2.2491
 6809TIP3    H241919   6.359   3.736  11.965 -0.3302 -0.6795  0.9407
 6810TIP3   OH241920   0.496   3.087  12.485 -0.1671 -0.2994 -0.1190
 6810TIP3    H141921   0.471   3.115  12.397  0.6298 -0.1513 -0.2946
 6810TIP3    H241922   0.431   3.128  12.543  0.4936  1.2376 -0.4478
 6811TIP3   OH241923   3.177   2.510   5.541  0.5372  0.5492 -0.0771
 6811TIP3    H141924   3.189   2.425   5.583 -4.3918  0.4873  1.4136
 6811TIP3    H241925   3.172   2.572   5.614  1.6472  1.8048 -1.0549
 6812TIP3   OH241926   2.541   4.605   3.741  0.0562  0.4890 -0.1683
 6812TIP3    H141927   2.494   4.681   3.777 -0.1710  0.3978 -0.2718
 6812TIP3    H241928   2.629   4.613   3.776 -0.2211  0.2832  0.5886
 6813TIP3   OH241929   2.492   5.483  16.311 -0.4118  0.1801 -0.3292
 6813TIP3    H141930   2.509   5.460  16.403 -0.1075  0.3435 -0.3424
 6813TIP3    H241931   2.426   5.552  16.315 -1.1452 -0.5216 -0.2804
 6814TIP3   OH241932   3.403   2.748  12.605  0.1106  0.0044 -0.5492
 6814TIP3    H141933   3.445   2.799  12.675  1.5661 -0.6180 -0.9475
 6814TIP3    H241934   3.313   2.780  12.603  0.5496  1.3592  0.3502
 6815TIP3   OH241935   1.823   3.554   0.625 -0.0554 -0.1155 -0.4649
 6815TIP3    H141936   1.901   3.513   0.662 -0.2374  0.0035  0.0518
 6815TIP3    H241937   1.853   3.594   0.543  0.3131 -0.5122 -0.5244
 6816TIP3   OH241938   4.706   0.936   2.030  0.5629  0.1089 -0.2868
 6816TIP3    H141939   4.778   0.903   2.084  0.7516 -0.3066 -0.7980
 6816TIP3    H241940   4.639   0.868   2.034 -0.0822  0.7684  0.7123
 6817TIP3   OH241941   2.531   2.152  16.009 -0.3942  0.0834  0.2326
 6817TIP3    H141942   2.622   2.123  15.997 -0.1626  0.8101  0.1748
 6817TIP3    H241943   2.538   2.247  16.018 -0.8807 -0.1147  2.9668
 6818TIP3   OH241944   5.775   2.454   4.320 -0.1172  0.0831  0.2519
 6818TIP3    H141945   5.841   2.423   4.259 -0.7761 -1.3247  0.2487
 6818TIP3    H241946   5.748   2.376   4.369 -0.8670  0.8711  1.1264
 6819TIP3   OH241947   4.433   5.595  11.979 -0.1061 -0.1182  0.6615
 6819TIP3    H141948   4.349   5.642  11.975 -0.5047 -0.8749  0.1938
 6819TIP3    H241949   4.496   5.658  11.945 -0.7865 -0.2292 -0.8679
 6820TIP3   OH241950   5.637   0.241  12.869  0.5098  0.3474  0.7553
 6820TIP3    H141951   5.576   0.234  12.795  0.2784 -2.3833  1.1701
 6820TIP3    H241952   5.660   0.151  12.890  2.1342  1.1938  2.7490
 6821TIP3   OH241953   1.789   6.260   2.946 -0.3300 -0.4395  0.5439
 6821TIP3    H141954   1.772   6.300   2.861 -0.6610  0.8826  1.2252
 6821TIP3    H241955   1.780   6.166   2.930 -1.1826 -0.1597 -0.7008
 6822TIP3   OH241956   2.664   1.534   3.992 -0.3859  0.1004  0.4692
 6822TIP3    H141957   2.726   1.602   3.963  0.2301 -1.3195 -1.6553
 6822TIP3    H241958   2.698   1.453   3.954 -2.4293 -1.0283  0.9800
 6823TIP3   OH241959   6.681   1.876  11.907 -0.1986  0.5355  0.0517
 6823TIP3    H141960   6.760   1.929  11.923 -0.3790  0.8655 -0.1573
 6823TIP3    H241961   6.715   1.792  11.876  0.0566  0.8314 -0.4769
 6824TIP3   OH241962   3.892   6.225   1.658 -0.2093 -0.5781  0.0614
 6824TIP3    H141963   3.921   6.207   1.569 -1.2457 -0.2791 -0.3487
 6824TIP3    H241964   3.957   6.287   1.692  0.8634 -1.6250 -0.0584
 6825TIP3   OH241965   2.735   3.409  11.508  0.2454  0.0229 -1.0026
 6825TIP3    H141966   2.754   3.407  11.414  3.6323  0.6032 -0.3939
 6825TIP3    H241967   2.819   3.431  11.549 -1.3771  0.6917  2.1133
 6826TIP3   OH241968   1.520   6.799   4.799  0.4771 -0.8255 -0.1388
 6826TIP3    H141969   1.428   6.827   4.807  0.5159 -1.3010  2.5141
 6826TIP3    H241970   1.567   6.877   4.771 -0.6800 -0.5139 -1.2876
 6827TIP3   OH241971   4.708   3.228   5.969  0.1454  0.1776  0.1940
 6827TIP3    H141972   4.796   3.242   5.934 -0.0573  2.3836  0.5100
 6827TIP3    H241973   4.721   3.174   6.047  0.8054 -2.9901 -2.0267
 6828TIP3   OH241974   5.490   6.109  15.885  0.1856 -0.2460  0.2937
 6828TIP3    H141975   5.547   6.178  15.854 -1.2097 -0.2717 -2.4619
 6828TIP3    H241976   5.418   6.155  15.929 -0.0278  0.0036 -0.3118
 6829TIP3   OH241977   1.440   1.951  11.858 -1.0223  0.1337  0.2042
 6829TIP3    H141978   1.436   1.875  11.801 -1.7543 -0.2420  0.7430
 6829TIP3    H241979   1.471   2.022  11.802 -1.2266 -0.3530 -0.5304
 6830TIP3   OH241980   5.753   0.295   2.007  0.6194 -0.3461 -0.9018
 6830TIP3    H141981   5.683   0.314   1.944  0.8241  1.3350 -0.6500
 6830TIP3    H241982   5.813   0.369   1.999  0.5135  0.0600  1.4366
 6831TIP3   OH241983   6.575   1.724   6.403 -0.7332  0.0859 -0.6714
 6831TIP3    H141984   6.540   1.639   6.379 -0.2641 -0.1767 -0.4283
 6831TIP3    H241985   6.577   1.723   6.499  1.0828 -0.3759 -0.6978
 6832TIP3   OH241986   0.615   5.154  10.646  0.3126  0.3729 -0.6625
 6832TIP3    H141987   0.581   5.244  10.645  0.4983  0.4993  1.8876
 6832TIP3    H241988   0.693   5.159  10.701 -0.5215 -1.6500  0.7248
 6833TIP3   OH241989   0.462   6.658   2.587 -0.3260 -0.3363 -0.2612
 6833TIP3    H141990   0.436   6.663   2.679  0.0039  1.2095 -0.2449
 6833TIP3    H241991   0.402   6.717   2.542  0.6288  0.2443 -0.7866
 6834TIP3   OH241992   5.971   6.340  15.621  0.3065 -0.1344  0.0903
 6834TIP3    H141993   6.040   6.278  15.643 -1.1636 -1.2936  1.5112
 6834TIP3    H241994   5.957   6.391  15.701 -1.9237 -1.3329  0.5055
 6835TIP3   OH241995   1.431   0.770  11.789  0.3234  0.3051  0.0595
 6835TIP3    H141996   1.505   0.804  11.839  0.6889 -1.2745  0.6252
 6835TIP3    H241997   1.429   0.676  11.809 -0.7447  0.0019 -1.3436
 6836TIP3   OH241998   5.870   0.218  13.759  0.0651  0.1899  0.3222
 6836TIP3    H141999   5.951   0.199  13.711 -0.7456 -1.3000 -0.5008
 6836TIP3    H242000   5.851   0.138  13.808  0.1389  1.2270  2.0702
 6837TIP3   OH242001   0.233   2.225  11.170 -0.0437  0.6385  0.2214
 6837TIP3    H142002   0.141   2.252  11.162  0.1827  0.8456 -1.8439
 6837TIP3    H242003   0.235   2.136  11.135  0.5609  0.6433  0.2399
 6838TIP3   OH242004   5.916   6.503  13.721  0.1205 -0.2864  0.0315
 6838TIP3    H142005   5.934   6.431  13.660 -1.1435 -1.7000  1.2596
 6838TIP3    H242006   5.837   6.544  13.686  1.1928  0.9200 -1.0103
 6839TIP3   OH242007   2.426   5.571   3.829  0.2706  0.1956  0.3775
 6839TIP3    H142008   2.376   5.651   3.842 -1.5601 -0.6045 -1.6001
 6839TIP3    H242009   2.438   5.564   3.734  1.2908 -1.3601  0.5935
 6840TIP3   OH242010   5.372   5.006  16.289  0.0767  0.0790  0.6630
 6840TIP3    H142011   5.432   5.037  16.221  2.1673 -2.1322  1.4251
 6840TIP3    H242012   5.305   4.957  16.241  0.9197 -0.5198  0.0811
 6841TIP3   OH242013   5.217   0.551   0.957  0.2165 -0.1365 -0.8040
 6841TIP3    H142014   5.258   0.595   0.883  0.0392 -0.6067 -1.1802
 6841TIP3    H242015   5.198   0.463   0.926  0.3868 -0.4234 -0.1167
 6842TIP3   OH242016   3.694   3.944  15.607 -0.1403 -0.3135  0.0561
 6842TIP3    H142017   3.666   3.861  15.646 -1.6182 -0.6342 -1.6026
 6842TIP3    H242018   3.696   4.006  15.680 -0.4519 -1.4663  1.0535
 6843TIP3   OH242019   2.708   1.961   2.087 -0.4282 -0.0993  0.2041
 6843TIP3    H142020   2.758   2.009   2.153  2.2378 -0.2547 -1.6205
 6843TIP3    H242021   2.701   2.022   2.014 -0.9921 -0.8764 -0.3963
 6844TIP3   OH242022   5.083   4.166  10.181 -0.2151 -0.1869 -0.1824
 6844TIP3    H142023   4.988   4.161  10.192  0.0216 -0.2046  1.9963
 6844TIP3    H242024   5.097   4.236  10.117 -1.5105  2.6477  2.5422
 6845TIP3   OH242025   5.141   0.939  16.800 -0.1990 -0.6714  0.3223
 6845TIP3    H142026   5.110   0.876  16.735  0.4800 -0.5403 -0.1389
 6845TIP3    H242027   5.063   0.962  16.850 -0.8465 -0.3601 -0.8089
 6846TIP3   OH242028   3.183   2.360  13.250 -0.1928 -0.0510 -0.5489
 6846TIP3    H142029   3.173   2.265  13.245  0.3308 -0.0540 -1.7035
 6846TIP3    H242030   3.148   2.393  13.167 -0.0928  0.7356 -0.2896
 6847TIP3   OH242031   1.947   5.973   0.661  0.0415 -1.1563  0.6439
 6847TIP3    H142032   1.859   5.978   0.699  0.9449  2.7031  2.4203
 6847TIP3    H242033   2.005   5.958   0.736  0.9892 -3.2825 -0.4615
 6848TIP3   OH242034   0.216   0.054  14.497  0.6116 -0.5982 -0.1630
 6848TIP3    H142035   0.224  -0.027  14.447 -0.9198 -1.0353  0.2803
 6848TIP3    H242036   0.147   0.037  14.561  0.6015  0.8908  0.2530
 6849TIP3   OH242037   4.802   5.724  10.567  0.1498  0.2660 -0.2684
 6849TIP3    H142038   4.836   5.674  10.493 -1.4412  0.7228 -1.3467
 6849TIP3    H242039   4.809   5.815  10.540  0.8909  0.5233  0.7459
 6850TIP3   OH242040   2.570   4.796   1.136  0.3357  0.3536 -0.6140
 6850TIP3    H142041   2.585   4.889   1.156  2.8409  0.0480 -0.8387
 6850TIP3    H242042   2.489   4.774   1.181  1.5327  1.8110  2.3831
 6851TIP3   OH242043   4.014   4.093   4.507  0.1790  0.3631 -0.2970
 6851TIP3    H142044   4.097   4.098   4.459 -0.7461  1.1364 -1.8608
 6851TIP3    H242045   4.007   4.001   4.533  0.9609  0.0399 -1.1941
 6852TIP3   OH242046   2.066   3.881   1.311 -0.2824  0.6180 -0.3557
 6852TIP3    H142047   2.088   3.944   1.380 -1.5812  1.4441 -0.6673
 6852TIP3    H242048   1.970   3.877   1.313 -0.2165 -1.3283 -0.3741
 6853TIP3   OH242049   3.037   6.096  11.133 -0.0544  0.1563  0.2477
 6853TIP3    H142050   3.043   6.090  11.038 -0.6009  1.7005  0.0959
 6853TIP3    H242051   2.943   6.103  11.151  0.1646  2.4615  0.6909
 6854TIP3   OH242052   5.440   1.399   0.013 -0.9029 -0.1137  0.5088
 6854TIP3    H142053   5.401   1.362   0.092 -1.5418  1.1046  0.7666
 6854TIP3    H242054   5.384   1.366  -0.058 -1.0579 -0.2088  0.6734
 6855TIP3   OH242055   3.228   1.117  12.540  0.3125  0.2072  1.1785
 6855TIP3    H142056   3.307   1.069  12.516 -0.9558 -0.6008 -1.6102
 6855TIP3    H242057   3.162   1.050  12.556 -1.2678  0.8851 -1.9917
 6856TIP3   OH242058   0.555   6.557  11.669 -0.1766 -0.4840 -0.3846
 6856TIP3    H142059   0.578   6.554  11.576  1.7244 -1.7376  0.0816
 6856TIP3    H242060   0.624   6.506  11.712 -2.2500 -1.8134  1.4735
 6857TIP3   OH242061   4.639   3.113  17.164 -0.1246  0.0949  0.1594
 6857TIP3    H142062   4.679   3.200  17.166 -0.8010  0.3879  1.9097
 6857TIP3    H242063   4.605   3.104  17.075  0.6198  1.2976 -0.2660
 6858TIP3   OH242064   2.874   2.491   6.262 -0.2351 -0.1670 -0.0959
 6858TIP3    H142065   2.836   2.403   6.269 -1.5845  0.5163  1.4070
 6858TIP3    H242066   2.800   2.550   6.274  0.9065  1.1915  0.4264
 6859TIP3   OH242067   0.560   3.064   3.672 -0.3354 -0.0928 -0.7929
 6859TIP3    H142068   0.575   2.974   3.701  2.5133  0.9361  1.1604
 6859TIP3    H242069   0.515   3.106   3.746  0.0978  0.5976 -0.9197
 6860TIP3   OH242070   1.701   0.013  14.431  0.4903  0.4099  0.0837
 6860TIP3    H142071   1.713  -0.019  14.342 -1.4469 -0.8574  0.2345
 6860TIP3    H242072   1.776  -0.021  14.480 -0.7507 -2.7519 -0.0923
 6861TIP3   OH242073   1.557   2.249  13.572 -0.2850 -0.2432  0.5009
 6861TIP3    H142074   1.648   2.223  13.585 -0.2469  1.0589  3.0365
 6861TIP3    H242075   1.506   2.176  13.607 -0.2232 -0.7926 -0.5450
 6862TIP3   OH242076   3.876   4.654   1.525  0.6296 -0.2424  0.4126
 6862TIP3    H142077   3.827   4.595   1.468 -2.6914  2.7943 -0.1077
 6862TIP3    H242078   3.881   4.608   1.609  0.0865 -2.1551 -0.5819
 6863TIP3   OH242079   1.303   0.255   0.148  0.3207 -0.2954  0.3682
 6863TIP3    H142080   1.311   0.262   0.243 -0.4245 -1.6922  0.5330
 6863TIP3    H242081   1.228   0.198   0.133 -0.7195  1.3774 -1.0822
 6864TIP3   OH242082   5.851   6.109  12.140  0.2500  0.0227 -0.1635
 6864TIP3    H142083   5.898   6.038  12.096 -0.0483 -0.9387  1.0151
 6864TIP3    H242084   5.797   6.149  12.072 -0.4982 -1.6848 -0.6017
 6865TIP3   OH242085   5.068   3.207  17.243 -0.2827 -0.0637 -0.5683
 6865TIP3    H142086   5.141   3.208  17.181 -0.0594  1.1810 -0.2955
 6865TIP3    H242087   5.018   3.128  17.220  1.0655 -0.8544 -0.8412
 6866TIP3   OH242088   2.227   6.135  13.765 -0.9967  0.5028  1.1067
 6866TIP3    H142089   2.290   6.118  13.695 -1.3472  1.6730  0.4901
 6866TIP3    H242090   2.271   6.105  13.845 -0.7553 -1.2197  0.3552
 6867TIP3   OH242091   4.873   3.861  10.903  0.0509  0.2859  0.3384
 6867TIP3    H142092   4.846   3.834  10.815  1.6910  0.1745 -0.1536
 6867TIP3    H242093   4.888   3.955  10.897  3.1364 -0.1939 -0.3418
 6868TIP3   OH242094   6.466   0.744   3.981 -0.2989  0.1049 -0.0490
 6868TIP3    H142095   6.412   0.822   3.970  0.1269  0.3114 -0.7001
 6868TIP3    H242096   6.410   0.682   4.028 -0.2476  1.2168  1.5437
 6869TIP3   OH242097   4.989   6.621   2.456  0.5090  0.1983  0.2824
 6869TIP3    H142098   4.946   6.573   2.385  2.0355  1.0265 -1.2255
 6869TIP3    H242099   5.082   6.600   2.446  0.5916 -1.1481  3.1796
 6870TIP3   OH242100   3.101   5.398  14.431 -0.5222 -0.1429 -0.4530
 6870TIP3    H142101   3.068   5.481  14.464 -0.4731  0.3768 -1.6878
 6870TIP3    H242102   3.025   5.339  14.434 -0.6056 -0.0057  0.2272
 6871TIP3   OH242103   0.570   3.200  12.955 -0.3602  0.2081 -0.3075
 6871TIP3    H142104   0.611   3.214  13.039 -2.0460  1.9131  0.2791
 6871TIP3    H242105   0.536   3.110  12.959 -1.3339  0.6255  1.2471
 6872TIP3   OH242106   3.733   0.384   0.614 -0.0705  0.1705  0.3374
 6872TIP3    H142107   3.788   0.408   0.540 -0.9944 -1.8887 -1.0409
 6872TIP3    H242108   3.649   0.427   0.597  0.0438  0.5721  0.7560
 6873TIP3   OH242109   4.727   3.664   3.312  0.6311 -0.3716 -0.0834
 6873TIP3    H142110   4.659   3.642   3.375  0.1346 -2.7663 -1.4067
 6873TIP3    H242111   4.715   3.757   3.294  0.9571  0.4314  3.5237
 6874TIP3   OH242112   6.473   5.723   6.938  0.3605  0.0450 -0.4651
 6874TIP3    H142113   6.558   5.685   6.960  1.3846  1.2336 -2.2575
 6874TIP3    H242114   6.433   5.662   6.876  1.3626  1.0857 -2.1837
 6875TIP3   OH242115   6.605   1.884  15.260  0.2061  0.2306  0.2514
 6875TIP3    H142116   6.659   1.962  15.244  0.4383 -0.0553 -0.3571
 6875TIP3    H242117   6.660   1.829  15.316 -0.0784  0.6380  0.9318
 6876TIP3   OH242118   2.683   6.447  13.563 -0.1527  0.2721  0.0934
 6876TIP3    H142119   2.601   6.467  13.519  0.3106  1.2072 -0.3710
 6876TIP3    H242120   2.667   6.365  13.609 -1.7505  1.0889  1.0617
 6877TIP3   OH242121   0.511   3.657   5.155  0.5584  0.3011  0.1521
 6877TIP3    H142122   0.420   3.678   5.136  0.9339  3.4523  1.5591
 6877TIP3    H242123   0.559   3.685   5.077  0.3595 -1.1450 -0.4950
 6878TIP3   OH242124   5.958   5.844   4.360  0.2087  0.1590 -0.5048
 6878TIP3    H142125   5.866   5.871   4.355  0.3962  0.7044 -1.0162
 6878TIP3    H242126   5.970   5.786   4.285  0.1698 -0.2785 -0.1793
 6879TIP3   OH242127   5.836   0.454  12.273  0.0193 -0.6103 -0.7957
 6879TIP3    H142128   5.846   0.549  12.285 -2.1396 -0.5478  0.7951
 6879TIP3    H242129   5.830   0.443  12.179 -0.6512  0.9456 -0.9569
 6880TIP3   OH242130   0.024   1.785   0.055 -0.3478  0.0735  0.3318
 6880TIP3    H142131   0.067   1.857   0.100 -1.5934  0.3043  1.1674
 6880TIP3    H242132   0.010   1.816  -0.034  1.5027 -0.1308 -0.0530
 6881TIP3   OH242133   5.850   4.844  14.052  0.4718  0.1971 -0.1884
 6881TIP3    H142134   5.867   4.929  14.011  0.5661  1.1643  1.7779
 6881TIP3    H242135   5.772   4.859  14.105 -0.7633 -1.5406 -1.4967
 6882TIP3   OH242136   3.709   4.290  12.455  0.1005 -0.6712  0.1478
 6882TIP3    H142137   3.770   4.301  12.527 -0.7885  0.1765  0.7877
 6882TIP3    H242138   3.687   4.379  12.427  0.3716 -0.9822 -1.1188
 6883TIP3   OH242139   3.888   4.515  14.590 -0.3591  0.2322 -0.1809
 6883TIP3    H142140   3.888   4.445  14.525 -0.8054 -1.1050  1.2229
 6883TIP3    H242141   3.800   4.552  14.585 -0.3182  0.2836 -0.5051
 6884TIP3   OH242142   6.027   1.932   1.938 -0.1908 -0.1565 -0.0384
 6884TIP3    H142143   6.061   1.852   1.977 -0.0171  0.9181  2.1119
 6884TIP3    H242144   6.100   1.994   1.944 -0.2135  0.1060 -1.9742
 6885TIP3   OH242145   0.143   5.927   2.798  0.1420  0.5654 -0.4026
 6885TIP3    H142146   0.188   5.847   2.823 -0.8394  0.7675  2.1631
 6885TIP3    H242147   0.207   5.997   2.811  0.1456  0.4875 -0.0115
 6886TIP3   OH242148   0.946   3.264  10.185  0.7220 -0.5016 -0.0032
 6886TIP3    H142149   0.986   3.350  10.201 -0.9994  0.5373 -1.0305
 6886TIP3    H242150   0.922   3.232  10.272  0.4301  0.5499  0.3191
 6887TIP3   OH242151   1.418   6.103  16.442 -0.0967  0.3797  0.2648
 6887TIP3    H142152   1.362   6.177  16.467 -3.2162 -2.1759  1.0708
 6887TIP3    H242153   1.368   6.057  16.375  1.1211 -1.8738  0.8834
 6888TIP3   OH242154   4.267   5.533   1.820 -0.3604  0.5459  0.2633
 6888TIP3    H142155   4.353   5.575   1.832  0.5829 -1.0847 -0.5620
 6888TIP3    H242156   4.220   5.591   1.760  1.0166  0.3060 -1.0800
 6889TIP3   OH242157   6.036   1.257   2.613  0.0811 -0.2703 -0.3507
 6889TIP3    H142158   6.104   1.324   2.610 -0.5969  0.4066 -0.6447
 6889TIP3    H242159   5.955   1.305   2.629 -0.2438 -1.1413  0.6664
 6890TIP3   OH242160   2.302   4.795  10.682  0.0682  0.1651 -0.2329
 6890TIP3    H142161   2.370   4.798  10.615  1.3217 -1.1671  0.9289
 6890TIP3    H242162   2.294   4.702  10.704 -0.0938  0.6015  1.6497
 6891TIP3   OH242163   0.406   3.079   4.890  0.3446 -0.6539 -0.4691
 6891TIP3    H142164   0.312   3.081   4.907  0.9620  2.9419  3.0661
 6891TIP3    H242165   0.414   3.094   4.795 -2.6062 -2.9048 -1.1444
 6892TIP3   OH242166   6.286   4.157   1.991 -0.5964 -0.1012 -0.0199
 6892TIP3    H142167   6.322   4.240   2.022  2.0319 -0.2160 -2.5148
 6892TIP3    H242168   6.252   4.176   1.904 -1.7488 -1.2260  0.1673
 6893TIP3   OH242169   3.117   1.161  11.447 -0.3641  0.4492 -0.1351
 6893TIP3    H142170   3.083   1.242  11.485  1.7464  0.5248  1.7087
 6893TIP3    H242171   3.090   1.092  11.509  3.0125  0.5632  1.5750
 6894TIP3   OH242172   4.274   0.124  14.089 -0.1916 -0.4786  0.5236
 6894TIP3    H142173   4.188   0.164  14.072 -0.6492 -2.4541 -2.0529
 6894TIP3    H242174   4.261   0.074  14.170 -1.9970 -2.0796 -0.6986
 6895TIP3   OH242175   5.277   5.170  15.843  0.4204 -0.0881  0.2347
 6895TIP3    H142176   5.227   5.179  15.761 -0.3256 -0.6305  0.6173
 6895TIP3    H242177   5.212   5.137  15.906  0.6038  1.8105  1.4415
 6896TIP3   OH242178   1.668   6.423   2.502 -0.8211 -0.1209  0.8857
 6896TIP3    H142179   1.607   6.444   2.432  0.2682 -2.3501 -0.7979
 6896TIP3    H242180   1.614   6.414   2.580 -2.3936 -0.2360 -0.1993
 6897TIP3   OH242181   6.112   6.027   0.390 -0.4107  0.3188  0.5874
 6897TIP3    H142182   6.036   5.972   0.373 -0.3152  0.9343 -2.0119
 6897TIP3    H242183   6.174   6.005   0.320  0.4413  2.2583  0.7047
 6898TIP3   OH242184   4.090   6.199  14.895  0.4322 -0.1093 -0.4191
 6898TIP3    H142185   4.150   6.170  14.826 -0.0679 -0.8920 -0.5266
 6898TIP3    H242186   4.078   6.293  14.878 -1.1767 -0.6690 -2.5468
 6899TIP3   OH242187   3.674   2.710  11.770  0.3200  0.0504 -0.1739
 6899TIP3    H142188   3.620   2.673  11.840 -0.6531 -1.1579 -1.5229
 6899TIP3    H242189   3.617   2.709  11.693  1.2540  1.6963 -0.9128
 6900TIP3   OH242190   4.623   6.726   4.658  0.5816 -0.2949 -0.2673
 6900TIP3    H142191   4.560   6.699   4.724  2.0500  0.6513  1.5580
 6900TIP3    H242192   4.573   6.786   4.602 -0.6710 -1.0933 -0.0345
 6901TIP3   OH242193   3.640   4.256   2.262 -0.2202 -0.1420 -0.7203
 6901TIP3    H142194   3.619   4.304   2.182 -1.4821  0.0271 -0.3078
 6901TIP3    H242195   3.678   4.322   2.320  2.7317 -0.7300 -1.9443
 6902TIP3   OH242196   2.702   3.508  14.048 -0.5905 -0.2764 -0.3806
 6902TIP3    H142197   2.627   3.545  14.096 -0.1019 -0.0515  0.2150
 6902TIP3    H242198   2.776   3.562  14.074  0.2868 -2.1527  1.0950
 6903TIP3   OH242199   6.070   6.734  15.809  0.8130 -0.0877 -0.2587
 6903TIP3    H142200   6.020   6.715  15.889  2.2684  1.3342  1.0251
 6903TIP3    H242201   6.130   6.660  15.801 -0.7656 -1.3084 -1.2623
 6904TIP3   OH242202   5.779   0.840  15.999 -1.0343  0.0573  0.1219
 6904TIP3    H142203   5.828   0.918  15.970 -1.3181 -0.5435 -2.0257
 6904TIP3    H242204   5.821   0.815  16.081 -0.3076  1.8966  0.3472
 6905TIP3   OH242205   2.166   3.102  17.104  0.6104  0.1338  0.1045
 6905TIP3    H142206   2.174   3.107  17.009 -1.4378 -2.2348 -0.2355
 6905TIP3    H242207   2.103   3.031  17.120  0.9846  0.4134  3.2258
 6906TIP3   OH242208   5.303   5.289   0.477  0.0379 -0.0609 -0.1658
 6906TIP3    H142209   5.345   5.357   0.529  0.2678 -1.2059  1.1818
 6906TIP3    H242210   5.332   5.305   0.388  2.7509 -0.3652  0.6193
 6907TIP3   OH242211   3.622   0.882  16.679  0.6879 -0.0539  0.1824
 6907TIP3    H142212   3.539   0.925  16.658  0.6806  0.4141  1.1047
 6907TIP3    H242213   3.601   0.789  16.682  0.5513 -0.0738 -1.1639
 6908TIP3   OH242214   4.955   3.945  13.850  0.0299  0.2581  0.5079
 6908TIP3    H142215   4.966   3.925  13.944  0.8291 -0.0991  0.3439
 6908TIP3    H242216   4.862   3.964  13.841 -0.3486 -1.2183  1.0978
 6909TIP3   OH242217   4.782   0.179   5.542  0.2188 -1.2366  0.2374
 6909TIP3    H142218   4.835   0.116   5.493 -0.7947 -0.9236 -1.3104
 6909TIP3    H242219   4.808   0.167   5.633  1.9970 -1.9896 -0.3513
 6910TIP3   OH242220   5.132   5.977  11.715  0.3633 -0.1513  0.0901
 6910TIP3    H142221   5.121   5.882  11.720 -0.0146 -0.3342 -3.0768
 6910TIP3    H242222   5.052   6.013  11.752  0.8100 -1.0347  1.9638
 6911TIP3   OH242223   1.843   2.523   2.546  0.0173 -0.3516  0.5554
 6911TIP3    H142224   1.845   2.607   2.500 -2.5500 -0.3070  0.4597
 6911TIP3    H242225   1.816   2.460   2.479  0.3162 -0.9758  1.0194
 6912TIP3   OH242226   3.441   2.928  16.747  0.0930  0.0550  0.1388
 6912TIP3    H142227   3.452   3.015  16.710 -0.8188  0.0467 -0.1654
 6912TIP3    H242228   3.363   2.893  16.705  0.0803 -0.6634  0.7285
 6913TIP3   OH242229   2.719   0.819  16.307  0.3737  0.2908  0.1270
 6913TIP3    H142230   2.750   0.909  16.319  0.6863  0.1952  0.0280
 6913TIP3    H242231   2.630   0.820  16.342 -0.0118  0.9022 -0.8647
 6914TIP3   OH242232   3.156   0.618  11.875 -0.7214  0.4982  0.2379
 6914TIP3    H142233   3.098   0.691  11.899 -0.1913  0.9621  0.1114
 6914TIP3    H242234   3.241   0.659  11.858 -0.7205 -0.0002 -0.9967
 6915TIP3   OH242235   3.312   3.777  14.276  0.1499 -0.7207 -0.1552
 6915TIP3    H142236   3.325   3.779  14.370 -0.0557 -1.0158 -0.1206
 6915TIP3    H242237   3.325   3.686  14.251 -0.3807 -0.7499 -0.3291
 6916TIP3   OH242238   4.936   3.222  16.888  0.5853 -0.5420 -0.3084
 6916TIP3    H142239   4.952   3.128  16.874 -0.5561 -0.8382  0.2916
 6916TIP3    H242240   4.844   3.234  16.866  0.2097  0.0509  1.4456
 6917TIP3   OH242241   6.137   6.317   0.943 -0.5260 -0.1821  0.0485
 6917TIP3    H142242   6.152   6.385   1.008 -0.8722 -0.2725  0.2256
 6917TIP3    H242243   6.090   6.248   0.991  0.1846 -0.7240 -0.0184
 6918TIP3   OH242244   3.875   0.595   4.521  0.3880  0.2589 -0.3712
 6918TIP3    H142245   3.901   0.510   4.485 -0.4710  0.2519 -1.0066
 6918TIP3    H242246   3.823   0.635   4.451 -0.5532  0.6380  0.5361
 6919TIP3   OH242247   0.754   5.745   5.762  1.0389 -0.1830  0.2074
 6919TIP3    H142248   0.813   5.796   5.817 -0.2828 -0.2275  1.7200
 6919TIP3    H242249   0.801   5.665   5.742  1.3864 -0.3301  1.6129
 6920TIP3   OH242250   3.686   2.850  13.827  0.0018 -0.3849 -1.1162
 6920TIP3    H142251   3.592   2.866  13.834 -0.2396 -2.3563  0.6192
 6920TIP3    H242252   3.709   2.879  13.739 -1.5889  3.1144 -0.4853
 6921TIP3   OH242253   4.714   4.751   1.857 -0.1801  0.2842 -1.0308
 6921TIP3    H142254   4.636   4.806   1.852  0.3528  0.9019 -3.1157
 6921TIP3    H242255   4.785   4.807   1.825  0.8512 -0.7221 -0.5170
 6922TIP3   OH242256   6.595   0.356   0.561  0.1761  0.0669 -0.3705
 6922TIP3    H142257   6.618   0.440   0.600 -1.2594  0.4624 -0.3642
 6922TIP3    H242258   6.565   0.377   0.473 -0.0263 -0.4484 -0.4279
 6923TIP3   OH242259   2.362   6.309   0.647 -0.2822  0.1788 -0.2012
 6923TIP3    H142260   2.434   6.267   0.694  2.3473  2.9319 -1.6112
 6923TIP3    H242261   2.298   6.329   0.715  1.3502 -0.1614  1.5015
 6924TIP3   OH242262   2.791   2.915  14.977  0.2701 -0.0188  0.4604
 6924TIP3    H142263   2.777   2.902  15.071  0.8581  2.0502  0.8503
 6924TIP3    H242264   2.788   3.009  14.965 -3.1478 -0.3657 -2.1644
 6925TIP3   OH242265   3.163   6.570   3.157 -0.5603  0.1777  0.2311
 6925TIP3    H142266   3.191   6.500   3.098  1.2676  2.3654 -1.5368
 6925TIP3    H242267   3.228   6.570   3.227 -0.5635  0.1218  0.2340
 6926TIP3   OH242268   4.594   5.465   1.481 -0.1323  0.3792  0.4901
 6926TIP3    H142269   4.535   5.541   1.479  1.2123  1.4111 -0.7140
 6926TIP3    H242270   4.577   5.425   1.566 -1.9052  1.1917  0.5513
 6927TIP3   OH242271   2.541   3.235   0.414 -0.4304  0.0915  0.4694
 6927TIP3    H142272   2.558   3.250   0.321  0.8365  0.5128  0.7543
 6927TIP3    H242273   2.573   3.146   0.429  0.5921  0.5093  0.7866
 6928TIP3   OH242274   1.311   0.624   4.569 -0.4591 -0.0704  0.0074
 6928TIP3    H142275   1.218   0.647   4.577 -1.0323 -1.5316 -2.0445
 6928TIP3    H242276   1.334   0.586   4.654 -2.7215 -2.9881 -0.5836
 6929TIP3   OH242277   4.692   1.472  10.737 -0.2196  0.6715  0.1778
 6929TIP3    H142278   4.632   1.453  10.665  0.6207  0.3263 -0.4266
 6929TIP3    H242279   4.726   1.559  10.718  0.6890  0.2108 -0.3152
 6930TIP3   OH242280   5.749   4.406  13.482  0.8249 -0.4126  0.6751
 6930TIP3    H142281   5.842   4.411  13.459  0.8210 -1.0213  0.5345
 6930TIP3    H242282   5.715   4.332  13.431  0.2856 -0.2609  0.8095
 6931TIP3   OH242283   2.875   6.100  16.058  0.2687  0.2208 -0.4158
 6931TIP3    H142284   2.921   6.029  16.102 -1.7364  0.4906  2.2929
 6931TIP3    H242285   2.798   6.058  16.019  0.4072  0.4777 -0.9576
 6932TIP3   OH242286   2.892   1.853   1.873 -0.6240 -0.1003  0.0282
 6932TIP3    H142287   2.815   1.866   1.928  0.2055  1.2442  0.9044
 6932TIP3    H242288   2.870   1.898   1.791 -0.3440  1.2865  0.6934
 6933TIP3   OH242289   2.586   2.505   1.274  0.2954  0.0294 -0.2343
 6933TIP3    H142290   2.608   2.596   1.257  1.4389  0.0389  1.1699
 6933TIP3    H242291   2.512   2.510   1.335 -0.4051  0.0028 -1.0692
 6934TIP3   OH242292   6.765   6.202  15.629 -0.0222  0.8053 -0.5976
 6934TIP3    H142293   6.811   6.163  15.555  1.0849  1.3025 -0.1739
 6934TIP3    H242294   6.703   6.134  15.657  0.4251  0.1508 -1.1818
 6935TIP3   OH242295   3.035   2.373  14.837 -0.4530  0.0536 -0.6002
 6935TIP3    H142296   3.068   2.454  14.797  0.9413  0.2855  0.9706
 6935TIP3    H242297   2.971   2.403  14.902 -1.0815 -0.1997 -1.0973
 6936TIP3   OH242298   5.583   1.485   4.771 -0.3719 -0.6817  0.1076
 6936TIP3    H142299   5.546   1.400   4.748  0.4100 -0.3415 -2.7249
 6936TIP3    H242300   5.673   1.481   4.738 -0.6302  1.5722 -0.9906
 6937TIP3   OH242301   6.303   0.162  16.524  0.3307  0.2400 -0.3039
 6937TIP3    H142302   6.280   0.161  16.616  1.2084 -0.1528 -0.0862
 6937TIP3    H242303   6.318   0.070  16.502  0.4715  0.3655 -0.7428
 6938TIP3   OH242304   4.587   0.905  15.093  0.3171 -0.3519  0.0684
 6938TIP3    H142305   4.608   0.890  15.001  0.4437  0.4109 -0.0313
 6938TIP3    H242306   4.500   0.946  15.091  0.5369  0.1213  0.2613
 6939TIP3   OH242307   3.271   4.496   3.395  0.3214 -0.3316 -0.5980
 6939TIP3    H142308   3.359   4.515   3.428  0.7400 -2.2135 -0.5773
 6939TIP3    H242309   3.228   4.451   3.467 -1.0106  1.4345 -0.2570
 6940TIP3   OH242310   2.714   3.302  15.669 -0.0400  0.3541  0.1774
 6940TIP3    H142311   2.781   3.239  15.695  0.1704 -0.1739 -1.5804
 6940TIP3    H242312   2.641   3.248  15.639 -0.2461  0.9565 -0.4117
 6941TIP3   OH242313   5.481   0.819   2.801 -0.1232  0.1784  0.1436
 6941TIP3    H142314   5.572   0.823   2.831 -0.0212 -1.1355  0.0361
 6941TIP3    H242315   5.462   0.725   2.795 -1.9103  0.4472  1.4320
 6942TIP3   OH242316   6.451   2.236  16.823 -0.0065  0.1412  0.3482
 6942TIP3    H142317   6.500   2.157  16.801  0.4836  0.8277 -1.1004
 6942TIP3    H242318   6.368   2.227  16.775  0.4673  0.9552 -0.6617
 6943TIP3   OH242319   5.285   4.608   2.994  0.0684  0.1396 -0.0752
 6943TIP3    H142320   5.357   4.548   3.012  0.7325  0.1330 -2.5705
 6943TIP3    H242321   5.232   4.563   2.928 -0.5614  1.4432 -0.4825
 6944TIP3   OH242322   0.096   3.452  15.823  0.2445  0.3019  0.2904
 6944TIP3    H142323   0.107   3.386  15.754  0.2076  0.5790  0.0155
 6944TIP3    H242324   0.060   3.528  15.777  0.9180  0.7407  0.4848
 6945TIP3   OH242325   1.138   2.275   4.836  0.0242 -0.0914 -0.0374
 6945TIP3    H142326   1.160   2.294   4.927 -2.8470  1.7523  0.3470
 6945TIP3    H242327   1.166   2.352   4.788  2.1610 -1.3455 -0.8692
 6946TIP3   OH242328   4.948   3.784   0.465 -0.0160  0.0492 -0.1014
 6946TIP3    H142329   5.036   3.815   0.445  0.5694  0.0649  2.3701
 6946TIP3    H242330   4.933   3.712   0.403  2.2194 -0.7597  0.2697
 6947TIP3   OH242331   5.736   1.428   0.940  0.2656  0.4365 -0.3861
 6947TIP3    H142332   5.727   1.436   1.035 -0.9672 -0.3201 -0.4306
 6947TIP3    H242333   5.727   1.335   0.923  3.3080  0.2055 -0.9844
 6948TIP3   OH242334   1.636   1.969   5.223  0.2014  0.3533 -0.6084
 6948TIP3    H142335   1.711   2.028   5.230  0.4599  0.4463 -3.4905
 6948TIP3    H242336   1.560   2.027   5.217  0.1105  0.3036  0.0081
 6949TIP3   OH242337   4.296   6.376  10.539 -0.2040 -0.2007 -0.1816
 6949TIP3    H142338   4.296   6.281  10.546 -0.9068 -0.2295 -0.5347
 6949TIP3    H242339   4.231   6.404  10.603 -3.4622 -0.2200 -3.3380
 6950TIP3   OH242340   1.449   5.587  12.920  0.0278 -0.4120  0.2537
 6950TIP3    H142341   1.519   5.538  12.964  1.0272  1.5819  0.9347
 6950TIP3    H242342   1.413   5.525  12.856  1.8431 -1.7531  0.4902
 6951TIP3   OH242343   1.556   2.963   2.204 -0.9412 -0.1651 -0.1153
 6951TIP3    H142344   1.600   2.988   2.285  0.0045  0.3130 -0.7749
 6951TIP3    H242345   1.540   2.869   2.213 -0.4783 -0.1885  0.4462
 6952TIP3   OH242346   1.583   3.926   3.854 -0.5787  0.0574  0.0187
 6952TIP3    H142347   1.664   3.875   3.854  1.3820  2.9857  1.3769
 6952TIP3    H242348   1.514   3.862   3.843  1.7852 -2.8465  1.3404
 6953TIP3   OH242349   4.596   5.775  15.859 -0.2732  0.0285  0.7355
 6953TIP3    H142350   4.610   5.864  15.892  0.8438  0.4139 -0.7198
 6953TIP3    H242351   4.684   5.737  15.856  0.1664  1.0513 -4.5699
 6954TIP3   OH242352   5.617   6.603   2.816  0.5866  0.2379 -0.2768
 6954TIP3    H142353   5.579   6.668   2.875  0.1068  0.2069 -0.5434
 6954TIP3    H242354   5.679   6.653   2.763  0.2503  0.4740 -0.4534
 6955TIP3   OH242355   2.722   5.182   5.079  0.2183  0.4071 -0.0728
 6955TIP3    H142356   2.684   5.268   5.059 -0.4991 -0.4378 -2.4970
 6955TIP3    H242357   2.810   5.202   5.110  0.1259  2.0238 -0.7868
 6956TIP3   OH242358   6.459   1.957   5.177  0.3595  0.0546  0.0776
 6956TIP3    H142359   6.446   2.052   5.175  0.4830  0.0409 -1.5450
 6956TIP3    H242360   6.489   1.940   5.267  0.8172  1.6057  0.2493
 6957TIP3   OH242361   0.934   3.545   6.893  0.4634 -0.2184 -0.3372
 6957TIP3    H142362   1.009   3.590   6.854  1.2542  0.5725  2.0206
 6957TIP3    H242363   0.973   3.475   6.946 -0.4091  0.4398  1.2066
 6958TIP3   OH242364   4.553   6.250  15.531  0.9093  0.3271  0.3332
 6958TIP3    H142365   4.617   6.313  15.564  0.1505  0.7880  0.9353
 6958TIP3    H242366   4.496   6.232  15.606  1.0483 -0.9870  0.1335
 6959TIP3   OH242367   6.069   0.353  11.859 -0.0256 -0.0125  0.0992
 6959TIP3    H142368   6.035   0.421  11.918 -2.0753 -1.8108  1.0370
 6959TIP3    H242369   6.057   0.390  11.772 -0.2210  1.2459  0.6409
 6960TIP3   OH242370   1.211   0.224  14.982 -0.0237  0.0652  0.4498
 6960TIP3    H142371   1.166   0.207  15.065  0.7292  1.9904  1.3050
 6960TIP3    H242372   1.222   0.319  14.980  2.4057 -0.1891 -0.5663
 6961TIP3   OH242373   4.427   0.444   0.566 -0.2031 -0.6121 -0.3788
 6961TIP3    H142374   4.360   0.454   0.633 -0.2350  0.3100 -0.5373
 6961TIP3    H242375   4.388   0.387   0.499  0.0664 -2.0684  0.6873
 6962TIP3   OH242376   6.136   6.659   0.866  0.5067 -0.2860  0.2990
 6962TIP3    H142377   6.131   6.618   0.780  2.3068  0.0114  0.0323
 6962TIP3    H242378   6.116   6.752   0.850 -0.5492 -0.4869  0.4291
 6963TIP3   OH242379   0.745   1.266  12.417  0.4244  0.2337  0.7558
 6963TIP3    H142380   0.720   1.302  12.332 -2.2865  1.0755  1.8707
 6963TIP3    H242381   0.830   1.306  12.436 -0.4880  2.6124 -0.0673
 6964TIP3   OH242382   1.346   4.825  13.523  0.6264  0.2079  0.4792
 6964TIP3    H142383   1.296   4.880  13.583 -0.2835 -0.8031  0.6670
 6964TIP3    H242384   1.279   4.779  13.472  1.3821  1.3302 -1.5691
 6965TIP3   OH242385   2.396   1.877   4.120 -0.0011 -0.2964  0.4959
 6965TIP3    H142386   2.410   1.933   4.196 -1.1150 -0.3047  0.7234
 6965TIP3    H242387   2.341   1.930   4.062  2.5104  0.5144 -1.2486
 6966TIP3   OH242388   4.502   0.829  14.170 -0.2966 -0.1152  0.2274
 6966TIP3    H142389   4.425   0.789  14.210 -0.7305  0.1079 -0.3853
 6966TIP3    H242390   4.497   0.804  14.078  0.2771  0.0315  0.1566
 6967TIP3   OH242391   1.684   5.770   1.436  0.1047  0.2220 -0.0150
 6967TIP3    H142392   1.762   5.770   1.492  0.4014  0.1829 -0.4229
 6967TIP3    H242393   1.623   5.829   1.481  1.0535  1.7018 -0.6164
 6968TIP3   OH242394   6.407   5.005  14.722  0.3402  0.3969  0.1582
 6968TIP3    H142395   6.317   5.010  14.752  0.4083  2.4134  0.0653
 6968TIP3    H242396   6.402   5.017  14.627  0.4411 -2.6658 -0.3017
 6969TIP3   OH242397   3.251   1.773  12.668 -0.8647  0.4286 -0.7285
 6969TIP3    H142398   3.163   1.808  12.672 -0.6816  0.8481 -0.3689
 6969TIP3    H242399   3.307   1.849  12.650 -0.4114  0.4137  0.5575
 6970TIP3   OH242400   2.316   0.573   1.481 -0.0474 -0.4838  0.2945
 6970TIP3    H142401   2.342   0.665   1.480 -0.6924 -0.3001 -0.1599
 6970TIP3    H242402   2.295   0.553   1.389  0.9042 -1.3190  0.2447
 6971TIP3   OH242403   5.847   4.524   0.959  0.5233 -0.1008 -0.5973
 6971TIP3    H142404   5.874   4.434   0.973  0.4949 -0.0201 -0.0174
 6971TIP3    H242405   5.805   4.550   1.041 -3.0048 -0.8005 -2.1289
 6972TIP3   OH242406   6.548   6.009  11.404  0.0121 -1.1684  0.2705
 6972TIP3    H142407   6.629   6.059  11.393 -1.6425  1.1713 -1.7586
 6972TIP3    H242408   6.525   6.021  11.496  0.6991  0.1790  0.2809
 6973TIP3   OH242409   5.233   5.986  13.015 -0.0997  0.3145  0.1192
 6973TIP3    H142410   5.285   5.906  13.026  0.7901  0.4616 -2.6699
 6973TIP3    H242411   5.156   5.957  12.965  0.3761  1.2465 -1.1624
 6974TIP3   OH242412   3.422   2.664   5.136  0.0872 -0.1669 -0.0600
 6974TIP3    H142413   3.413   2.590   5.076  1.5567 -0.1283 -0.3380
 6974TIP3    H242414   3.344   2.660   5.191 -0.7065 -0.8855 -1.2140
 6975TIP3   OH242415   0.081   0.876   5.175 -0.2426  0.5258 -0.0927
 6975TIP3    H142416   0.168   0.840   5.192 -1.1173 -2.5274 -1.7043
 6975TIP3    H242417   0.081   0.961   5.221  3.4265  0.4681  0.1932
 6976TIP3   OH242418   4.652   4.033  13.436 -0.0145  0.5690 -0.2525
 6976TIP3    H142419   4.598   3.960  13.466  1.4867 -0.9229 -1.1284
 6976TIP3    H242420   4.735   4.024  13.483  1.4745 -0.3889 -2.9423
 6977TIP3   OH242421   3.993   4.747  16.092  0.7146  0.0639 -0.6130
 6977TIP3    H142422   3.935   4.765  16.166  2.1658 -0.1678  0.6153
 6977TIP3    H242423   4.004   4.651  16.093  0.9122  0.0807 -0.9836
 6978TIP3   OH242424   2.354   0.927  11.024  1.0640  0.4094  0.1865
 6978TIP3    H142425   2.337   0.992  11.092 -0.5225  1.3842 -1.0915
 6978TIP3    H242426   2.439   0.950  10.989  0.5667  1.7478 -0.1674
 6979TIP3   OH242427   3.651   0.674  16.244  0.2744 -0.2194 -1.1201
 6979TIP3    H142428   3.707   0.598  16.233 -1.1507 -1.3632 -0.6764
 6979TIP3    H242429   3.707   0.739  16.287  1.1566 -1.4566 -0.3524
 6980TIP3   OH242430   4.884   1.165  14.020 -0.3179 -0.0410 -0.2251
 6980TIP3    H142431   4.814   1.124  14.072  0.9893 -0.1093  1.5493
 6980TIP3    H242432   4.857   1.256  14.012 -0.0195  0.2170  1.5349
 6981TIP3   OH242433   0.744   3.172   0.913 -0.2576  0.0652 -0.3035
 6981TIP3    H142434   0.839   3.174   0.928 -0.4640  1.2910  0.8772
 6981TIP3    H242435   0.708   3.140   0.996 -0.9625  0.7653 -0.3389
 6982TIP3   OH242436   0.636   2.718   4.086  0.1135  0.7174 -0.2146
 6982TIP3    H142437   0.589   2.802   4.090 -0.4050  0.4982 -1.5614
 6982TIP3    H242438   0.722   2.742   4.052  0.0649  0.7433 -0.3207
 6983TIP3   OH242439   5.688   3.522   2.751  0.2139  0.0435 -0.3314
 6983TIP3    H142440   5.757   3.471   2.794  0.3334 -2.1246 -3.0028
 6983TIP3    H242441   5.608   3.471   2.765 -0.6340  1.7424  1.3447
 6984TIP3   OH242442   1.569   1.791  16.802 -0.6055  0.4152 -0.5153
 6984TIP3    H142443   1.575   1.777  16.896 -1.7447 -3.0551 -0.8991
 6984TIP3    H242444   1.476   1.807  16.785 -0.4969  0.4231 -1.1353
 6985TIP3   OH242445   6.150   2.113  12.396 -0.8110 -0.1081 -0.0008
 6985TIP3    H142446   6.225   2.172  12.389  0.9006 -2.2753 -0.3413
 6985TIP3    H242447   6.153   2.081  12.486 -0.5596 -1.1726 -0.3787
 6986TIP3   OH242448   2.765   0.361  15.101 -0.1942 -0.3901  0.1446
 6986TIP3    H142449   2.781   0.431  15.038 -1.1471  1.1337  1.5462
 6986TIP3    H242450   2.838   0.368  15.163 -1.7724  1.2663  1.8990
 6987TIP3   OH242451   0.012   3.640  16.180 -0.1232  0.6243 -1.0325
 6987TIP3    H142452   0.069   3.674  16.249 -0.8418  0.8203 -0.5327
 6987TIP3    H242453   0.034   3.692  16.103  1.5822 -0.4433 -1.2866
 6988TIP3   OH242454   4.088   3.120  15.632 -0.1463  0.2646  0.4732
 6988TIP3    H142455   4.030   3.194  15.651  0.2670  0.1901  2.1560
 6988TIP3    H242456   4.129   3.101  15.716  1.7222 -0.1983 -0.5278
 6989TIP3   OH242457   2.000   1.283   5.684 -0.6669  0.1714 -0.0380
 6989TIP3    H142458   1.990   1.200   5.731  0.2416 -0.0253 -0.1789
 6989TIP3    H242459   1.996   1.260   5.592 -0.2319  0.2637 -0.0795
 6990TIP3   OH242460   0.948   2.667   3.659 -0.3587  0.6080 -0.6839
 6990TIP3    H142461   0.858   2.692   3.639 -0.0235  0.4213 -2.5484
 6990TIP3    H242462   0.942   2.576   3.689 -0.6216 -0.0392 -2.5993
 6991TIP3   OH242463   1.213   3.477   1.511 -0.2289  0.1929  0.0654
 6991TIP3    H142464   1.189   3.385   1.499 -0.4844  0.4714 -1.6815
 6991TIP3    H242465   1.130   3.522   1.522 -0.1983  0.3939 -0.4877
 6992TIP3   OH242466   0.717   5.152   2.724  0.1062  0.2041 -0.2565
 6992TIP3    H142467   0.765   5.070   2.734 -1.6795 -0.9174 -0.6607
 6992TIP3    H242468   0.748   5.207   2.796  0.5340 -1.2213  0.6588
 6993TIP3   OH242469   3.730   5.459   4.857 -0.5289  0.1025  0.7366
 6993TIP3    H142470   3.665   5.419   4.914 -0.5956  2.0328  2.0804
 6993TIP3    H242471   3.810   5.461   4.910 -0.2181  0.6246  0.2536
 6994TIP3   OH242472   3.537   5.260   4.385 -0.1782 -0.2874 -0.0574
 6994TIP3    H142473   3.464   5.209   4.419  1.1662 -1.6240  0.9369
 6994TIP3    H242474   3.570   5.309   4.461 -0.5420  0.9475 -0.6789
 6995TIP3   OH242475   0.609   3.483  16.921  0.2963  0.0894 -0.0609
 6995TIP3    H142476   0.683   3.540  16.898  0.4394  0.1066  0.4167
 6995TIP3    H242477   0.651   3.401  16.949  0.1432  0.1484  0.3489
 6996TIP3   OH242478   1.701   5.395   1.624 -0.0908 -0.3438 -0.4621
 6996TIP3    H142479   1.643   5.388   1.699  0.1701  0.3748 -0.1912
 6996TIP3    H242480   1.752   5.475   1.640 -0.0096 -0.2028 -1.3756
 6997TIP3   OH242481   4.509   6.617  16.050  0.3455 -0.5953 -0.1276
 6997TIP3    H142482   4.492   6.591  15.959  1.7956 -0.5983 -0.4020
 6997TIP3    H242483   4.593   6.578  16.071  0.6537  0.5298  0.7793
 6998TIP3   OH242484   2.884   2.060  11.621  0.4209  0.1657  0.3264
 6998TIP3    H142485   2.909   2.147  11.654  1.5933  0.4747 -1.3274
 6998TIP3    H242486   2.967   2.017  11.601 -0.2192  0.1891 -2.6526
 6999TIP3   OH242487   1.914   4.397   4.337 -0.1902  0.3833  0.5058
 6999TIP3    H142488   1.878   4.415   4.423  1.9504  0.1441  1.4842
 6999TIP3    H242489   1.843   4.354   4.289 -1.1457 -0.2066  2.4123
 7000TIP3   OH242490   3.042   0.382  15.241  0.8697 -0.1066  0.0677
 7000TIP3    H142491   3.134   0.405  15.230  0.4410  1.9223  0.4992
 7000TIP3    H242492   3.002   0.459  15.281 -1.3321 -0.3295 -1.5536
 7001TIP3   OH242493   4.287   0.588   3.902  0.2693  0.0363 -0.1662
 7001TIP3    H142494   4.209   0.540   3.873  0.0843  0.4057 -0.2878
 7001TIP3    H242495   4.260   0.680   3.901  0.4972  0.1102  0.4622
 7002TIP3   OH242496   4.699   1.801  12.739 -0.1323 -0.1426 -0.2767
 7002TIP3    H142497   4.674   1.797  12.832  0.9982 -0.9516  0.0078
 7002TIP3    H242498   4.644   1.871  12.703  0.5794  1.3181  1.3609
 7003TIP3   OH242499   1.598   0.664   6.124  0.2477  0.2527 -0.3173
 7003TIP3    H142500   1.624   0.624   6.207  2.3935 -0.2654 -1.1966
 7003TIP3    H242501   1.509   0.632   6.109 -0.0582  0.0940  1.6031
 7004TIP3   OH242502   0.717   2.551  16.829 -0.2259  0.5521 -0.0260
 7004TIP3    H142503   0.684   2.640  16.821 -0.8907  0.1858 -1.4575
 7004TIP3    H242504   0.704   2.512  16.743  1.8719 -0.3211  0.0256
 7005TIP3   OH242505   5.131   2.114  12.729 -0.6085 -0.5273  0.0744
 7005TIP3    H142506   5.105   2.022  12.733  1.0123 -0.9587  1.1516
 7005TIP3    H242507   5.226   2.112  12.726 -0.5713  1.1138 -0.2413
 7006TIP3   OH242508   2.927   2.814   3.209 -0.7152  0.2691 -0.2085
 7006TIP3    H142509   2.849   2.854   3.249  0.1121  1.4498  0.2467
 7006TIP3    H242510   2.892   2.751   3.147 -2.0846  2.9163 -2.2390
 7007TIP3   OH242511   4.324   0.706   0.029  0.2240  0.2067 -0.0636
 7007TIP3    H142512   4.270   0.762  -0.027  0.5776  0.2118 -0.4032
 7007TIP3    H242513   4.301   0.732   0.118  0.6190  1.1250 -0.2160
 7008TIP3   OH242514   5.909   3.755  11.828 -0.5163  0.4209  0.2771
 7008TIP3    H142515   5.840   3.817  11.803 -0.8269 -0.7532 -1.9164
 7008TIP3    H242516   5.883   3.672  11.787  2.5092  0.1098 -1.1734
 7009TIP3   OH242517   3.324   1.498  11.335  0.0847  0.0109 -0.1204
 7009TIP3    H142518   3.241   1.461  11.303 -0.2282  0.7469 -0.1655
 7009TIP3    H242519   3.371   1.523  11.256  0.0147  0.3105 -0.0686
 7010TIP3   OH242520   0.699   1.052  10.934  0.3134  0.3032 -0.7308
 7010TIP3    H142521   0.786   1.054  10.974  0.2425 -1.4665 -0.4275
 7010TIP3    H242522   0.715   1.054  10.840  0.6622  0.6650 -0.6589
 7011TIP3   OH242523   4.757   0.616   1.364  0.1456 -0.4427  0.0498
 7011TIP3    H142524   4.787   0.533   1.401  1.6728 -0.7078 -1.7381
 7011TIP3    H242525   4.693   0.592   1.297 -1.0841 -0.0598  1.0688
 7012TIP3   OH242526   3.040   5.818  17.189  0.0281 -0.4140  0.4669
 7012TIP3    H142527   3.105   5.886  17.201  0.0649 -0.0145 -1.7998
 7012TIP3    H242528   3.090   5.740  17.166  0.0279 -1.3934  3.5596
 7013TIP3   OH242529   3.411   3.348  15.795 -0.3265  0.3167 -0.0028
 7013TIP3    H142530   3.463   3.282  15.749  1.3672  1.9635 -0.5213
 7013TIP3    H242531   3.412   3.424  15.738 -1.9068  0.9400  0.7784
 7014TIP3   OH242532   1.169   4.015   0.050 -0.3071 -0.4300  0.1500
 7014TIP3    H142533   1.234   4.081   0.077  0.3729 -0.5306 -1.1731
 7014TIP3    H242534   1.094   4.030   0.107  0.5286  0.3188  1.0690
 7015TIP3   OH242535   5.103   0.345   1.545 -0.7434 -0.2125  0.3849
 7015TIP3    H142536   5.091   0.287   1.469 -1.0604  0.0844  0.2035
 7015TIP3    H242537   5.141   0.289   1.612 -0.0465 -0.3696 -0.1403
 7016TIP3   OH242538   5.646   4.211   2.449 -0.0742 -0.6378  0.2637
 7016TIP3    H142539   5.656   4.285   2.389  2.2383 -1.9191 -1.0090
 7016TIP3    H242540   5.660   4.248   2.536 -0.9674  0.7771 -0.1824
 7017TIP3   OH242541   6.316   2.730   3.366 -0.2161  0.1623 -0.3828
 7017TIP3    H142542   6.223   2.745   3.384  0.4678  3.7897  0.6871
 7017TIP3    H242543   6.319   2.704   3.274 -2.3678 -1.1668 -0.1168
 7018TIP3   OH242544   5.761   3.786   3.208 -0.2781 -0.1277 -0.3233
 7018TIP3    H142545   5.666   3.781   3.216 -0.2539 -1.0211 -0.5257
 7018TIP3    H242546   5.777   3.815   3.118 -0.3449 -1.0062 -0.6238
 7019TIP3   OH242547   4.450   2.867  16.081 -0.4563  0.1314  0.9039
 7019TIP3    H142548   4.436   2.901  15.992  1.6101  0.6147  0.7466
 7019TIP3    H242549   4.457   2.772  16.069 -1.6592  0.0562  0.7514
 7020TIP3   OH242550   5.998   0.156   3.684 -0.6402 -0.0222  0.0925
 7020TIP3    H142551   5.959   0.070   3.698 -2.3279  0.7606  0.3414
 7020TIP3    H242552   5.978   0.205   3.764 -1.7788  1.3455 -1.0034
 7021TIP3   OH242553   4.722   5.504  11.800  0.2697 -0.0503  0.5471
 7021TIP3    H142554   4.730   5.560  11.877  0.2729  0.1455  0.4038
 7021TIP3    H242555   4.644   5.452  11.816 -0.6493  1.1089 -0.0319
 7022TIP3   OH242556   3.651   4.005   4.538 -0.5340 -0.3367 -0.6703
 7022TIP3    H142557   3.649   4.080   4.598 -1.1888  0.9632 -2.2929
 7022TIP3    H242558   3.718   4.027   4.474 -1.8381 -0.4026 -2.0839
 7023TIP3   OH242559   3.294   6.240  16.333 -0.2742  0.1246  0.2591
 7023TIP3    H142560   3.202   6.228  16.356 -0.2209  0.8429  0.8754
 7023TIP3    H242561   3.300   6.212  16.242 -0.3016 -3.7847  1.3847
 7024TIP3   OH242562   4.108   0.706   4.588 -0.1027 -0.0801 -0.1894
 7024TIP3    H142563   4.019   0.679   4.565 -0.1279 -0.0675 -0.1056
 7024TIP3    H242564   4.164   0.637   4.553 -0.0135  0.7730 -1.8110
 7025TIP3   OH242565   1.456   1.622  11.334 -0.5693 -0.7038 -0.7805
 7025TIP3    H142566   1.391   1.661  11.393  0.7082  1.3959 -0.7248
 7025TIP3    H242567   1.453   1.528  11.355  0.3436  0.0492  3.1576
 7026TIP3   OH242568   1.086   5.116  16.753 -0.2283 -0.0354  0.0836
 7026TIP3    H142569   1.107   5.054  16.684 -1.2748 -0.1533 -0.1407
 7026TIP3    H242570   1.028   5.068  16.812 -0.9603  0.6982 -0.0342
 7027TIP3   OH242571   4.667   4.350   0.545  0.1661  0.1122  0.1730
 7027TIP3    H142572   4.599   4.387   0.602  0.2365  0.5385 -0.0138
 7027TIP3    H242573   4.705   4.426   0.501 -0.4653 -0.2967 -1.0820
 7028TIP3   OH242574   2.670   0.721  15.218 -0.3316 -0.0319 -0.5690
 7028TIP3    H142575   2.715   0.722  15.303  1.6205 -0.0323 -1.5531
 7028TIP3    H242576   2.671   0.629  15.191 -0.0520  0.0999 -1.0231
 7029TIP3   OH242577   1.636   1.848   1.148 -0.3891  0.6433 -0.0655
 7029TIP3    H142578   1.710   1.792   1.125 -0.0711  0.7612  0.6510
 7029TIP3    H242579   1.650   1.928   1.098  0.2185  0.8419  0.4133
 7030TIP3   OH242580   3.172   3.275   0.608 -0.1870  0.4833 -0.6646
 7030TIP3    H142581   3.111   3.316   0.547  0.0712  0.5421 -0.8870
 7030TIP3    H242582   3.128   3.196   0.637  0.8200 -1.0472 -3.0838
 7031TIP3   OH242583   1.462   0.033   6.676  0.1410  0.8269 -0.4452
 7031TIP3    H142584   1.416   0.045   6.593 -1.3781  1.6122  0.4946
 7031TIP3    H242585   1.489   0.121   6.701  2.7507  0.3254 -1.2811
 7032TIP3   OH242586   5.539   6.287  15.173 -0.4981  0.4264 -0.4552
 7032TIP3    H142587   5.473   6.228  15.136  0.6186  0.1193 -2.0138
 7032TIP3    H242588   5.529   6.368  15.123 -2.0344  1.6283  1.6883
 7033TIP3   OH242589   4.944   0.103  10.500 -0.4237 -0.3422 -0.2358
 7033TIP3    H142590   4.900   0.018  10.510  0.2600 -0.6090  0.5382
 7033TIP3    H242591   4.874   0.167  10.513 -0.6510 -0.7732  0.6710
 7034TIP3   OH242592   2.956   2.001   4.656 -0.1565  0.0674 -0.7411
 7034TIP3    H142593   2.923   2.080   4.616 -1.3816  1.0192  2.0400
 7034TIP3    H242594   3.048   2.021   4.677 -0.5224  0.8547  0.1491
 7035TIP3   OH242595   2.894   2.709   3.714 -0.3057 -0.3614  0.0509
 7035TIP3    H142596   2.828   2.764   3.670  1.6211  1.2615 -0.8961
 7035TIP3    H242597   2.956   2.687   3.646  0.1785 -1.8230  0.9532
 7036TIP3   OH242598   6.451   4.433  16.900 -0.3298  0.1942  0.7804
 7036TIP3    H142599   6.461   4.497  16.970  0.4678 -1.4369  2.1967
 7036TIP3    H242600   6.539   4.417  16.868 -0.8196  1.9795 -1.6199
 7037TIP3   OH242601   2.430   2.098   0.246 -0.7423  0.0786  0.4742
 7037TIP3    H142602   2.469   2.033   0.187 -0.4920  0.7178 -0.0740
 7037TIP3    H242603   2.405   2.170   0.189 -2.3754 -0.1408  0.8709
 7038TIP3   OH242604   0.150   5.688  12.555  0.3871  0.2231  0.1651
 7038TIP3    H142605   0.159   5.712  12.647  1.2842 -0.5751  0.2919
 7038TIP3    H242606   0.136   5.771  12.509 -0.6617  0.5648  1.0879
 7039TIP3   OH242607   6.264   0.612  12.556  0.1980 -0.4902  0.5996
 7039TIP3    H142608   6.195   0.578  12.613 -1.1769  1.0931 -0.0752
 7039TIP3    H242609   6.219   0.674  12.498  2.2757  0.9638  0.4823
 7040TIP3   OH242610   2.679   5.135   1.373 -0.3958  0.0675 -0.3317
 7040TIP3    H142611   2.585   5.120   1.363  0.0160 -2.3011 -0.9517
 7040TIP3    H242612   2.697   5.213   1.322 -1.8128 -0.2186 -1.2901
 7041TIP3   OH242613   2.532   3.639  16.601 -0.2540  0.1178  0.7640
 7041TIP3    H142614   2.541   3.577  16.673  0.7721 -0.8778 -0.1939
 7041TIP3    H242615   2.589   3.604  16.532  2.8979  3.8049  1.3258
 7042TIP3   OH242616   6.471   1.723  11.692 -0.3597  0.5994 -0.2266
 7042TIP3    H142617   6.395   1.741  11.746 -0.9599 -0.1923 -0.8013
 7042TIP3    H242618   6.476   1.628  11.686 -0.1450  0.6635 -1.3257
 7043TIP3   OH242619   1.059   2.923   3.641 -0.0634  0.3514  0.2796
 7043TIP3    H142620   1.071   2.965   3.556  0.5024  0.6904  0.5222
 7043TIP3    H242621   1.010   2.843   3.622  0.6759  0.0757 -0.4489
 7044TIP3   OH242622   0.663   1.773  14.720 -0.7161 -0.1516 -0.4515
 7044TIP3    H142623   0.619   1.774  14.805 -0.1337 -0.5232 -0.1410
 7044TIP3    H242624   0.657   1.863  14.689 -0.8297  0.0105  0.0320
 7045TIP3   OH242625   0.931   2.740   3.244 -0.3232  0.2390  0.0881
 7045TIP3    H142626   0.904   2.712   3.156  3.9779  0.4386 -1.4527
 7045TIP3    H242627   0.909   2.833   3.247 -0.5942  0.2152 -0.7830
 7046TIP3   OH242628   2.349   2.788  13.354  0.2328 -0.8153 -0.1964
 7046TIP3    H142629   2.364   2.850  13.425  0.7795 -1.0744 -0.0796
 7046TIP3    H242630   2.413   2.718  13.369  1.3127 -0.2076 -1.7213
 7047TIP3   OH242631   5.552   6.640  15.546  0.0827 -0.3201 -0.3203
 7047TIP3    H142632   5.577   6.701  15.477 -0.1303  0.2167  0.0747
 7047TIP3    H242633   5.469   6.674  15.580 -0.1522 -0.9527 -0.2479
 7048TIP3   OH242634   1.089   6.452   6.030  0.6239 -0.0938  0.1510
 7048TIP3    H142635   1.014   6.506   6.055  1.4328  0.6228  1.0885
 7048TIP3    H242636   1.064   6.413   5.946  0.3982  2.5062 -1.0446
 7049TIP3   OH242637   5.174   5.058  16.779 -0.3982 -0.8721 -0.3674
 7049TIP3    H142638   5.163   5.018  16.693  0.2251  0.6746 -1.1763
 7049TIP3    H242639   5.240   5.005  16.822 -0.5118 -1.4881 -0.9392
 7050TIP3   OH242640   0.172   2.993   5.949 -0.4723  0.0326 -0.0342
 7050TIP3    H142641   0.215   3.071   5.913  0.2641  0.1431  1.0781
 7050TIP3    H242642   0.227   2.966   6.022 -1.1723 -1.0524  0.1089
 7051TIP3   OH242643   5.728   4.045   5.940 -0.0444 -0.0997 -0.0522
 7051TIP3    H142644   5.799   4.080   5.993  0.5577 -1.2295 -0.1102
 7051TIP3    H242645   5.771   4.010   5.862 -0.8924  1.3371 -1.2151
 7052TIP3   OH242646   2.941   2.273   5.031 -0.2018  0.9189  0.2915
 7052TIP3    H142647   2.886   2.201   5.004  0.2310  0.3528  0.8807
 7052TIP3    H242648   3.028   2.253   4.995 -0.0290  1.0285  0.6346
 7053TIP3   OH242649   2.049   0.351  17.015  0.2239  0.2332 -0.4118
 7053TIP3    H142650   2.133   0.378  16.977  0.7013  0.3618  0.7114
 7053TIP3    H242651   2.074   0.297  17.091 -0.6614  2.5276  1.5786
 7054TIP3   OH242652   0.899   2.838   5.736  0.0835 -0.0709 -0.4236
 7054TIP3    H142653   0.956   2.913   5.717 -0.4482  0.3909 -0.2056
 7054TIP3    H242654   0.960   2.767   5.756  0.5974  0.2263 -0.8939
 7055TIP3   OH242655   6.336   1.867   5.550  0.2545  0.0133  0.4254
 7055TIP3    H142656   6.432   1.860   5.550  0.3032  0.4948 -0.9431
 7055TIP3    H242657   6.314   1.892   5.640  1.2926 -1.4724  1.1136
 7056TIP3   OH242658   4.341   5.845   1.234 -0.4468 -0.6328  0.7031
 7056TIP3    H142659   4.327   5.902   1.158  0.6359 -0.7378  0.4145
 7056TIP3    H242660   4.277   5.876   1.298 -1.2638 -0.4341 -0.1811
 7057TIP3   OH242661   1.836   0.716   1.330  0.1210 -0.0432  0.0133
 7057TIP3    H142662   1.897   0.765   1.275 -0.8386  0.2092 -0.8418
 7057TIP3    H242663   1.863   0.735   1.420  0.0602  1.6536 -0.3199
 7058TIP3   OH242664   0.999   3.048  15.274 -0.4950  0.2898 -0.1869
 7058TIP3    H142665   0.927   3.109  15.287  1.1141  2.3653 -0.6655
 7058TIP3    H242666   1.066   3.076  15.337  0.5315 -0.5445 -0.8778
 7059TIP3   OH242667   1.223   0.615  16.356 -0.7337  0.6450  0.2752
 7059TIP3    H142668   1.316   0.626  16.339 -0.2715 -0.8426  1.7263
 7059TIP3    H242669   1.180   0.662  16.285  1.1120 -1.2602 -2.2024
 7060TIP3   OH242670   2.082   1.641   4.566  0.3406 -0.3034 -0.3019
 7060TIP3    H142671   2.169   1.668   4.595  0.0848 -0.5756  0.7224
 7060TIP3    H242672   2.023   1.700   4.612 -0.0601 -0.5594 -0.4895
 7061TIP3   OH242673   5.349   0.467  10.653 -0.7262  0.0095 -0.2378
 7061TIP3    H142674   5.264   0.499  10.681 -0.3226  0.6180  0.3128
 7061TIP3    H242675   5.405   0.545  10.654  0.2619 -0.7029  1.0946
 7062TIP3   OH242676   5.817   4.564  16.570 -0.2530  0.3308 -0.1296
 7062TIP3    H142677   5.907   4.575  16.600  0.0372  0.3297 -0.9990
 7062TIP3    H242678   5.801   4.640  16.514 -0.4785 -0.1669 -0.7366
 7063TIP3   OH242679   2.697   1.411  12.389  0.4435  0.2488  0.1018
 7063TIP3    H142680   2.712   1.339  12.450  1.2222  1.6112  1.5332
 7063TIP3    H242681   2.736   1.487  12.431 -0.4709  1.5433 -1.3453
 7064TIP3   OH242682   2.758   4.149  12.088 -0.3163 -0.4896  0.1736
 7064TIP3    H142683   2.773   4.156  12.182 -0.2914  0.2594  0.1161
 7064TIP3    H242684   2.806   4.223  12.050 -0.5809 -0.6072 -0.4013
 7065TIP3   OH242685   0.791   4.436  14.886  0.1510  0.0145 -0.3581
 7065TIP3    H142686   0.812   4.354  14.842  1.0865 -0.4107  0.8867
 7065TIP3    H242687   0.700   4.425  14.915  0.8627 -1.2936  1.4109
 7066TIP3   OH242688   1.870   5.363   2.996 -0.1922  0.0955  0.3159
 7066TIP3    H142689   1.938   5.338   3.058 -0.4412 -1.0927  0.1213
 7066TIP3    H242690   1.889   5.311   2.918 -0.7735  0.4544 -0.0619
 7067TIP3   OH242691   1.574   5.550   3.061  0.3614  0.1452  0.4658
 7067TIP3    H142692   1.587   5.456   3.055  0.8249  0.4225 -4.2819
 7067TIP3    H242693   1.654   5.588   3.026 -0.9838  2.2843 -0.3915
 7068TIP3   OH242694   6.594   5.482  14.076  0.2963  0.1484 -1.0008
 7068TIP3    H142695   6.659   5.551  14.064  0.1848  0.2455 -1.0452
 7068TIP3    H242696   6.543   5.482  13.995 -0.0902  0.4198 -0.7564
 7069TIP3   OH242697   0.328   4.837   3.233 -0.0318 -0.4806 -0.0038
 7069TIP3    H142698   0.393   4.802   3.172 -0.1395 -1.0626  0.2056
 7069TIP3    H242699   0.352   4.929   3.244 -1.1220  0.0924 -2.3230
 7070TIP3   OH242700   4.297   0.914  14.486 -0.1610  0.0919 -0.2814
 7070TIP3    H142701   4.346   0.834  14.464  0.8565  0.5773  0.2063
 7070TIP3    H242702   4.358   0.985  14.468 -0.8097  0.7268  0.0089
 7071TIP3   OH242703   4.571   4.433   1.189  0.0739  0.8128  0.0274
 7071TIP3    H142704   4.573   4.492   1.114  0.5048  0.2698 -0.3931
 7071TIP3    H242705   4.486   4.389   1.182  0.7329 -0.3299 -1.0041
 7072TIP3   OH242706   1.922   4.069   1.584  0.1312 -0.3793 -0.3255
 7072TIP3    H142707   2.014   4.055   1.604 -0.1113  1.0775  2.1124
 7072TIP3    H242708   1.921   4.094   1.492  2.2936  0.4273 -0.1755
 7073TIP3   OH242709   4.695   5.057  15.573 -0.4148  0.7435 -0.0982
 7073TIP3    H142710   4.709   5.035  15.666 -0.1254  0.8365 -0.1202
 7073TIP3    H242711   4.667   4.975  15.533  0.7236  0.4027 -0.1890
 7074TIP3   OH242712   3.394   0.776  11.854  0.1099 -0.3546  0.5561
 7074TIP3    H142713   3.389   0.816  11.941 -0.0238  0.0889  0.3453
 7074TIP3    H242714   3.471   0.817  11.814  0.4073 -0.8505  0.6103
 7075TIP3   OH242715   4.020   5.678  12.837 -0.2992 -0.4980  0.2466
 7075TIP3    H142716   3.981   5.766  12.833  1.4517  0.3193  0.9098
 7075TIP3    H242717   3.984   5.640  12.917  0.3847  0.3237  0.9580
 7076TIP3   OH242718   1.430   0.253  11.036 -0.2532  0.7193  0.1113
 7076TIP3    H142719   1.440   0.327  10.976 -2.0135  0.7847 -0.1388
 7076TIP3    H242720   1.516   0.213  11.039 -0.0416  0.9002 -2.2481
 7077TIP3   OH242721   3.943   1.201  12.307 -0.5505 -0.5329  0.0886
 7077TIP3    H142722   4.020   1.258  12.308 -0.6125 -0.4541  0.4754
 7077TIP3    H242723   3.972   1.121  12.350  0.3676 -1.9017 -2.9356
 7078TIP3   OH242724   6.325   5.614   3.950 -0.0374  0.8973  0.3410
 7078TIP3    H142725   6.287   5.618   3.862 -0.2135 -0.5151  0.3416
 7078TIP3    H242726   6.395   5.680   3.949 -1.0633  2.0052 -0.3424
 7079TIP3   OH242727   3.091   0.168  12.805 -0.0003  0.1255 -0.6777
 7079TIP3    H142728   3.043   0.090  12.833  2.1118 -0.7841  0.5652
 7079TIP3    H242729   3.155   0.136  12.741 -1.2886  1.3874 -2.6532
 7080TIP3   OH242730   5.207   0.468   4.047 -0.3287 -0.5881  0.3226
 7080TIP3    H142731   5.263   0.542   4.023 -1.1509 -0.1736 -0.3392
 7080TIP3    H242732   5.125   0.485   4.002 -0.9901 -1.2035  1.2851
 7081TIP3   OH242733   3.684   2.026  11.494 -0.3214  0.2614 -0.2699
 7081TIP3    H142734   3.647   2.059  11.576  0.2718 -1.6936  0.7935
 7081TIP3    H242735   3.728   1.945  11.517  1.2209  0.4762 -2.2514
 7082TIP3   OH242736   3.310   2.890   4.768  0.3192  0.0256  0.1837
 7082TIP3    H142737   3.343   2.811   4.726 -0.5027 -1.2778  1.9455
 7082TIP3    H242738   3.364   2.960   4.732  0.4810 -1.1906 -2.0817
 7083TIP3   OH242739   0.524   0.888   0.838  0.9569  0.5019 -0.5241
 7083TIP3    H142740   0.527   0.887   0.934  0.5492 -0.2973 -0.5168
 7083TIP3    H242741   0.542   0.979   0.815 -0.1061  0.9633  0.3580
 7084TIP3   OH242742   4.076   3.951   2.954 -0.1325 -0.1643 -0.4258
 7084TIP3    H142743   4.062   3.965   3.048 -0.4905 -1.4082 -0.2907
 7084TIP3    H242744   4.010   3.887   2.929  2.8629 -3.3291 -0.5531
 7085TIP3   OH242745   1.863   5.039   2.588 -0.9056  0.9785 -0.0077
 7085TIP3    H142746   1.944   5.083   2.615  0.1035 -0.9530  0.2021
 7085TIP3    H242747   1.816   5.022   2.670 -0.6658  0.4699  0.0238
 7086TIP3   OH242748   2.684   2.155  14.290 -0.0268 -0.0619 -0.0149
 7086TIP3    H142749   2.671   2.070  14.247  2.3585 -0.3739 -0.1894
 7086TIP3    H242750   2.603   2.170  14.339 -1.2058 -1.5622 -1.4538
 7087TIP3   OH242751   5.851   5.264   3.249 -0.7617  0.0488 -0.5405
 7087TIP3    H142752   5.755   5.266   3.258 -0.9025 -1.4932 -1.4578
 7087TIP3    H242753   5.869   5.182   3.202  1.1019 -0.2334  0.6216
 7088TIP3   OH242754   1.652   2.683   4.393  0.4399 -0.3791 -0.3942
 7088TIP3    H142755   1.734   2.733   4.384  1.0112 -1.2951 -0.4085
 7088TIP3    H242756   1.595   2.740   4.446  1.1943  0.1446 -0.1233
 7089TIP3   OH242757   4.857   4.394  10.217  0.1341  0.4317 -0.4112
 7089TIP3    H142758   4.771   4.433  10.238 -0.2414 -0.4800 -0.2456
 7089TIP3    H242759   4.839   4.301  10.208  0.6236  0.5540 -3.0037
 7090TIP3   OH242760   0.697   4.856   4.951  0.1277 -0.4514 -0.1804
 7090TIP3    H142761   0.750   4.905   5.014 -1.3972  1.6097 -0.4615
 7090TIP3    H242762   0.733   4.878   4.866 -0.3928 -0.0376 -0.2936
 7091TIP3   OH242763   1.480   3.233  14.530  0.1302  0.0614 -0.2100
 7091TIP3    H142764   1.547   3.166  14.521 -1.5940 -1.7978  0.4417
 7091TIP3    H242765   1.458   3.234  14.623 -0.6027  0.7959 -0.3841
 7092TIP3   OH242766   3.426   4.803   2.973  0.5706 -0.6670  0.3536
 7092TIP3    H142767   3.414   4.760   2.888 -0.1881 -1.6000  0.9107
 7092TIP3    H242768   3.343   4.849   2.987  1.3194  0.8707 -0.1637
 7093TIP3   OH242769   3.898   3.939   0.978 -0.1582  0.1664  0.2239
 7093TIP3    H142770   3.813   3.975   1.007 -0.3252  0.5755 -0.7665
 7093TIP3    H242771   3.915   3.981   0.894  0.7346 -0.3907  0.1160
 7094TIP3   OH242772   4.505   3.345   2.146 -0.0867 -0.2600 -0.6995
 7094TIP3    H142773   4.577   3.407   2.136 -0.2296 -0.4336 -3.1056
 7094TIP3    H242774   4.494   3.335   2.241  2.0192  0.9517 -0.3120
 7095TIP3   OH242775   4.878   1.158  17.129 -0.2056  0.1908  0.3182
 7095TIP3    H142776   4.909   1.247  17.146  0.8861  0.0360 -0.7859
 7095TIP3    H242777   4.816   1.169  17.056  2.4527 -0.3224 -2.1305
 7096TIP3   OH242778   3.671   4.489   4.907  0.0042 -0.0907  0.4319
 7096TIP3    H142779   3.639   4.542   4.834  0.5697 -1.2528 -0.6908
 7096TIP3    H242780   3.712   4.552   4.966  0.8891  0.7240 -1.0047
 7097TIP3   OH242781   2.061   4.025   5.248  0.4833 -0.4162  0.0268
 7097TIP3    H142782   2.044   3.935   5.275  1.4239 -0.2352  1.2668
 7097TIP3    H242783   2.058   4.076   5.330 -0.9724  0.8237 -0.7793
 7098TIP3   OH242784   5.506   1.826   2.902 -0.1204  0.2138  0.0153
 7098TIP3    H142785   5.556   1.759   2.950 -0.6305  0.4646  0.9144
 7098TIP3    H242786   5.419   1.824   2.942 -0.5894  0.3548 -0.9930
 7099TIP3   OH242787   3.477   5.645  15.691  0.1904  0.3476  0.5472
 7099TIP3    H142788   3.550   5.638  15.630 -0.5876 -1.9003 -0.1546
 7099TIP3    H242789   3.488   5.571  15.752 -1.5038 -0.0570  0.4030
 7100TIP3   OH242790   4.729   2.011  11.007 -0.1222  0.0489 -0.0765
 7100TIP3    H142791   4.672   2.075  10.965  0.2013  1.1858  1.1803
 7100TIP3    H242792   4.670   1.942  11.037 -0.5295 -0.0055 -0.9972
 7101TIP3   OH242793   3.799   5.943  11.279 -0.0638  0.1872 -0.0923
 7101TIP3    H142794   3.710   5.955  11.245 -0.1023  1.7354  0.5404
 7101TIP3    H242795   3.856   5.958  11.204 -0.1847  2.7971  0.2934
 7102TIP3   OH242796   5.530   3.377  14.505 -0.3384  0.1437  0.6090
 7102TIP3    H142797   5.574   3.429  14.438  1.1031 -0.7330  0.8665
 7102TIP3    H242798   5.470   3.321  14.457 -0.1193  0.3090  0.1410
 7103TIP3   OH242799   1.946   6.815  15.135 -0.0113  0.5953 -0.0303
 7103TIP3    H142800   1.938   6.862  15.052  1.8393  3.2751  1.2495
 7103TIP3    H242801   1.864   6.833  15.181 -0.2585  0.6559 -0.4892
 7104TIP3   OH242802   3.243   3.116   3.129  0.2473  0.0720  1.0723
 7104TIP3    H142803   3.276   3.030   3.157 -0.3370 -1.3790 -2.3987
 7104TIP3    H242804   3.150   3.102   3.115  0.7508  0.2745 -2.9002
 7105TIP3   OH242805   2.307   0.410  13.123  0.1324 -0.5038  0.1384
 7105TIP3    H142806   2.303   0.358  13.043 -1.1219 -0.7058  0.3355
 7105TIP3    H242807   2.259   0.359  13.188 -0.1586  0.3847  0.6232
 7106TIP3   OH242808   2.267   0.052  16.562 -0.0393 -0.6575  0.4389
 7106TIP3    H142809   2.361   0.062  16.546  0.0733 -0.8738  0.9704
 7106TIP3    H242810   2.250  -0.041  16.549 -0.4274 -0.3991 -0.9511
 7107TIP3   OH242811   3.359   5.864   1.892  0.3964  0.4662  0.0848
 7107TIP3    H142812   3.346   5.792   1.831  1.6418 -0.3800  0.7995
 7107TIP3    H242813   3.286   5.923   1.875 -0.8973 -1.1803 -0.1814
 7108TIP3   OH242814   5.078   3.115   6.099 -0.3624  0.7973  0.2629
 7108TIP3    H142815   5.082   3.199   6.145 -0.6412  0.5818  0.6790
 7108TIP3    H242816   5.142   3.060   6.143 -0.2874  0.7410  0.0859
 7109TIP3   OH242817   3.926   3.129  13.562 -0.4416 -0.2967  0.3905
 7109TIP3    H142818   3.937   3.219  13.531 -1.5290 -0.2880  0.0307
 7109TIP3    H242819   3.973   3.126  13.645  0.7965  0.2196 -0.2704
 7110TIP3   OH242820   4.872   3.748  12.073  0.4073  0.0999  0.1860
 7110TIP3    H142821   4.893   3.774  11.983 -0.0515  4.7298  1.2619
 7110TIP3    H242822   4.949   3.699  12.102  1.7709  0.9185 -1.8666
 7111TIP3   OH242823   2.230   0.202  11.228  0.7689  0.5898  0.2516
 7111TIP3    H142824   2.173   0.146  11.175  0.2969 -0.1317  1.4979
 7111TIP3    H242825   2.176   0.277  11.250  0.7824  0.6227  0.1725
 7112TIP3   OH242826   6.123   1.110  12.211  0.2100 -0.3546 -0.2221
 7112TIP3    H142827   6.112   1.141  12.121  2.0146 -0.2835 -0.4471
 7112TIP3    H242828   6.212   1.136  12.235  0.2735 -1.6520  1.0674
 7113TIP3   OH242829   3.986   4.275   5.087  0.9190 -0.4916 -0.3021
 7113TIP3    H142830   3.934   4.354   5.097  1.0317 -0.4107 -0.3512
 7113TIP3    H242831   3.993   4.262   4.992 -0.6709 -1.6025 -0.2737
 7114TIP3   OH242832   1.046   5.556  16.396  0.2095 -0.1360 -0.6140
 7114TIP3    H142833   1.051   5.463  16.420  0.1598  0.4843  1.9433
 7114TIP3    H242834   0.955   5.569  16.369 -0.8525  0.0155  2.8600
 7115TIP3   OH242835   4.407   2.499  11.470 -0.2277  0.2739 -0.0613
 7115TIP3    H142836   4.475   2.564  11.491  1.5482 -0.9119 -1.8799
 7115TIP3    H242837   4.328   2.551  11.456  0.8417  1.9426 -0.1241
 7116TIP3   OH242838   3.370   5.704  10.978 -0.4642  0.3595 -0.1080
 7116TIP3    H142839   3.368   5.673  10.887 -0.4145 -0.2564  0.0954
 7116TIP3    H242840   3.356   5.798  10.972  0.2890  0.4313 -0.8139
 7117TIP3   OH242841   6.790   6.295   1.122  0.0205 -1.0510  0.0460
 7117TIP3    H142842   6.838   6.254   1.050 -2.3005 -1.8881 -1.0701
 7117TIP3    H242843   6.778   6.386   1.094 -0.8311 -1.3604 -0.6271
 7118TIP3   OH242844   2.807   5.825  15.086 -0.2583  0.6409  0.0049
 7118TIP3    H142845   2.732   5.829  15.145 -0.1838 -0.9847  0.2236
 7118TIP3    H242846   2.882   5.849  15.141 -0.3350  0.1813  0.3142
 7119TIP3   OH242847   5.311   5.654   1.763  0.3811 -0.0472 -0.5547
 7119TIP3    H142848   5.322   5.573   1.813  0.7930  0.3733  0.0440
 7119TIP3    H242849   5.391   5.704   1.780  0.5180  0.1123 -1.6154
 7120TIP3   OH242850   2.936   6.681   1.482  0.2692  0.0925 -0.0624
 7120TIP3    H142851   2.985   6.683   1.400  0.4721  0.0451  0.0579
 7120TIP3    H242852   2.857   6.732   1.464 -1.2505 -2.5522 -1.3069
 7121TIP3   OH242853   6.418   1.808   3.672  0.3778  0.5857 -0.8462
 7121TIP3    H142854   6.449   1.831   3.759  1.2368  0.7722 -1.1906
 7121TIP3    H242855   6.366   1.729   3.684  0.2647  0.7714 -0.1301
 7122TIP3   OH242856   3.950   1.545  16.860 -0.2206 -0.4681 -0.5504
 7122TIP3    H142857   3.969   1.618  16.918 -2.0644  1.5609 -2.3663
 7122TIP3    H242858   3.880   1.497  16.904 -1.7969  1.2092 -1.1522
 7123TIP3   OH242859   1.553   2.840  11.744 -0.0864 -0.3906  0.6628
 7123TIP3    H142860   1.482   2.854  11.682 -1.8501 -0.4147  2.5987
 7123TIP3    H242861   1.598   2.924  11.749 -0.2056 -0.2629 -0.2798
 7124TIP3   OH242862   0.842   3.943   2.979  0.3872  0.0213  0.1764
 7124TIP3    H142863   0.844   3.857   3.020  0.2816  0.8895  2.0783
 7124TIP3    H242864   0.792   3.930   2.898  2.0621 -2.0888 -0.5847
 7125TIP3   OH242865   5.753   4.582   1.241  0.2684  0.1252  0.5208
 7125TIP3    H142866   5.784   4.638   1.312  0.9042  1.4872 -0.7947
 7125TIP3    H242867   5.663   4.560   1.265  0.0113  1.7149  1.0670
 7126TIP3   OH242868   2.181   2.402   5.944 -0.0159  0.1168  0.2954
 7126TIP3    H142869   2.132   2.443   6.015  0.8072 -1.6824  1.9430
 7126TIP3    H242870   2.227   2.329   5.985  0.2450 -1.1497 -2.1453
 7127TIP3   OH242871   0.542   5.499  13.507  0.2528 -0.2553 -0.4560
 7127TIP3    H142872   0.563   5.507  13.414 -0.8537  0.9627 -0.6205
 7127TIP3    H242873   0.523   5.588  13.535 -3.1447 -1.0386  0.0136
 7128TIP3   OH242874   2.786   4.173  17.251 -0.2343 -1.0030 -0.5283
 7128TIP3    H142875   2.771   4.079  17.242  0.1932 -1.0098 -1.2135
 7128TIP3    H242876   2.855   4.193  17.188  2.3878 -0.8945  2.2715
 7129TIP3   OH242877   2.658   4.174  13.544  0.5027 -0.4096  0.2534
 7129TIP3    H142878   2.693   4.136  13.463  0.6328  1.2891 -0.5264
 7129TIP3    H242879   2.571   4.206  13.519  1.2632  1.7683  0.2632
 7130TIP3   OH242880   3.921   0.686   3.785 -0.0261  0.0351  0.7156
 7130TIP3    H142881   3.885   0.721   3.703  0.4083  0.8094  0.8449
 7130TIP3    H242882   3.845   0.653   3.833 -0.2200 -0.9087 -0.2234
 7131TIP3   OH242883   5.326   0.692  17.032  0.1593 -0.5218  0.4618
 7131TIP3    H142884   5.408   0.655  17.065 -0.2033 -2.2121 -0.5000
 7131TIP3    H242885   5.353   0.773  16.988  1.2756 -0.9347  0.3710
 7132TIP3   OH242886   1.332   2.569   5.507 -0.2035  0.0906 -0.4196
 7132TIP3    H142887   1.300   2.509   5.574 -0.3640  0.4332 -0.1875
 7132TIP3    H242888   1.311   2.526   5.424  1.5765 -1.1546 -0.2408
 7133TIP3   OH242889   4.831   2.034   5.562 -0.3883  0.5881 -0.0503
 7133TIP3    H142890   4.749   2.020   5.515  0.3708 -0.5377 -1.0697
 7133TIP3    H242891   4.826   1.974   5.637 -0.1407 -0.0793 -0.5682
 7134TIP3   OH242892   1.877   1.950   5.873  0.1201 -0.2022 -0.4416
 7134TIP3    H142893   1.880   1.965   5.967  0.6407 -0.3542 -0.4332
 7134TIP3    H242894   1.881   1.855   5.864 -2.9891 -0.3617 -0.4958
 7135TIP3   OH242895   1.109   0.640  14.398 -0.4969  0.3098  0.1276
 7135TIP3    H142896   1.126   0.628  14.305  0.0208  0.8870  0.1476
 7135TIP3    H242897   1.192   0.668  14.435 -0.1088 -2.0462  1.1654
 7136TIP3   OH242898   1.152   6.671  12.127  0.0184  0.0695  0.6015
 7136TIP3    H142899   1.160   6.697  12.219  3.0177 -0.8091  0.6262
 7136TIP3    H242900   1.065   6.630  12.121  0.5256 -1.5557  3.4702
 7137TIP3   OH242901   4.844   6.065   1.983  0.4290 -0.1188  0.4593
 7137TIP3    H142902   4.798   6.101   2.058  0.1359 -0.3869  0.4080
 7137TIP3    H242903   4.929   6.109   1.984 -0.0161  0.7547  0.2496
 7138TIP3   OH242904   6.696   4.088   3.183 -0.2516 -0.0810 -0.1580
 7138TIP3    H142905   6.712   4.019   3.119  0.1397 -1.1487  1.0836
 7138TIP3    H242906   6.614   4.130   3.153 -0.9398 -1.6058 -0.4494
 7139TIP3   OH242907   1.310   5.194  11.109  0.5605  0.0505  0.4718
 7139TIP3    H142908   1.367   5.118  11.114 -0.8675 -1.1696 -1.2013
 7139TIP3    H242909   1.334   5.236  11.025  2.7901  2.6874  2.3090
 7140TIP3   OH242910   5.284   3.555   3.690  0.1340  0.1771 -0.0012
 7140TIP3    H142911   5.297   3.483   3.751  1.3285  1.5791  1.4314
 7140TIP3    H242912   5.207   3.601   3.722 -0.3212 -0.1377 -0.6198
 7141TIP3   OH242913   3.355   1.197  14.868 -0.1225  0.5087 -0.1642
 7141TIP3    H142914   3.292   1.246  14.815  1.4338  1.2737 -1.3082
 7141TIP3    H242915   3.395   1.135  14.808  1.5411  1.2697  0.1497
 7142TIP3   OH242916   0.843   5.982   4.664 -0.5912  0.0937  0.5011
 7142TIP3    H142917   0.865   5.889   4.651  1.5890  0.4272  1.5315
 7142TIP3    H242918   0.902   6.029   4.606 -1.9919  0.8360 -0.3346
 7143TIP3   OH242919   2.140   3.484  16.178 -0.6324  0.0962 -0.4349
 7143TIP3    H142920   2.156   3.395  16.211  0.0095 -0.0695 -1.2022
 7143TIP3    H242921   2.226   3.517  16.154 -0.8145  1.1010  0.2552
 7144TIP3   OH242922   5.299   1.577  13.432 -0.6389  0.3941  0.4303
 7144TIP3    H142923   5.393   1.578  13.452 -0.6337  0.5574  0.3976
 7144TIP3    H242924   5.288   1.501  13.375 -0.1646  1.5614 -1.2655
 7145TIP3   OH242925   5.868   5.581   3.930  0.0058 -0.7009  0.8193
 7145TIP3    H142926   5.776   5.557   3.944  0.1259 -0.9491  1.1726
 7145TIP3    H242927   5.880   5.572   3.835 -0.6223  0.3776  0.6237
 7146TIP3   OH242928   0.537   3.073  11.653 -0.2856  0.1782 -0.0222
 7146TIP3    H142929   0.485   3.089  11.732  0.4767 -1.1042  0.7558
 7146TIP3    H242930   0.571   2.985  11.664  0.3035  0.1994 -1.5288
 7147TIP3   OH242931   5.021   6.710  12.832  0.7006 -0.2822 -0.1506
 7147TIP3    H142932   4.969   6.681  12.907  1.5126 -1.5202 -0.0508
 7147TIP3    H242933   5.106   6.666  12.843  1.2405  0.4891 -1.1395
 7148TIP3   OH242934   0.256   5.420  11.829 -0.3647  0.2720  0.2791
 7148TIP3    H142935   0.315   5.346  11.814 -0.0621 -0.0530  2.8058
 7148TIP3    H242936   0.214   5.435  11.744  1.0554 -1.4912 -0.7767
 7149TIP3   OH242937   5.206   5.094  13.097 -0.0235  0.2908  0.0901
 7149TIP3    H142938   5.190   5.186  13.117  1.2798  0.1987  1.7340
 7149TIP3    H242939   5.146   5.046  13.154 -0.7860  0.1296 -0.8524
 7150TIP3   OH242940   2.728   5.030   4.359  0.7867  0.2577  0.0425
 7150TIP3    H142941   2.775   5.113   4.373 -3.3428  3.1461 -1.9843
 7150TIP3    H242942   2.652   5.036   4.418 -0.0760 -1.6535 -0.8531
 7151TIP3   OH242943   1.280   3.756   4.884  0.4342  0.6250  0.1235
 7151TIP3    H142944   1.232   3.734   4.804 -1.0595  1.1531  0.8555
 7151TIP3    H242945   1.312   3.845   4.868  3.0703 -0.5287 -1.2385
 7152TIP3   OH242946   5.983   1.536   4.383  0.1740 -0.1278  0.2039
 7152TIP3    H142947   6.015   1.461   4.432  1.6389  0.4128  0.1111
 7152TIP3    H242948   6.055   1.599   4.386 -0.5001  0.7193 -0.8959
 7153TIP3   OH242949   3.641   3.848   1.938  0.1510 -0.2374  0.2262
 7153TIP3    H142950   3.700   3.902   1.991 -0.3500  0.5850 -0.0330
 7153TIP3    H242951   3.600   3.789   2.001  1.4501 -1.0098  0.3682
 7154TIP3   OH242952   4.147   1.749   3.547 -0.0193 -0.1365  0.3374
 7154TIP3    H142953   4.109   1.820   3.496  0.0824  0.3716  0.9594
 7154TIP3    H242954   4.196   1.696   3.484  0.6813  0.8752  0.0363
 7155TIP3   OH242955   2.849   1.214  16.676 -0.1588 -0.1703 -0.0871
 7155TIP3    H142956   2.813   1.138  16.721 -3.3197  0.7257 -0.9827
 7155TIP3    H242957   2.920   1.178  16.622 -0.8676 -2.3156  0.3562
 7156TIP3   OH242958   2.520   4.886  15.647  0.1608 -0.0974 -0.4738
 7156TIP3    H142959   2.435   4.863  15.684  1.6018 -0.2174  2.9622
 7156TIP3    H242960   2.549   4.807  15.601 -0.9355 -0.5293 -0.4199
 7157TIP3   OH242961   1.699   0.941  14.887  0.6361 -0.1431 -0.1824
 7157TIP3    H142962   1.729   1.008  14.825 -3.2014  2.2426  0.3960
 7157TIP3    H242963   1.681   0.865  14.832 -1.4822  1.5331 -1.9207
 7158TIP3   OH242964   5.099   0.810  11.580 -0.3311  0.2303 -0.4245
 7158TIP3    H142965   5.104   0.741  11.646  1.0582 -0.2824 -1.0499
 7158TIP3    H242966   5.160   0.877  11.609 -0.6240  0.5623 -0.5634
 7159TIP3   OH242967   2.931   3.234   2.171 -0.0490 -0.0576  0.5410
 7159TIP3    H142968   2.875   3.270   2.102  1.2436 -0.1719 -0.6000
 7159TIP3    H242969   2.874   3.174   2.220 -2.5703  4.2981  3.2131
 7160TIP3   OH242970   0.688   6.167  15.646 -0.3652 -0.0304 -0.1673
 7160TIP3    H142971   0.686   6.155  15.741  0.6653 -0.7082 -0.2097
 7160TIP3    H242972   0.707   6.079  15.612 -1.2954  0.0996 -1.0282
 7161TIP3   OH242973   2.851   3.490   0.170 -0.1733  0.0528 -0.0239
 7161TIP3    H142974   2.808   3.568   0.206 -0.2527  0.9023 -1.9053
 7161TIP3    H242975   2.941   3.517   0.153 -0.0173 -0.4709 -0.0448
 7162TIP3   OH242976   1.932   3.056  11.904  0.1053 -0.2255 -0.0734
 7162TIP3    H142977   1.923   3.056  12.000 -0.4735 -0.7391 -0.1151
 7162TIP3    H242978   1.996   3.124  11.885  1.1144 -0.9172  0.7657
 7163TIP3   OH242979   5.890   2.741   5.680 -0.4737 -0.3637 -0.1006
 7163TIP3    H142980   5.919   2.671   5.623  1.0913 -0.6769  1.0383
 7163TIP3    H242981   5.884   2.818   5.624  0.6022 -0.7669 -0.7586
 7164TIP3   OH242982   6.641   6.339  12.733 -0.6533 -0.1578  0.3389
 7164TIP3    H142983   6.694   6.417  12.751  1.2191 -1.0200 -1.3821
 7164TIP3    H242984   6.550   6.370  12.742  0.0650  2.1481 -0.0117
 7165TIP3   OH242985   5.477   6.223   1.886  0.3671  0.2956 -0.4719
 7165TIP3    H142986   5.449   6.306   1.925  2.1456  0.8713 -0.3770
 7165TIP3    H242987   5.463   6.234   1.792 -0.9869  0.0604 -0.3096
 7166TIP3   OH242988   4.516   6.567  10.521 -0.2053 -0.7277 -0.3070
 7166TIP3    H142989   4.457   6.491  10.516 -0.9895 -0.1844  0.4556
 7166TIP3    H242990   4.512   6.606  10.434  0.5815 -1.8268 -0.8562
 7167TIP3   OH242991   2.422   6.194   4.826 -0.4887  0.5660  0.1229
 7167TIP3    H142992   2.515   6.198   4.806 -0.1306  0.1824  1.6194
 7167TIP3    H242993   2.379   6.233   4.750  0.9541  1.7524 -0.1062
 7168TIP3   OH242994   6.808   4.489  14.627 -0.9798  0.1588  0.3181
 7168TIP3    H142995   6.755   4.460  14.552  0.6516 -0.0010 -0.8137
 7168TIP3    H242996   6.757   4.466  14.704 -1.7940 -1.5130 -0.7095
 7169TIP3   OH242997   5.765   3.432  10.912 -0.1670  0.4096  0.3255
 7169TIP3    H142998   5.840   3.373  10.915 -1.4812 -1.4163 -1.3668
 7169TIP3    H242999   5.723   3.422  10.997 -0.4085 -1.2026  0.0392
 7170TIP3   OH243000   1.964   5.638   0.464  0.5276 -0.1213  0.3314
 7170TIP3    H143001   1.915   5.637   0.382  0.5272  1.4352  0.3009
 7170TIP3    H243002   1.908   5.593   0.527 -0.7567  1.2383  0.1830
 7171TIP3   OH243003   0.888   5.309  16.795  0.3082  0.1180 -0.1985
 7171TIP3    H143004   0.940   5.231  16.776  1.2771 -0.2747  3.6402
 7171TIP3    H243005   0.807   5.275  16.834  1.5195  0.9394  3.2857
 7172TIP3   OH243006   4.119   3.074  11.245 -0.1818 -0.8092 -0.2643
 7172TIP3    H143007   4.199   3.033  11.213 -0.8397 -0.0719 -2.9869
 7172TIP3    H243008   4.092   3.133  11.174 -1.1575  1.7021  2.1055
 7173TIP3   OH243009   5.516   5.548  17.078 -0.0312 -0.0495 -0.1825
 7173TIP3    H143010   5.490   5.634  17.043  0.5297  0.5386  0.8608
 7173TIP3    H243011   5.462   5.538  17.157 -0.0978 -0.6623 -0.3059
 7174TIP3   OH243012   3.128   6.272   2.457  0.1360  0.3918  0.1415
 7174TIP3    H143013   3.198   6.213   2.486  0.1173  0.4920  0.3941
 7174TIP3    H243014   3.049   6.237   2.498  0.0262  0.2380 -0.1992
 7175TIP3   OH243015   5.922   0.511   2.509  0.2419  1.1754 -0.4748
 7175TIP3    H143016   6.016   0.529   2.515  0.4597 -0.1721  0.2440
 7175TIP3    H243017   5.912   0.468   2.424  0.1200  2.1197 -0.9573
 7176TIP3   OH243018   2.921   1.558  12.850 -0.3492 -0.3853 -0.1297
 7176TIP3    H143019   2.903   1.532  12.940  0.7052  1.1173  0.5462
 7176TIP3    H243020   2.913   1.654  12.851  1.2105 -0.2273 -1.2397
 7177TIP3   OH243021   4.287   2.651   0.106  0.6665 -0.0660 -0.6352
 7177TIP3    H143022   4.311   2.558   0.108  0.8716 -0.0090  1.1500
 7177TIP3    H243023   4.323   2.686   0.188 -1.2582  1.1213 -0.2602
 7178TIP3   OH243024   1.888   4.084  14.599  0.0840  0.1474 -0.1822
 7178TIP3    H143025   1.813   4.051  14.550  0.6199 -1.0263 -0.2226
 7178TIP3    H243026   1.912   4.165  14.556 -1.5216  0.8302  0.1770
 7179TIP3   OH243027   0.722   0.244  15.323 -0.3078  0.2468  0.4326
 7179TIP3    H143028   0.683   0.236  15.410 -0.3420  2.0481  0.6074
 7179TIP3    H243029   0.810   0.280  15.340 -1.1829  2.9363 -0.3922
 7180TIP3   OH243030   5.942   3.388  14.642  0.4186 -0.5194 -0.0368
 7180TIP3    H143031   5.866   3.354  14.593  0.1987  0.9757 -0.7564
 7180TIP3    H243032   5.911   3.395  14.732  0.1648 -1.3073 -0.0595
 7181TIP3   OH243033   5.902   4.392   3.021 -0.0612 -0.2610  0.2237
 7181TIP3    H143034   5.954   4.431   3.090 -1.1065  0.2607  0.7360
 7181TIP3    H243035   5.827   4.451   3.012 -1.2240 -1.6870  0.4281
 7182TIP3   OH243036   6.254   5.501  15.379  0.2068 -0.3984 -0.5432
 7182TIP3    H143037   6.178   5.558  15.368  0.1919 -0.2509  0.2787
 7182TIP3    H243038   6.266   5.495  15.474  0.4335 -1.4716 -0.6310
 7183TIP3   OH243039   1.492   2.240   4.597 -0.1413  0.0147 -0.5463
 7183TIP3    H143040   1.508   2.253   4.691 -1.2013 -1.8843 -0.0739
 7183TIP3    H243041   1.579   2.240   4.558  0.4413 -0.8504  0.6889
 7184TIP3   OH243042   6.112   0.904   1.183  0.7003 -0.0592  0.7932
 7184TIP3    H143043   6.099   0.877   1.092  0.9245 -1.0205  1.0446
 7184TIP3    H243044   6.039   0.863   1.230 -0.4870  1.9379  0.7660
 7185TIP3   OH243045   1.203   6.775   1.069  0.1333  0.0230  0.2941
 7185TIP3    H143046   1.171   6.728   1.146 -0.2655 -0.1065  0.0521
 7185TIP3    H243047   1.190   6.713   0.997 -0.2119  0.4347  0.0029
 7186TIP3   OH243048   0.522   3.229  13.352  0.0928 -0.4130 -0.2271
 7186TIP3    H143049   0.505   3.232  13.446 -0.1533 -1.9200 -0.2025
 7186TIP3    H243050   0.582   3.155  13.342  0.1075 -0.2619 -1.2537
 7187TIP3   OH243051   4.300   6.337  16.645 -0.6867 -0.1774 -0.2281
 7187TIP3    H143052   4.205   6.330  16.659 -1.1623  1.0922 -2.5410
 7187TIP3    H243053   4.327   6.251  16.615 -0.8051 -0.9924  1.8924
 7188TIP3   OH243054   2.193   0.544   0.631  0.0549  0.1788  0.3951
 7188TIP3    H143055   2.201   0.599   0.553  3.3123 -1.3320 -0.4128
 7188TIP3    H243056   2.195   0.606   0.704  0.6943  1.3535 -0.6064
 7189TIP3   OH243057   6.564   4.048  15.955  0.5477  0.0495  0.0958
 7189TIP3    H143058   6.592   3.984  15.890 -0.5029 -0.0063 -0.3115
 7189TIP3    H243059   6.641   4.063  16.009  1.4382  0.1012 -1.1676
 7190TIP3   OH243060   6.055   6.039   5.719 -0.5721  0.7445 -0.6566
 7190TIP3    H143061   6.039   5.953   5.681  0.6476  0.7462 -1.1936
 7190TIP3    H243062   5.996   6.043   5.794 -0.7986 -0.4705 -0.7536
 7191TIP3   OH243063   1.740   3.409  11.858  0.4239 -0.7413  0.7542
 7191TIP3    H143064   1.707   3.367  11.778  2.2759  0.5968 -0.7600
 7191TIP3    H243065   1.694   3.492  11.862 -0.5422 -1.3174  1.7487
 7192TIP3   OH243066   6.666   5.292  11.424 -0.2629 -0.2266  0.2802
 7192TIP3    H143067   6.578   5.329  11.425 -0.5366 -0.8015 -1.0598
 7192TIP3    H243068   6.701   5.314  11.338 -0.4211 -2.9661 -0.5350
 7193TIP3   OH243069   2.185   3.754   4.860 -0.1761  0.2494 -0.3125
 7193TIP3    H143070   2.159   3.726   4.948  1.8341  0.4113  0.3473
 7193TIP3    H243071   2.232   3.679   4.824  0.6225  0.8622 -0.5423
 7194TIP3   OH243072   4.638   3.996   5.450 -0.3216 -0.1825  0.4210
 7194TIP3    H143073   4.719   4.047   5.450 -1.1066  1.0629 -0.3012
 7194TIP3    H243074   4.603   4.006   5.361 -0.7737 -1.5199  0.4339
 7195TIP3   OH243075   4.776   4.985  14.938 -0.2224  0.6043  0.2176
 7195TIP3    H143076   4.797   5.055  14.999  0.9063 -0.2256  0.8156
 7195TIP3    H243077   4.690   4.952  14.966  0.6328 -0.2882  1.8673
 7196TIP3   OH243078   5.352   0.177  15.472  1.0556 -0.7208 -0.1633
 7196TIP3    H143079   5.264   0.213  15.460  0.5617 -1.1832  1.9446
 7196TIP3    H243080   5.405   0.252  15.501  0.7931 -0.9737  0.9664
 7197TIP3   OH243081   6.728   2.193  15.627 -0.4266  0.1070  0.4111
 7197TIP3    H143082   6.809   2.186  15.577 -0.5422  0.5206  0.1558
 7197TIP3    H243083   6.662   2.216  15.562 -0.4351  1.4406  0.8610
 7198TIP3   OH243084   2.860   6.426   1.434  0.7251 -0.0755 -0.2392
 7198TIP3    H143085   2.797   6.451   1.367  0.1452 -0.3570  0.2019
 7198TIP3    H243086   2.884   6.509   1.476  0.2253 -0.0300 -0.0373
 7199TIP3   OH243087   2.910   1.296  14.897 -0.0533  0.1116 -0.2140
 7199TIP3    H143088   2.964   1.241  14.954  0.3959  1.1865  0.4086
 7199TIP3    H243089   2.831   1.312  14.948 -0.7306 -0.9904 -0.9007
 7200TIP3   OH243090   0.405   5.607  12.433  0.0825 -0.3713 -0.2023
 7200TIP3    H143091   0.427   5.682  12.377 -0.6703 -0.2482 -0.3362
 7200TIP3    H243092   0.313   5.619  12.454 -0.1586 -1.5117 -0.6006
 7201TIP3   OH243093   6.727   2.246   6.552  0.6679 -0.0101  0.0245
 7201TIP3    H143094   6.786   2.321   6.564  0.0107  0.3819  0.9290
 7201TIP3    H243095   6.641   2.286   6.536  0.2931 -0.5652  0.6111
 7202TIP3   OH243096   1.173   3.801   1.569  0.9386  0.0223  0.3129
 7202TIP3    H143097   1.183   3.789   1.664 -0.1744 -0.1130  0.4197
 7202TIP3    H243098   1.086   3.766   1.550  1.3074 -0.2868 -0.8201
 7203TIP3   OH243099   3.324   5.472   1.519 -0.1550  0.0208  0.1022
 7203TIP3    H143100   3.350   5.414   1.447  0.0798 -0.1862  0.3531
 7203TIP3    H243101   3.239   5.507   1.492 -0.4974 -0.7710  0.1375
 7204TIP3   OH243102   3.470   5.389   1.287 -0.1162 -0.4053 -0.0980
 7204TIP3    H143103   3.563   5.369   1.276 -0.1661 -0.1872 -0.9547
 7204TIP3    H243104   3.425   5.332   1.224 -0.6657 -1.4018  1.1652
 7205TIP3   OH243105   1.511   0.511  15.778 -0.4642 -0.2019  0.1973
 7205TIP3    H143106   1.595   0.547  15.806  0.3893 -1.7290 -0.3417
 7205TIP3    H243107   1.464   0.586  15.742  0.7971  0.6195  0.2261
 7206TIP3   OH243108   0.818   0.142  17.219  0.1186  0.1738  0.2406
 7206TIP3    H143109   0.895   0.114  17.170  0.2968 -1.9113  1.6291
 7206TIP3    H243110   0.848   0.213  17.274  0.8181  0.0180  0.0599
 7207TIP3   OH243111   0.492   0.367   3.437  0.2761  0.3708  0.1439
 7207TIP3    H143112   0.449   0.285   3.413  0.4019  0.0736  0.9151
 7207TIP3    H243113   0.505   0.413   3.354  0.8194 -0.6898 -0.3628
 7208TIP3   OH243114   1.953   5.839   2.102 -0.2068 -0.0524  0.1308
 7208TIP3    H143115   1.976   5.834   2.195 -2.1721  1.8014  0.7673
 7208TIP3    H243116   1.879   5.778   2.092 -1.0400  0.9300  0.1663
 7209TIP3   OH243117   3.649   2.551  14.161 -0.2427  0.3365 -0.1060
 7209TIP3    H143118   3.689   2.468  14.189 -0.0224  0.2807 -0.5775
 7209TIP3    H243119   3.649   2.606  14.239 -1.3033 -0.4575  0.4835
 7210TIP3   OH243120   3.255   4.583   3.960 -0.0426  0.0747  0.1371
 7210TIP3    H143121   3.277   4.541   3.877 -0.7667 -0.4832  0.2220
 7210TIP3    H243122   3.331   4.567   4.016 -0.1734 -0.8545  0.0632
 7211TIP3   OH243123   3.804   1.525  16.049 -0.0763 -0.3331  0.0548
 7211TIP3    H143124   3.744   1.568  16.110 -0.1882 -0.7570  0.2486
 7211TIP3    H243125   3.841   1.452  16.099  1.6472  0.7348  0.3937
 7212TIP3   OH243126   2.579   1.101   0.485 -0.5545  1.0676 -0.6484
 7212TIP3    H143127   2.507   1.155   0.452 -0.2974  1.8661  0.0735
 7212TIP3    H243128   2.616   1.152   0.558  0.3832  0.4117 -0.6543
 7213TIP3   OH243129   6.770   1.628  13.301  0.5456  0.1139  0.2876
 7213TIP3    H143130   6.713   1.552  13.305  1.5551 -0.8543 -2.3752
 7213TIP3    H243131   6.720   1.694  13.254  1.1239 -0.2937 -0.9164
 7214TIP3   OH243132   0.297   5.922   0.511  0.7251 -0.2041  0.5923
 7214TIP3    H143133   0.362   5.935   0.443  1.7864 -0.2877  1.5828
 7214TIP3    H243134   0.253   6.007   0.518  1.3908  0.1426  0.6035
 7215TIP3   OH243135   0.288   0.563  11.390  0.1521  0.6175 -0.7681
 7215TIP3    H143136   0.381   0.580  11.403  0.1227 -0.2166  0.5511
 7215TIP3    H243137   0.284   0.472  11.360 -0.2871  0.4189 -0.1214
 7216TIP3   OH243138   4.684   6.061  14.181  0.7989  0.0679  0.3741
 7216TIP3    H143139   4.740   6.128  14.220  3.7171 -0.8838 -1.9364
 7216TIP3    H243140   4.744   5.989  14.161 -1.0567 -0.6593 -3.0239
 7217TIP3   OH243141   5.464   4.335  15.576  0.3994 -0.3982  0.2848
 7217TIP3    H143142   5.383   4.334  15.627  0.0414 -0.3632 -0.2764
 7217TIP3    H243143   5.499   4.246  15.585 -0.5756 -0.9180 -0.8421
 7218TIP3   OH243144   6.775   0.268  14.697  0.3728 -0.2312  0.0139
 7218TIP3    H143145   6.720   0.264  14.775 -1.0677 -2.5964 -1.0668
 7218TIP3    H243146   6.859   0.232  14.724 -0.2972 -1.5662  0.3518
 7219TIP3   OH243147   5.705   0.363   5.037 -0.5792 -0.3976 -0.2449
 7219TIP3    H143148   5.714   0.454   5.064 -0.3920 -0.8361  1.1819
 7219TIP3    H243149   5.776   0.317   5.082 -0.9489 -1.3243 -0.5897
 7220TIP3   OH243150   2.147   0.817   2.067  0.1322 -0.0597 -0.1151
 7220TIP3    H143151   2.060   0.855   2.059 -0.0897 -0.5475 -0.0590
 7220TIP3    H243152   2.161   0.807   2.161  0.5992  0.8039 -0.0831
 7221TIP3   OH243153   5.199   4.435   2.129  0.2934  0.0557 -0.1170
 7221TIP3    H143154   5.140   4.389   2.069 -0.4801 -0.1926  0.8367
 7221TIP3    H243155   5.150   4.511   2.159  0.2670 -0.4202  1.0705
 7222TIP3   OH243156   2.333   3.746   1.629 -0.0649  0.0558  0.2759
 7222TIP3    H143157   2.375   3.731   1.544  2.8341  0.0053  1.6833
 7222TIP3    H243158   2.307   3.659   1.659 -1.0870  0.0709 -0.5038
 7223TIP3   OH243159   5.863   5.721   1.095 -0.5180  0.1587 -0.5598
 7223TIP3    H143160   5.807   5.644   1.109 -1.6981  1.0114 -0.4426
 7223TIP3    H243161   5.938   5.707   1.152 -0.3870 -1.2384 -1.0597
 7224TIP3   OH243162   5.756   2.552   0.258 -0.0401 -0.1196  0.2470
 7224TIP3    H143163   5.740   2.476   0.314  0.4100 -0.0803  0.4330
 7224TIP3    H243164   5.678   2.559   0.204 -0.8308  0.3150  1.4181
 7225TIP3   OH243165   5.728   4.720   4.822  0.4658  0.3517 -0.3920
 7225TIP3    H143166   5.686   4.640   4.791 -0.9623  1.5893 -1.7673
 7225TIP3    H243167   5.821   4.698   4.828 -0.1387 -1.9645  1.1247
 7226TIP3   OH243168   2.795   1.914  10.542  0.2512 -0.0647 -0.4789
 7226TIP3    H143169   2.759   2.002  10.541  0.0279 -0.1518 -2.8367
 7226TIP3    H243170   2.730   1.862  10.591 -0.4225  0.7322 -0.5276
 7227TIP3   OH243171   3.770   6.010   1.006 -0.2992  0.3326  0.1195
 7227TIP3    H143172   3.691   6.054   1.036 -2.1710 -0.9318 -2.7128
 7227TIP3    H243173   3.763   5.921   1.042  0.3812  0.5460  0.7747
 7228TIP3   OH243174   2.283   5.637  11.786 -0.4229 -0.5480  0.3098
 7228TIP3    H143175   2.261   5.558  11.835  1.8750 -0.7700  1.0414
 7228TIP3    H243176   2.333   5.607  11.711  1.4565  0.2640  1.2012
 7229TIP3   OH243177   0.127   2.943   3.634 -0.1282 -0.6355 -0.1664
 7229TIP3    H143178   0.156   2.946   3.543  0.5459 -1.5908  0.0061
 7229TIP3    H243179   0.183   3.006   3.679 -0.6027 -0.0103 -0.4496
 7230TIP3   OH243180   5.293   3.155   4.987  0.6818 -0.7094  0.0349
 7230TIP3    H143181   5.264   3.237   4.948  1.9619 -0.8495 -1.2489
 7230TIP3    H243182   5.286   3.091   4.916 -0.1430 -1.6798  0.9760
 7231TIP3   OH243183   0.181   6.213  16.330 -0.2704 -0.5120 -0.0516
 7231TIP3    H143184   0.264   6.166  16.342 -0.5170 -0.9283  0.0540
 7231TIP3    H243185   0.207   6.300  16.301  0.1773 -0.8790 -0.7738
 7232TIP3   OH243186   5.619   0.243   1.547 -0.4917  0.4949  0.4666
 7232TIP3    H143187   5.708   0.240   1.583  0.2229  0.0848 -1.2747
 7232TIP3    H243188   5.570   0.297   1.608  1.2998  1.8323  0.7568
 7233TIP3   OH243189   2.538   4.960  13.175  0.3813  0.3221 -0.3027
 7233TIP3    H143190   2.515   5.052  13.163  1.3835  0.9156  1.9239
 7233TIP3    H243191   2.633   4.957  13.160  1.2987  0.6928  4.4287
 7234TIP3   OH243192   2.579   2.800  13.910 -0.0617  0.0086  0.3276
 7234TIP3    H143193   2.654   2.741  13.910 -1.2055 -1.4741  0.3064
 7234TIP3    H243194   2.571   2.830  14.000 -0.0969 -0.6812  0.5524
 7235TIP3   OH243195   6.077   5.383   0.998 -0.2582 -0.0155 -0.1331
 7235TIP3    H143196   6.018   5.445   0.955 -1.0061  0.0781  1.0252
 7235TIP3    H243197   6.149   5.372   0.935 -0.6273  1.2230 -0.7910
 7236TIP3   OH243198   3.043   2.992   4.666 -0.3059  0.4447  0.0474
 7236TIP3    H143199   3.079   3.026   4.748  1.0528 -0.2984 -0.2443
 7236TIP3    H243200   3.114   3.000   4.602 -1.0313  0.0948 -0.8278
 7237TIP3   OH243201   6.661   6.696  12.509 -0.0836 -0.0868 -0.3136
 7237TIP3    H143202   6.752   6.678  12.533 -0.1724 -0.9375 -0.5972
 7237TIP3    H243203   6.633   6.765  12.570  0.7710  0.2339 -0.2769
 7238TIP3   OH243204   4.818   1.034  11.126  0.3924  0.1299 -0.5783
 7238TIP3    H143205   4.901   1.009  11.085 -0.0039  0.7318 -1.7810
 7238TIP3    H243206   4.778   0.951  11.153  1.3200 -0.1718 -0.1015
 7239TIP3   OH243207   2.733   2.614   2.091  0.0947  0.1998  0.2818
 7239TIP3    H143208   2.673   2.561   2.039  0.1068 -0.5362  1.0058
 7239TIP3    H243209   2.811   2.623   2.035 -0.3554  0.4485 -0.3135
 7240TIP3   OH243210   0.865   2.912  13.011 -0.1352  0.0927 -1.0536
 7240TIP3    H143211   0.902   2.875  13.091  0.2499 -0.3221 -1.4178
 7240TIP3    H243212   0.820   2.991  13.040  2.1725  1.3452 -0.7839
 7241TIP3   OH243213   0.015   1.968  11.230  0.2708  0.0707 -0.2328
 7241TIP3    H143214   0.047   1.911  11.160 -1.4647  0.5151 -1.4159
 7241TIP3    H243215   0.009   2.055  11.189  1.4898  0.8373  1.1435
 7242TIP3   OH243216   2.282   2.687  11.038  0.5053 -0.3449 -0.1123
 7242TIP3    H143217   2.215   2.748  11.005  0.7547  0.5372  0.9776
 7242TIP3    H243218   2.268   2.607  10.987 -1.0944 -0.0237 -0.2124
 7243TIP3   OH243219   1.786   6.265  15.068 -0.0927 -0.1354  0.2456
 7243TIP3    H143220   1.836   6.335  15.026 -0.3944  0.5536  1.0280
 7243TIP3    H243221   1.852   6.208  15.107  0.1765 -0.5784 -0.8292
 7244TIP3   OH243222   3.582   5.044  11.378  0.3413 -0.2211 -0.7161
 7244TIP3    H143223   3.640   5.114  11.407  0.5741 -1.1121  1.0264
 7244TIP3    H243224   3.562   5.065  11.287  2.4953  0.6918 -0.9860
 7245TIP3   OH243225   2.690   4.626  12.268  0.1871 -0.8655 -0.7322
 7245TIP3    H143226   2.607   4.653  12.308  2.3664  2.6699  1.6877
 7245TIP3    H243227   2.719   4.551  12.320  0.1007 -0.0210  0.5536
 7246TIP3   OH243228   3.638   6.629   1.435 -0.1502 -0.0142  0.1417
 7246TIP3    H143229   3.565   6.580   1.396  1.5057 -1.2156 -1.5402
 7246TIP3    H243230   3.675   6.679   1.362  0.0993  1.3915  1.2058
 7247TIP3   OH243231   6.585   5.148   5.484  0.3945  0.0858 -0.3011
 7247TIP3    H143232   6.549   5.237   5.481  0.2762  0.0123 -1.5154
 7247TIP3    H243233   6.535   5.105   5.553 -0.2463  0.6707 -0.3899
 7248TIP3   OH243234   0.277   2.421  14.487 -0.0848  0.1829  0.0173
 7248TIP3    H143235   0.347   2.391  14.429  0.7221  1.9660  0.0265
 7248TIP3    H243236   0.203   2.437  14.430 -0.2965 -1.0851 -0.0818
 7249TIP3   OH243237   2.610   1.360  13.025 -0.2732  0.4288  0.6150
 7249TIP3    H143238   2.629   1.346  12.933 -0.7136 -0.4685  0.6494
 7249TIP3    H243239   2.671   1.302  13.071 -0.7033  0.1562  0.8448
 7250TIP3   OH243240   6.713   5.120  10.904 -1.4055 -0.2146  0.2636
 7250TIP3    H143241   6.756   5.178  10.967 -0.2772 -1.0124  0.2349
 7250TIP3    H243242   6.766   5.127  10.825 -1.0204 -1.6122  0.3961
 7251TIP3   OH243243   1.069   5.424   1.414  0.0283 -0.1742  0.4836
 7251TIP3    H143244   1.074   5.520   1.421 -1.3191 -0.1578  1.4948
 7251TIP3    H243245   1.159   5.394   1.427  0.7204  1.0353 -1.3350
 7252TIP3   OH243246   2.050   5.587  12.106 -0.4718  0.0424 -0.6577
 7252TIP3    H143247   2.120   5.608  12.167  0.1842  1.9238 -2.0098
 7252TIP3    H243248   2.074   5.502  12.070  0.6799  0.2777 -0.4639
 7253TIP3   OH243249   2.851   3.461  12.525  0.2078 -0.0869 -0.3541
 7253TIP3    H143250   2.940   3.475  12.559 -0.5643 -1.4067  2.2998
 7253TIP3    H243251   2.796   3.520  12.576 -0.1587  2.7303 -3.8252
 7254TIP3   OH243252   3.044   1.452  11.484 -0.1995 -0.1697  0.5858
 7254TIP3    H143253   3.055   1.522  11.419  3.6277 -3.0009 -2.0897
 7254TIP3    H243254   2.964   1.407  11.457 -0.4646  0.7224 -0.1460
 7255TIP3   OH243255   3.029   0.480   2.684 -0.2303 -0.1434 -0.4284
 7255TIP3    H143256   3.051   0.389   2.667  0.0592 -0.7415  2.8764
 7255TIP3    H243257   3.091   0.508   2.751 -0.2290  2.5356 -1.4787
 7256TIP3   OH243258   4.672   3.958  13.158 -0.1265 -0.3561  0.4559
 7256TIP3    H143259   4.644   3.986  13.245 -0.8407 -0.9286  0.4072
 7256TIP3    H243260   4.600   3.906  13.125  0.4143 -0.6797 -0.2229
 7257TIP3   OH243261   5.096   1.656  13.041 -0.3360  0.7285 -0.1085
 7257TIP3    H143262   5.110   1.750  13.057  0.2418  0.5441  0.5006
 7257TIP3    H243263   5.002   1.644  13.051 -0.4107  1.2427 -0.1748
 7258TIP3   OH243264   1.606   3.406  15.225  0.0864 -0.4965 -0.7266
 7258TIP3    H143265   1.547   3.450  15.286 -0.3978 -0.7964 -0.9830
 7258TIP3    H243266   1.558   3.402  15.143  1.0763  0.6847 -1.3753
 7259TIP3   OH243267   2.745   3.913  16.468  0.3960 -0.4656  0.2950
 7259TIP3    H143268   2.676   3.979  16.464 -0.4290 -1.3239  0.1516
 7259TIP3    H243269   2.786   3.926  16.554  0.0487  0.0491  0.3811
 7260TIP3   OH243270   5.665   2.922  11.289  0.0507  0.1492 -0.2414
 7260TIP3    H143271   5.663   2.871  11.370 -1.8578  1.5941  0.6809
 7260TIP3    H243272   5.735   2.986  11.303 -0.4799  0.5992  0.4190
 7261TIP3   OH243273   4.897   3.280   5.665 -0.3375  0.5107  0.6677
 7261TIP3    H143274   4.918   3.284   5.759 -2.5318  0.7207  1.1664
 7261TIP3    H243275   4.890   3.372   5.639 -1.7442  0.4450  0.7801
 7262TIP3   OH243276   3.101   5.002  13.528  0.0321  0.1290  0.0712
 7262TIP3    H143277   3.071   5.063  13.461  1.3038 -0.0537 -0.6874
 7262TIP3    H243278   3.196   5.012  13.528  0.3107 -2.2767 -0.4856
 7263TIP3   OH243279   4.828   5.285   4.352  0.5220 -0.2248 -0.1034
 7263TIP3    H143280   4.782   5.222   4.297  0.5506 -0.5199  0.2134
 7263TIP3    H243281   4.884   5.232   4.408 -0.2514  0.0115  0.9108
 7264TIP3   OH243282   3.347   0.396  14.478  0.1768  0.0647 -0.2884
 7264TIP3    H143283   3.352   0.334  14.405 -1.0664 -0.7750  0.3276
 7264TIP3    H243284   3.424   0.452  14.467  0.1272 -0.2011 -2.1035
 7265TIP3   OH243285   4.620   4.433   5.720  0.4892 -0.2672 -0.1566
 7265TIP3    H143286   4.634   4.393   5.806 -0.2634 -0.2733 -0.0357
 7265TIP3    H243287   4.569   4.512   5.738  1.7447  0.6315 -0.4196
 7266TIP3   OH243288   0.098   6.726  16.610 -0.0966 -0.0820  0.4651
 7266TIP3    H143289   0.087   6.748  16.517 -1.6980 -1.0981  0.3822
 7266TIP3    H243290   0.008   6.711  16.641  0.4145  0.5856  2.2614
 7267TIP3   OH243291   6.202   1.501   0.221  0.1563  0.5903  0.1618
 7267TIP3    H143292   6.212   1.466   0.132 -1.3188  0.8201 -0.1127
 7267TIP3    H243293   6.145   1.577   0.210  0.2539  0.8238  1.2614
 7268TIP3   OH243294   0.748   5.515  16.993 -0.1120 -0.6961  0.4743
 7268TIP3    H143295   0.746   5.429  16.952 -0.7349  0.6060 -2.3290
 7268TIP3    H243296   0.839   5.543  16.984 -0.2104 -0.4873  0.0990
 7269TIP3   OH243297   2.192   5.448  17.175 -0.7216  0.0253 -0.4022
 7269TIP3    H143298   2.125   5.399  17.224  1.0243 -1.1777  0.8350
 7269TIP3    H243299   2.183   5.538  17.205 -2.6665  0.1617 -1.2612
 7270TIP3   OH243300   1.430   3.995   6.065 -0.1394  0.2630 -0.2137
 7270TIP3    H143301   1.460   3.994   6.156 -1.7487  3.3306  0.4034
 7270TIP3    H243302   1.511   3.998   6.014  0.7558 -0.5900  1.1019
 7271TIP3   OH243303   1.600   0.356  12.659  0.0817 -0.0289 -0.5098
 7271TIP3    H143304   1.566   0.268  12.671  4.5517 -1.6346  1.3123
 7271TIP3    H243305   1.609   0.366  12.564 -2.7221 -0.5133 -0.8830
 7272TIP3   OH243306   3.342   0.132   3.160 -0.0398 -0.3258 -0.1346
 7272TIP3    H143307   3.333   0.064   3.226  1.8593 -0.9606 -0.4866
 7272TIP3    H243308   3.311   0.212   3.204  0.3073 -0.9094  1.2155
 7273TIP3   OH243309   4.359   1.875   1.332  0.2374 -0.0941  0.8868
 7273TIP3    H143310   4.361   1.925   1.413  1.1721  0.3711  0.5733
 7273TIP3    H243311   4.387   1.936   1.264  0.5094 -0.7805  0.3650
 7274TIP3   OH243312   5.374   0.040   2.454  0.1194  0.4202  0.1236
 7274TIP3    H143313   5.424   0.116   2.483 -1.7835  2.2938 -1.2880
 7274TIP3    H243314   5.406   0.021   2.366  0.3948 -0.2327  0.3629
 7275TIP3   OH243315   2.838   5.175  13.717  0.1874 -0.4046 -0.0059
 7275TIP3    H143316   2.837   5.140  13.628  0.0954  0.7419 -0.4689
 7275TIP3    H243317   2.842   5.270  13.705 -0.9496 -0.1891  1.1958
 7276TIP3   OH243318   4.330   4.297   2.964  0.7460  0.4835  0.6859
 7276TIP3    H143319   4.302   4.292   3.056  0.5145  2.4226  0.7326
 7276TIP3    H243320   4.419   4.332   2.967  0.2894  1.7060  0.1104
 7277TIP3   OH243321   3.425   0.486   3.874  0.0496  0.3254  0.1035
 7277TIP3    H143322   3.370   0.559   3.846 -2.1747 -0.9447  1.0910
 7277TIP3    H243323   3.365   0.425   3.916  1.9489 -1.9039 -0.3397
 7278TIP3   OH243324   0.971   4.498   3.361 -0.5415 -0.1918  0.0918
 7278TIP3    H143325   0.913   4.491   3.286 -0.1130 -0.8123 -0.1853
 7278TIP3    H243326   1.047   4.446   3.338 -0.6063 -0.7790  1.1377
 7279TIP3   OH243327   0.107   3.250   3.452 -0.7033 -0.0314  0.0279
 7279TIP3    H143328   0.082   3.293   3.370  0.0773  0.7087  0.1784
 7279TIP3    H243329   0.041   3.278   3.515 -2.6521 -2.3893 -0.8523
 7280TIP3   OH243330   0.207   5.429   1.576 -0.8938 -0.1306 -0.1602
 7280TIP3    H143331   0.236   5.337   1.581  1.7919  0.7600  2.2559
 7280TIP3    H243332   0.288   5.479   1.565 -2.2459  2.0352 -0.4837
 7281TIP3   OH243333   0.901   4.245   0.957 -0.3313  0.9311  0.1778
 7281TIP3    H143334   0.941   4.319   0.912 -0.2147  2.0443  2.0673
 7281TIP3    H243335   0.948   4.238   1.039 -1.4396 -0.2076  0.7371
 7282TIP3   OH243336   4.073   4.041   1.780  0.2985 -0.6064  0.4523
 7282TIP3    H143337   4.161   4.068   1.755 -0.1063  0.6799  0.3680
 7282TIP3    H243338   4.047   4.104   1.848 -1.6874  0.9080 -1.6458
 7283TIP3   OH243339   2.259   0.557   0.211  0.1547 -0.3039 -0.0540
 7283TIP3    H143340   2.338   0.547   0.158  1.2245  0.4698  1.3668
 7283TIP3    H243341   2.284   0.619   0.279 -1.5470 -0.4214  0.6837
 7284TIP3   OH243342   2.843   5.431   2.586 -0.1643 -0.0941 -0.2941
 7284TIP3    H143343   2.903   5.453   2.515  0.3891 -0.1496  0.1516
 7284TIP3    H243344   2.767   5.489   2.572 -1.1110 -1.7602 -2.3005
 7285TIP3   OH243345   0.216   5.895   5.652 -0.3666 -0.4686  0.2088
 7285TIP3    H143346   0.226   5.951   5.729  0.0361 -0.3452  0.0648
 7285TIP3    H243347   0.233   5.953   5.578  2.3039 -1.2878  0.1276
 7286TIP3   OH243348   3.534   5.134  11.121  0.3667 -0.4091 -0.2532
 7286TIP3    H143349   3.630   5.131  11.130  0.3563  1.4669  0.6623
 7286TIP3    H243350   3.516   5.220  11.084 -1.0041 -0.5481  0.0842
 7287TIP3   OH243351   4.349   2.927  11.207  0.0649 -0.5958  0.2496
 7287TIP3    H143352   4.400   2.884  11.276  2.6412  0.7745 -0.7207
 7287TIP3    H243353   4.385   2.892  11.125  0.1932  1.1546 -0.4674
 7288TIP3   OH243354   6.757   2.374  15.132 -0.1595  0.2233 -0.4912
 7288TIP3    H143355   6.796   2.433  15.197 -1.1028  0.7870 -0.4255
 7288TIP3    H243356   6.829   2.354  15.072  0.1838  1.4154 -0.4906
 7289TIP3   OH243357   4.410   3.351  12.915  0.7829 -0.3813  0.0697
 7289TIP3    H143358   4.365   3.276  12.954 -2.5748  1.2906 -0.4048
 7289TIP3    H243359   4.341   3.399  12.869  3.4480  1.2893 -2.3303
 7290TIP3   OH243360   6.449   5.117   1.871  0.3695  0.2432  0.7016
 7290TIP3    H143361   6.474   5.195   1.821 -0.0942  0.0260  0.1336
 7290TIP3    H243362   6.430   5.051   1.804 -1.3137  0.2735  1.1355
 7291TIP3   OH243363   6.489   3.292   4.740  0.4208  0.1688 -0.3749
 7291TIP3    H143364   6.508   3.199   4.725  1.7291  0.1770  1.0008
 7291TIP3    H243365   6.400   3.304   4.709  0.1360 -1.6246 -0.3204
 7292TIP3   OH243366   2.526   1.583   3.388 -0.4425  0.3170  0.1171
 7292TIP3    H143367   2.618   1.556   3.383  0.0260  1.8424  0.3959
 7292TIP3    H243368   2.526   1.660   3.445 -1.7782  0.8933 -0.6313
 7293TIP3   OH243369   1.874   5.447   2.594 -0.2953  0.3738 -0.3207
 7293TIP3    H143370   1.798   5.485   2.551 -0.4503  0.4384  0.0021
 7293TIP3    H243371   1.933   5.521   2.609 -0.6488  0.5198  0.4163
 7294TIP3   OH243372   4.867   2.415   2.836  0.5899 -0.0022 -0.1506
 7294TIP3    H143373   4.931   2.464   2.785  1.0739  0.5206  0.9488
 7294TIP3    H243374   4.783   2.434   2.795  0.9683  0.4600 -0.7070
 7295TIP3   OH243375   5.729   0.786  11.141 -0.8945  0.0507  0.1364
 7295TIP3    H143376   5.651   0.839  11.125 -1.1809 -0.9404 -1.9036
 7295TIP3    H243377   5.801   0.839  11.107 -1.1915 -0.8597 -1.9888
 7296TIP3   OH243378   4.894   1.161   6.070  0.0861 -0.0246  0.1450
 7296TIP3    H143379   4.938   1.077   6.060 -0.6137 -0.3071 -0.6640
 7296TIP3    H243380   4.956   1.217   6.116  1.0150 -0.6284 -0.3789
 7297TIP3   OH243381   4.364   3.524  14.490  0.0487 -0.4992 -0.2969
 7297TIP3    H143382   4.342   3.616  14.476 -0.2012 -0.4318  0.5080
 7297TIP3    H243383   4.399   3.494  14.406 -1.7509 -0.2042 -1.1799
 7298TIP3   OH243384   6.371   3.743  11.365  0.0136  0.1635  0.1336
 7298TIP3    H143385   6.393   3.835  11.351 -1.0688  0.4455  0.2805
 7298TIP3    H243386   6.290   3.745  11.416 -0.7133 -0.8762 -0.9771
 7299TIP3   OH243387   6.547   1.037   4.247  0.6758 -0.1052 -0.8410
 7299TIP3    H143388   6.583   1.109   4.299  0.0415 -0.4525  0.0928
 7299TIP3    H243389   6.619   0.974   4.240  0.8716  0.1016 -0.6726
 7300TIP3   OH243390   4.510   3.473  13.245 -0.1206 -0.0717 -0.0213
 7300TIP3    H143391   4.564   3.525  13.186  1.0324 -0.4288  0.7106
 7300TIP3    H243392   4.499   3.389  13.200 -0.8383  0.3269 -0.5857
 7301TIP3   OH243393   3.641   5.480  11.332  0.3469  0.3726 -0.5612
 7301TIP3    H143394   3.557   5.464  11.289 -0.9514  0.9141  1.6499
 7301TIP3    H243395   3.666   5.395  11.368  0.6990  0.2235 -1.1685
 7302TIP3   OH243396   2.028   4.750   3.722 -0.4145  0.0636 -0.2164
 7302TIP3    H143397   1.954   4.719   3.774 -1.1902  1.5837 -0.3681
 7302TIP3    H243398   2.052   4.834   3.762  0.9746 -0.2271 -0.4155
 7303TIP3   OH243399   3.966   3.973   0.051 -0.0190 -0.1207 -0.8324
 7303TIP3    H143400   3.899   3.934   0.107 -0.1712 -0.4134 -1.2209
 7303TIP3    H243401   3.934   3.960  -0.038  0.3890  0.0458 -1.0035
 7304TIP3   OH243402   1.166   2.318   6.528 -0.0341  0.3049 -0.6094
 7304TIP3    H143403   1.094   2.283   6.476 -0.8985 -0.3416  0.9627
 7304TIP3    H243404   1.162   2.269   6.610 -0.7189  3.4101  1.3267
 7305TIP3   OH243405   3.588   6.536  16.685  0.2967 -0.3556  0.3032
 7305TIP3    H143406   3.513   6.530  16.625 -0.4467 -1.3649  1.3096
 7305TIP3    H243407   3.602   6.446  16.713  1.9817 -0.1818  0.0347
 7306TIP3   OH243408   5.009   4.576  13.002 -0.8804  0.4543 -0.3463
 7306TIP3    H143409   4.994   4.670  13.010 -2.1220  0.2931 -0.6095
 7306TIP3    H243410   5.102   4.568  12.982 -0.1482  1.4565  2.4418
 7307TIP3   OH243411   5.167   3.567   2.865  0.1727  0.0934 -0.4384
 7307TIP3    H143412   5.136   3.657   2.874  0.0555  0.1768 -1.6208
 7307TIP3    H243413   5.171   3.534   2.955 -0.3546  1.0827 -0.0450
 7308TIP3   OH243414   2.270   2.382   2.233 -0.2353  0.2773 -0.3302
 7308TIP3    H143415   2.279   2.422   2.320 -0.6875 -0.6553  0.1529
 7308TIP3    H243416   2.255   2.290   2.251  1.1327 -0.1868 -1.4474
 7309TIP3   OH243417   5.743   6.138  15.382  0.2413  0.3645  0.3434
 7309TIP3    H143418   5.737   6.234  15.384 -2.6622  0.2279  0.0197
 7309TIP3    H243419   5.767   6.118  15.292 -0.5778  0.7437  0.0333
 7310TIP3   OH243420   4.861   2.793   0.876  0.3102 -0.0481 -0.2532
 7310TIP3    H143421   4.808   2.865   0.911  2.3205  1.2474  0.1474
 7310TIP3    H243422   4.862   2.808   0.782  0.8904  0.5794 -0.1534
 7311TIP3   OH243423   5.326   1.011  13.995 -0.5104  0.0408 -0.1232
 7311TIP3    H143424   5.393   1.007  13.926  0.8753  1.1664  1.1371
 7311TIP3    H243425   5.280   1.094  13.979 -0.9366 -0.2380 -0.3612
 7312TIP3   OH243426   2.386   1.145   4.139 -0.0757 -0.7408 -0.1149
 7312TIP3    H143427   2.466   1.119   4.094 -0.0120 -2.4950  0.9533
 7312TIP3    H243428   2.316   1.105   4.087 -0.0962 -1.4450  0.4532
 7313TIP3   OH243429   6.614   1.485   0.769 -0.4103 -0.4648 -0.1227
 7313TIP3    H143430   6.549   1.430   0.726 -0.2503 -0.1139 -0.8227
 7313TIP3    H243431   6.632   1.556   0.706  1.6239 -1.2686 -0.5066
 7314TIP3   OH243432   3.636   2.270   1.692 -0.0247  0.3815 -0.3987
 7314TIP3    H143433   3.629   2.181   1.726 -2.0607  0.5772 -0.2846
 7314TIP3    H243434   3.662   2.258   1.600  0.0422 -0.3163 -0.2950
 7315TIP3   OH243435   3.428   5.919  14.361  0.3356  0.2299 -0.5922
 7315TIP3    H143436   3.355   5.857  14.366  1.5756 -1.2387 -0.1514
 7315TIP3    H243437   3.479   5.902  14.440  0.8795  1.5972 -0.6417
 7316TIP3   OH243438   4.227   5.404   4.430  0.1612  0.2784 -0.0681
 7316TIP3    H143439   4.201   5.496   4.427  0.6916  0.5536  2.8178
 7316TIP3    H243440   4.318   5.405   4.458  0.5463 -1.0901 -1.1936
 7317TIP3   OH243441   6.602   1.186  13.774 -0.2462  0.3841  0.4687
 7317TIP3    H143442   6.561   1.221  13.695 -0.7407 -1.5960 -0.1806
 7317TIP3    H243443   6.696   1.189  13.755 -0.4103 -1.1371 -0.6682
 7318TIP3   OH243444   6.281   6.563   3.702 -0.4351 -0.0013  0.3286
 7318TIP3    H143445   6.280   6.478   3.657  0.5584 -0.0462  0.3758
 7318TIP3    H243446   6.279   6.541   3.795 -0.4638  0.0370  0.3374
 7319TIP3   OH243447   4.286   5.867   4.879 -0.5982 -0.2975  0.3980
 7319TIP3    H143448   4.312   5.948   4.922  0.5084 -0.6158  0.3386
 7319TIP3    H243449   4.307   5.798   4.942  0.8617 -0.7451 -0.5370
 7320TIP3   OH243450   0.818   3.905   5.851  0.0480 -0.3166  0.7143
 7320TIP3    H143451   0.854   3.845   5.916  1.9335  0.2322  0.2026
 7320TIP3    H243452   0.827   3.858   5.767  0.8574  0.3796  0.4088
 7321TIP3   OH243453   0.177   0.357  12.219  0.6316 -0.4150  0.1513
 7321TIP3    H143454   0.237   0.423  12.184  1.0385 -1.4508 -1.1530
 7321TIP3    H243455   0.090   0.393  12.203  0.8723  0.8707  1.6004
 7322TIP3   OH243456   1.233   4.824  12.846  0.1200 -0.1730 -0.4069
 7322TIP3    H143457   1.252   4.734  12.874 -0.8656  0.2338  1.6950
 7322TIP3    H243458   1.317   4.869  12.856  0.5119 -0.7380 -1.0437
 7323TIP3   OH243459   1.033   3.265  13.831 -0.3338 -0.1299 -0.7994
 7323TIP3    H143460   1.060   3.253  13.922  1.6347  2.2613 -1.0095
 7323TIP3    H243461   0.951   3.216  13.823  0.2306 -1.5854  1.8465
 7324TIP3   OH243462   6.287   2.323  10.811 -0.0006  0.4888  0.4321
 7324TIP3    H143463   6.254   2.289  10.894 -0.5935  0.8039  0.3321
 7324TIP3    H243464   6.244   2.408  10.801 -1.0997 -0.1862 -0.9102
 7325TIP3   OH243465   6.348   6.747  16.893 -0.2924  0.3859  0.3991
 7325TIP3    H143466   6.337   6.753  16.988 -3.2235 -0.6992  0.1881
 7325TIP3    H243467   6.385   6.660  16.879  0.4603  0.6795  0.5724
 7326TIP3   OH243468   2.746   3.100   0.701  0.2137 -0.0714 -0.4613
 7326TIP3    H143469   2.836   3.082   0.672  0.2456  1.1919 -1.1613
 7326TIP3    H243470   2.735   3.194   0.689 -1.1114 -0.1726 -0.1005
 7327TIP3   OH243471   1.330   5.416  12.491 -0.3748  0.7296  0.6956
 7327TIP3    H143472   1.338   5.457  12.405 -0.7725  0.3942  0.4967
 7327TIP3    H243473   1.375   5.332  12.482  0.2826  1.0346  1.0518
 7328TIP3   OH243474   1.208   0.009  14.373  0.1081 -0.0553  0.5799
 7328TIP3    H143475   1.279   0.065  14.407 -0.4708 -0.2794  2.2131
 7328TIP3    H243476   1.129   0.061  14.385 -0.0125  0.2836 -1.4571
 7329TIP3   OH243477   4.448   5.515  13.695 -0.2249 -0.0235  0.3769
 7329TIP3    H143478   4.427   5.598  13.652  0.5337 -0.1250 -0.2080
 7329TIP3    H243479   4.542   5.502  13.678 -0.6836 -1.8045 -0.9174
 7330TIP3   OH243480   4.284   2.775  11.599 -0.0305  0.3616  0.6344
 7330TIP3    H143481   4.363   2.760  11.547 -0.1819 -0.4470  0.6237
 7330TIP3    H243482   4.306   2.745  11.687  0.0367  1.1919  0.9098
 7331TIP3   OH243483   0.885   5.412   3.632 -0.3040  0.0297 -0.6401
 7331TIP3    H143484   0.794   5.391   3.611  0.2059 -2.8594 -0.1737
 7331TIP3    H243485   0.901   5.495   3.586 -3.3053  0.9045 -0.2717
 7332TIP3   OH243486   5.324   5.624  16.485 -0.2136  0.2281  0.2962
 7332TIP3    H143487   5.352   5.714  16.501  0.7448 -0.0790  0.3670
 7332TIP3    H243488   5.405   5.574  16.478 -0.7458 -0.7725  1.0298
 7333TIP3   OH243489   4.352   5.814  15.072 -0.0290  0.1123  0.0235
 7333TIP3    H143490   4.427   5.849  15.024 -0.4085  2.5291  1.1431
 7333TIP3    H243491   4.295   5.889  15.087 -2.4259 -1.5943 -0.2998
 7334TIP3   OH243492   4.515   6.626   5.633 -0.5520  0.4694  0.7342
 7334TIP3    H143493   4.607   6.610   5.656 -0.4212  0.7415  0.4143
 7334TIP3    H243494   4.519   6.701   5.573 -0.7284 -1.2445 -1.4726
 7335TIP3   OH243495   3.956   5.309   1.830  0.4011  0.7397  0.4066
 7335TIP3    H143496   3.898   5.360   1.773  0.8894  0.4969 -0.3086
 7335TIP3    H243497   3.898   5.245   1.871  0.3563 -0.3433 -1.2831
 7336TIP3   OH243498   1.066   4.534   4.000 -0.1072 -0.3464  0.2217
 7336TIP3    H143499   1.141   4.589   3.975 -0.4307 -0.4253 -0.9514
 7336TIP3    H243500   1.072   4.528   4.095  1.2854 -0.2114  0.1605
 7337TIP3   OH243501   0.681   1.323  12.152 -0.3994 -0.2074 -0.2706
 7337TIP3    H143502   0.718   1.359  12.071  1.2243 -0.9670  0.1164
 7337TIP3    H243503   0.626   1.250  12.122 -2.3140  1.4468 -0.9150
 7338TIP3   OH243504   1.230   1.224  15.916  0.0451 -0.7839  0.2799
 7338TIP3    H143505   1.212   1.200  15.825 -0.7752  0.6630  0.0450
 7338TIP3    H243506   1.171   1.169  15.967  0.2358 -1.3290 -0.0751
 7339TIP3   OH243507   5.905   6.060  15.756 -0.0560 -0.0831  0.3072
 7339TIP3    H143508   5.910   6.107  15.840  2.1711  0.6538 -0.1862
 7339TIP3    H243509   5.964   5.985  15.768  1.2345  0.7155 -1.0124
 7340TIP3   OH243510   3.652   1.145  16.306  0.1467 -0.0346 -0.0756
 7340TIP3    H143511   3.634   1.059  16.342 -1.7870 -0.1430 -1.2420
 7340TIP3    H243512   3.656   1.203  16.383 -0.6540 -0.7990  0.5515
 7341TIP3   OH243513   5.983   6.725   5.473  0.1929  0.0973 -0.0077
 7341TIP3    H143514   6.014   6.752   5.559 -1.5085  0.2072  0.5966
 7341TIP3    H243515   6.021   6.789   5.413 -0.6578  1.5728  0.9701
 7342TIP3   OH243516   3.990   6.207  13.815 -0.4845 -0.5597  0.3233
 7342TIP3    H143517   3.943   6.284  13.848 -1.5059 -0.2048 -1.8411
 7342TIP3    H243518   4.082   6.230  13.821 -0.7880  0.9091 -0.4299
 7343TIP3   OH243519   5.606   4.899  15.346 -0.7040  0.1375  0.6024
 7343TIP3    H143520   5.513   4.875  15.356 -0.9202  0.2056 -1.0289
 7343TIP3    H243521   5.604   4.993  15.329 -0.2299  0.3841  1.9050
 7344TIP3   OH243522   6.674   2.359  13.830 -0.0715  0.1244  0.0058
 7344TIP3    H143523   6.683   2.308  13.910  0.3789 -0.3599 -0.3595
 7344TIP3    H243524   6.740   2.428  13.837  1.3126 -1.0982 -0.8615
 7345TIP3   OH243525   5.485   3.426   1.755 -0.6661  0.5506 -0.4939
 7345TIP3    H143526   5.505   3.434   1.849 -0.5737 -0.3865 -0.4343
 7345TIP3    H243527   5.571   3.416   1.714 -0.7785 -0.0512 -0.5790
 7346TIP3   OH243528   3.847   4.054  16.001 -0.6094 -0.3859 -0.5661
 7346TIP3    H143529   3.844   4.070  16.095 -0.2033 -1.9909 -0.2608
 7346TIP3    H243530   3.859   3.959  15.993 -1.5516 -0.3861 -2.2461
 7347TIP3   OH243531   1.944   4.333  17.243  0.3571  0.2118  0.1425
 7347TIP3    H143532   1.956   4.249  17.200 -0.3953  0.7719 -1.2173
 7347TIP3    H243533   1.996   4.395  17.191 -0.8483  0.9610 -0.1974
 7348TIP3   OH243534   4.214   2.053   0.283 -0.3860  0.1514  0.0943
 7348TIP3    H143535   4.173   2.115   0.224 -0.9069 -0.5050 -0.2411
 7348TIP3    H243536   4.205   1.968   0.239 -0.8551 -0.3546  1.1494
 7349TIP3   OH243537   2.313   2.481  10.864  0.1358  0.2162 -0.0805
 7349TIP3    H143538   2.276   2.518  10.784 -0.1374 -1.4029 -0.7258
 7349TIP3    H243539   2.336   2.391  10.840 -1.1189 -0.7055  2.0175
 7350TIP3   OH243540   1.288   2.401  16.203  0.0377  0.2208 -0.0273
 7350TIP3    H143541   1.295   2.497  16.199 -1.4883  0.4117  1.3172
 7350TIP3    H243542   1.291   2.373  16.112 -0.2034  1.6108 -0.4765
 7351TIP3   OH243543   1.836   3.844  17.229 -0.0286  0.4253 -0.2838
 7351TIP3    H143544   1.778   3.853  17.304  0.2111 -1.5090  0.1591
 7351TIP3    H243545   1.907   3.906  17.245  0.1868 -0.2094  1.2483
 7352TIP3   OH243546   2.174   1.574   5.220  0.3142  0.6023  0.0525
 7352TIP3    H143547   2.205   1.636   5.154  2.2701  0.8429  1.1461
 7352TIP3    H243548   2.212   1.490   5.194 -0.1771  0.3859  0.0241
 7353TIP3   OH243549   1.437   1.689   3.505 -0.1532  0.5990  0.3127
 7353TIP3    H143550   1.464   1.713   3.593  0.1966  1.0215  0.0894
 7353TIP3    H243551   1.362   1.745   3.487  2.0172  3.1431 -1.0604
 7354TIP3   OH243552   2.175   0.228  17.209  0.3245  0.2356  0.2584
 7354TIP3    H143553   2.152   0.233  17.302  0.2644  1.2234  0.2003
 7354TIP3    H243554   2.262   0.267  17.203  0.2582  0.3354 -0.1182
 7355TIP3   OH243555   4.065   4.564  12.677 -0.6934  0.3538 -0.3954
 7355TIP3    H143556   4.077   4.632  12.610  0.4050  1.4622  0.9065
 7355TIP3    H243557   4.000   4.600  12.737 -0.5411  0.0093 -0.0210
 7356TIP3   OH243558   1.537   5.600   4.038 -0.4800  0.2285  0.3299
 7356TIP3    H143559   1.589   5.520   4.044 -2.0115 -0.7918  0.5061
 7356TIP3    H243560   1.576   5.659   4.102  0.0317 -0.7641  0.9539
 7357TIP3   OH243561   2.235   0.439  14.788  0.0449 -0.0858  0.3314
 7357TIP3    H143562   2.173   0.456  14.859  0.6619  1.1162  0.5954
 7357TIP3    H243563   2.192   0.474  14.710  0.5209  1.0420  0.5683
 7358TIP3   OH243564   5.482   0.532   4.810  0.3410 -0.3476  0.3303
 7358TIP3    H143565   5.421   0.592   4.768  1.2491  0.6246  0.3568
 7358TIP3    H243566   5.475   0.552   4.903  2.3113  1.3676  0.1558
 7359TIP3   OH243567   4.509   4.555   2.202  0.0041 -0.1386  0.0387
 7359TIP3    H143568   4.502   4.644   2.166  3.8353  0.6734  1.0311
 7359TIP3    H243569   4.555   4.506   2.134 -2.4743 -1.5194 -0.6756
 7360TIP3   OH243570   1.960   3.276  14.514  0.2508  0.2085 -0.2054
 7360TIP3    H143571   1.924   3.356  14.554  2.6076  0.2360  1.9545
 7360TIP3    H243572   1.890   3.211  14.524 -1.3706  1.7475 -1.2257
 7361TIP3   OH243573   3.153   4.154   2.571 -0.8484  0.4121 -0.1445
 7361TIP3    H143574   3.183   4.151   2.481  2.5198  0.5011  0.9104
 7361TIP3    H243575   3.080   4.093   2.575  1.0023 -1.9962 -2.2011
 7362TIP3   OH243576   2.594   0.620  12.379  0.4875 -0.0576 -0.3945
 7362TIP3    H143577   2.569   0.701  12.333 -0.7217  0.4250  1.0658
 7362TIP3    H243578   2.665   0.647  12.437 -1.0393  0.3979  1.3499
 7363TIP3   OH243579   5.444   2.684   1.381  0.3554 -0.0863  0.1956
 7363TIP3    H143580   5.442   2.589   1.395 -2.9606 -0.0599  0.2765
 7363TIP3    H243581   5.520   2.714   1.431  0.6248 -2.5402  1.3250
 7364TIP3   OH243582   2.922   1.621   4.392  0.4916  0.5675  0.7491
 7364TIP3    H143583   2.939   1.658   4.479  1.1924 -2.1132  1.7855
 7364TIP3    H243584   2.871   1.542   4.409  0.8088 -0.1019 -1.2877
 7365TIP3   OH243585   3.362   6.283  17.016  0.4753  0.0679  0.3061
 7365TIP3    H143586   3.438   6.292  17.073  1.2742  0.6063 -0.8499
 7365TIP3    H243587   3.300   6.349  17.048  1.5509  1.4577 -0.4492
 7366TIP3   OH243588   4.521   3.692   0.885  0.0195  0.1120 -0.1452
 7366TIP3    H143589   4.504   3.646   0.967 -2.0871  0.7077 -0.2160
 7366TIP3    H243590   4.436   3.696   0.842  1.4423 -1.9685 -3.3155
 7367TIP3   OH243591   5.316   3.958   3.853  0.3038 -0.5021 -0.1471
 7367TIP3    H143592   5.265   3.933   3.775 -1.1356  1.9261 -0.0499
 7367TIP3    H243593   5.328   3.877   3.901  0.5776 -1.9307 -2.5346
 7368TIP3   OH243594   4.340   4.709  15.382 -0.6254 -0.4665 -0.1993
 7368TIP3    H143595   4.345   4.715  15.287 -1.9219  0.5529 -0.2159
 7368TIP3    H243596   4.300   4.791  15.409  1.3204  0.0164  1.3720
 7369TIP3   OH243597   5.824   0.943   0.539  0.1420 -0.0872 -0.1209
 7369TIP3    H143598   5.800   1.035   0.527  1.8198  0.2697 -0.8095
 7369TIP3    H243599   5.816   0.904   0.452 -0.4267 -0.5819  0.1419
 7370TIP3   OH243600   3.382   5.665  16.059  0.1562  0.4809 -0.2044
 7370TIP3    H143601   3.315   5.598  16.070  0.7205 -0.0136  0.2599
 7370TIP3    H243602   3.420   5.649  15.973  2.3805 -1.7201  1.1332
 7371TIP3   OH243603   3.026   2.811  12.006  0.0695 -0.0714 -0.3646
 7371TIP3    H143604   2.959   2.743  12.013  0.4831 -0.3544  0.8419
 7371TIP3    H243605   3.023   2.858  12.089  1.1804  0.0863 -0.3991
 7372TIP3   OH243606   5.590   3.975  12.501 -0.2109 -0.4027  0.1579
 7372TIP3    H143607   5.551   4.059  12.477  0.0898 -0.5467 -0.8658
 7372TIP3    H243608   5.565   3.915  12.430  1.3439 -0.6457 -0.2037
 7373TIP3   OH243609   6.205   5.927   4.272 -0.3134 -0.0598 -0.4256
 7373TIP3    H143610   6.259   5.896   4.345 -0.3311  0.7805 -0.0533
 7373TIP3    H243611   6.116   5.924   4.305 -0.4592 -1.0295 -0.8939
 7374TIP3   OH243612   0.929   2.271   0.121 -0.0724  0.4098  0.0918
 7374TIP3    H143613   0.968   2.195   0.078 -1.3221 -1.2360  1.7769
 7374TIP3    H243614   1.000   2.334   0.128  1.0537 -0.7059 -1.1168
 7375TIP3   OH243615   2.659   3.520  13.583  0.1909 -0.3612 -0.1693
 7375TIP3    H143616   2.751   3.513  13.610  0.0438 -0.0148  0.4336
 7375TIP3    H243617   2.656   3.596  13.526  0.1919 -0.0731  0.2097
 7376TIP3   OH243618   0.684   3.146   0.080 -0.4726  0.1174  0.4889
 7376TIP3    H143619   0.680   3.058   0.044 -0.7608 -0.2462  1.3810
 7376TIP3    H243620   0.777   3.162   0.096 -0.4288 -0.0652  0.4107
 7377TIP3   OH243621   4.919   5.537   0.907 -0.1088  0.3630 -0.1908
 7377TIP3    H143622   4.915   5.471   0.838 -0.2136  0.0502  0.1083
 7377TIP3    H243623   4.934   5.486   0.987  0.1671  0.7341 -0.0050
 7378TIP3   OH243624   6.280   5.653   3.113 -0.5188  0.0848  0.4937
 7378TIP3    H143625   6.310   5.723   3.055 -0.4660 -2.3061 -2.5227
 7378TIP3    H243626   6.355   5.594   3.122 -1.1574 -0.6250  1.3238
 7379TIP3   OH243627   0.055   5.699   6.011 -0.8098  0.8528  0.1626
 7379TIP3    H143628   0.111   5.652   5.951 -1.7230 -0.2837  0.1872
 7379TIP3    H243629   0.108   5.710   6.090 -0.3440  0.5184 -0.1022
 7380TIP3   OH243630   5.097   1.709   1.985 -0.2964  0.3892  0.1925
 7380TIP3    H143631   5.134   1.768   1.919 -1.7510  2.0336  0.8237
 7380TIP3    H243632   5.019   1.672   1.943 -0.3099  0.1771  0.4037
 7381TIP3   OH243633   1.262   4.217   4.568 -0.1583 -0.2801 -0.0628
 7381TIP3    H143634   1.200   4.199   4.638  0.4706 -0.2126  0.5171
 7381TIP3    H243635   1.208   4.244   4.494 -0.8320 -0.4670  0.3587
 7382TIP3   OH243636   6.701   6.461  17.066  0.0485 -0.1983  0.2723
 7382TIP3    H143637   6.744   6.489  16.985 -0.4060  0.6118  0.3056
 7382TIP3    H243638   6.766   6.476  17.135  0.0311  0.2068  0.2053
 7383TIP3   OH243639   1.109   0.378  17.109 -0.2232 -0.2300 -0.8544
 7383TIP3    H143640   1.127   0.454  17.164  2.2419 -0.8185 -0.7863
 7383TIP3    H243641   1.045   0.408  17.045 -1.8942  0.9169  1.3255
 7384TIP3   OH243642   2.493   6.243  15.373 -0.3398 -0.2982 -0.0545
 7384TIP3    H143643   2.561   6.176  15.380 -0.9081 -0.7647  1.2148
 7384TIP3    H243644   2.483   6.275  15.463 -1.4914  0.0754 -0.3165
 7385TIP3   OH243645   0.383   0.941   6.042  0.4634  0.5988  0.0301
 7385TIP3    H143646   0.457   0.902   5.995  2.3093  1.0893  2.4313
 7385TIP3    H243647   0.412   1.030   6.062 -0.4130  0.5107  1.7664
 7386TIP3   OH243648   4.890   4.326  13.000  0.0124 -0.5632  0.2509
 7386TIP3    H143649   4.926   4.414  12.996  0.7340 -0.8179  0.9129
 7386TIP3    H243650   4.955   4.272  12.955  0.5462 -1.0480  1.5672
 7387TIP3   OH243651   3.368   5.944  14.933  0.3094 -0.1455  0.4661
 7387TIP3    H143652   3.419   5.992  14.867  0.5181  1.3561  1.7113
 7387TIP3    H243653   3.278   5.946  14.899  0.2161  1.6212  0.7653
 7388TIP3   OH243654   0.561   1.566   4.557  0.7673 -0.5377 -0.1070
 7388TIP3    H143655   0.507   1.639   4.528  1.0493 -0.2684  0.0476
 7388TIP3    H243656   0.539   1.495   4.497  0.9437 -0.1481 -0.6385
 7389TIP3   OH243657   5.165   1.813  14.157  0.4753  0.6505 -0.0696
 7389TIP3    H143658   5.137   1.738  14.104 -1.1599  0.6970  0.6918
 7389TIP3    H243659   5.255   1.829  14.130  1.0775 -2.0258  0.2574
 7390TIP3   OH243660   5.072   0.308  12.291 -0.1453  0.3008  0.5136
 7390TIP3    H143661   5.079   0.403  12.300  1.7561  0.2034  0.1163
 7390TIP3    H243662   4.983   0.288  12.320 -0.7501  2.2633  0.0646
 7391TIP3   OH243663   0.414   4.988   2.480 -0.3549 -0.2345 -0.0007
 7391TIP3    H143664   0.412   5.039   2.398 -0.2018 -0.4176 -0.1194
 7391TIP3    H243665   0.350   5.031   2.536  1.0115  1.1519  0.5371
 7392TIP3   OH243666   6.019   4.939   0.252  0.5791  0.7356 -0.1263
 7392TIP3    H143667   6.084   4.981   0.196 -0.4897  0.4538 -1.5975
 7392TIP3    H243668   5.941   4.995   0.244 -0.5558 -0.9939 -1.3560
 7393TIP3   OH243669   3.026   2.624  14.727  0.3283 -0.7194 -0.0906
 7393TIP3    H143670   2.935   2.640  14.703 -0.0450 -1.7182  0.5833
 7393TIP3    H243671   3.049   2.695  14.787 -0.0721 -0.5818 -0.1020
 7394TIP3   OH243672   3.706   3.075   5.257  0.1189 -0.0831 -0.1523
 7394TIP3    H143673   3.648   3.001   5.278  0.2607 -0.0255  0.4694
 7394TIP3    H243674   3.700   3.131   5.334  1.1959 -0.2058  0.0216
 7395TIP3   OH243675   6.723   1.239  16.420 -0.0125 -0.1208 -0.3283
 7395TIP3    H143676   6.818   1.253  16.423 -0.1590  0.9127 -0.5892
 7395TIP3    H243677   6.693   1.258  16.508  0.0375 -0.5896 -0.2086
 7396TIP3   OH243678   5.367   4.203  15.104  0.3346  0.0019  0.0098
 7396TIP3    H143679   5.426   4.200  15.179  2.2702 -0.8023 -1.5025
 7396TIP3    H243680   5.421   4.177  15.029 -0.9983  2.7400 -2.0217
 7397TIP3   OH243681   5.096   1.015  17.219 -0.3485  0.0125  0.0105
 7397TIP3    H143682   5.113   0.998  17.312  1.2544 -0.7320 -0.3939
 7397TIP3    H243683   5.010   1.056  17.217 -1.6140 -2.4748  1.5948
 7398TIP3   OH243684   4.766   0.041   2.117  0.6569  0.3149  0.2117
 7398TIP3    H143685   4.730   0.055   2.204 -1.8971 -1.3369 -0.5197
 7398TIP3    H243686   4.808   0.124   2.095  0.7736  0.9657  2.7216
 7399TIP3   OH243687   5.349   6.445   3.586  0.6231  0.0100 -0.1153
 7399TIP3    H143688   5.269   6.415   3.628 -0.3810  1.1579 -1.1584
 7399TIP3    H243689   5.392   6.499   3.651  0.2462 -0.1123  0.2379
 7400TIP3   OH243690   3.083   0.381  13.187  0.1719  0.2085 -0.6610
 7400TIP3    H143691   3.170   0.350  13.213  0.5327  1.6738 -0.0633
 7400TIP3    H243692   3.097   0.424  13.103  0.1979  1.2707 -0.1152
 7401TIP3   OH243693   2.649   4.180  16.462  0.2001 -0.2372 -0.4295
 7401TIP3    H143694   2.560   4.179  16.498  0.0142 -1.2025 -0.9171
 7401TIP3    H243695   2.652   4.259  16.408  0.1663  0.6894  0.8974
 7402TIP3   OH243696   5.150   6.637  16.972  0.0134 -0.4491  0.6241
 7402TIP3    H143697   5.119   6.715  17.019  0.5944 -0.6148  1.2922
 7402TIP3    H243698   5.120   6.650  16.882  1.8283  1.5321  0.2681
 7403TIP3   OH243699   0.790   3.610  14.572  0.0607 -0.2770 -0.2555
 7403TIP3    H143700   0.778   3.692  14.524 -0.0218  0.6158  1.2327
 7403TIP3    H243701   0.736   3.546  14.525  0.7578  0.3155 -1.9069
 7404TIP3   OH243702   6.804   5.684  15.872  0.2548  0.0490  0.0845
 7404TIP3    H143703   6.789   5.666  15.779  0.1085 -0.3457  0.1843
 7404TIP3    H243704   6.837   5.773  15.874  0.3956  0.0076 -0.3595
 7405TIP3   OH243705   2.978   5.607  12.902  0.1848 -0.6302 -0.0374
 7405TIP3    H143706   2.905   5.547  12.910 -0.2318 -0.3840 -1.6916
 7405TIP3    H243707   2.968   5.645  12.814  2.3073 -0.6418 -0.3177
 7406TIP3   OH243708   2.174   3.972   1.607 -0.3179  0.1520  0.2448
 7406TIP3    H143709   2.219   3.888   1.618 -1.8336 -0.3165  3.3656
 7406TIP3    H243710   2.220   4.032   1.667  0.9330  1.6576 -2.1623
 7407TIP3   OH243711   4.082   2.431  12.939  0.5807  0.7741 -0.1186
 7407TIP3    H143712   3.994   2.394  12.952  0.6827  0.3112 -0.7059
 7407TIP3    H243713   4.072   2.491  12.865  1.1281 -0.6281 -1.3621
 7408TIP3   OH243714   4.342   6.095   2.886  0.9164 -0.2164  0.0212
 7408TIP3    H143715   4.319   6.059   2.800 -1.2071 -0.9392  0.8685
 7408TIP3    H243716   4.298   6.038   2.949 -0.0739  2.0967  1.4955
 7409TIP3   OH243717   5.418   0.343   1.182  0.0132  0.5797  0.1724
 7409TIP3    H143718   5.455   0.256   1.197 -2.1727 -0.2303  1.1440
 7409TIP3    H243719   5.384   0.339   1.092 -1.1410  0.0080  0.6232
 7410TIP3   OH243720   0.778   0.178   2.859 -0.2764  0.2321  0.0440
 7410TIP3    H143721   0.762   0.270   2.838  0.8156  0.6437  0.9487
 7410TIP3    H243722   0.718   0.158   2.930  2.6758  1.6210  3.0733
 7411TIP3   OH243723   3.992   6.550  13.433  0.6554  0.2630  0.1567
 7411TIP3    H143724   3.966   6.492  13.505 -1.2152 -0.0389 -0.7274
 7411TIP3    H243725   3.921   6.614  13.427 -0.2389 -0.8725 -2.6458
 7412TIP3   OH243726   5.761   0.489   4.792 -0.2363 -0.3475 -0.6275
 7412TIP3    H143727   5.763   0.453   4.881 -2.1773 -1.3455 -0.9652
 7412TIP3    H243728   5.668   0.493   4.770  0.0904  2.3270 -1.6536
 7413TIP3   OH243729   6.063   4.072  14.674 -0.1336  0.5102  0.0782
 7413TIP3    H143730   6.114   4.134  14.726 -0.5893  0.1168  1.0195
 7413TIP3    H243731   6.012   4.126  14.614  1.2142  0.9175 -0.7096
 7414TIP3   OH243732   6.785   0.339  15.827  0.5470  0.1709  0.4949
 7414TIP3    H143733   6.777   0.388  15.908  3.1163  1.5797 -0.0459
 7414TIP3    H243734   6.880   0.324  15.817 -0.0289 -3.6990 -0.0658
 7415TIP3   OH243735   5.870   6.310   3.221 -0.0674 -0.4097  0.9891
 7415TIP3    H143736   5.917   6.387   3.189  0.1302 -0.3410  1.4437
 7415TIP3    H243737   5.777   6.335   3.216 -0.0220 -0.2757  0.7970
 7416TIP3   OH243738   0.934   5.856   5.926 -0.4755  0.2660  0.1412
 7416TIP3    H143739   0.989   5.778   5.940 -1.9434 -1.2274 -2.0197
 7416TIP3    H243740   0.912   5.887   6.014 -1.2046 -2.7562  1.0805
 7417TIP3   OH243741   3.996   4.010   3.230 -0.1739  0.4486  0.0389
 7417TIP3    H143742   4.026   3.950   3.298  2.3149  0.7947 -0.6989
 7417TIP3    H243743   3.901   4.016   3.243 -0.5624 -3.9299 -0.1451
 7418TIP3   OH243744   0.610   4.828   5.731  0.1846 -0.0140 -0.7557
 7418TIP3    H143745   0.564   4.905   5.697 -0.2856  0.8891  1.8154
 7418TIP3    H243746   0.601   4.835   5.826  2.1469 -2.0150 -0.3886
 7419TIP3   OH243747   0.091   0.293  15.107  0.2719  0.2692  0.6644
 7419TIP3    H143748   0.177   0.267  15.139  0.9738 -0.5476 -1.8065
 7419TIP3    H243749   0.079   0.382  15.140  2.0206  0.3585  1.0867
 7420TIP3   OH243750   6.286   0.292  17.239  0.1713  0.1688  0.4223
 7420TIP3    H143751   6.376   0.260  17.228  0.6690  1.8553 -0.4482
 7420TIP3    H243752   6.245   0.227  17.297  2.0901 -0.3458  1.2434
 7421TIP3   OH243753   3.574   3.746  15.193  0.6232 -0.1098  0.2572
 7421TIP3    H143754   3.492   3.759  15.147  0.6009 -0.2887  0.2436
 7421TIP3    H243755   3.634   3.810  15.155  0.7088 -0.5000 -0.2852
 7422TIP3   OH243756   5.486   6.515  15.007 -0.4097 -0.1075 -0.4427
 7422TIP3    H143757   5.445   6.595  15.039  0.3005  0.3896 -0.7647
 7422TIP3    H243758   5.456   6.506  14.917 -0.4313 -0.1654 -0.4298
 7423TIP3   OH243759   5.639   4.345   2.013 -0.1389  0.0024  0.1532
 7423TIP3    H143760   5.575   4.330   1.944 -2.4060 -0.6157  2.3614
 7423TIP3    H243761   5.653   4.259   2.053  1.1876  0.3463  0.4536
 7424TIP3   OH243762   1.559   4.664   3.047  0.2426 -0.3207 -0.0569
 7424TIP3    H143763   1.613   4.712   3.111 -1.2105  0.0317  0.9324
 7424TIP3    H243764   1.490   4.623   3.100  0.0276 -1.4715 -1.2046
 7425TIP3   OH243765   1.331   1.389  16.403  0.8442 -0.1454  0.2895
 7425TIP3    H143766   1.424   1.410  16.394  0.4988  1.2146 -0.2353
 7425TIP3    H243767   1.306   1.354  16.317  0.6704  0.2899  0.1640
 7426TIP3   OH243768   2.190   4.900   3.345 -0.5565 -0.0713  0.4260
 7426TIP3    H143769   2.110   4.872   3.300 -0.1891  0.2876 -0.4478
 7426TIP3    H243770   2.206   4.830   3.409 -1.4076 -0.2914  0.4145
 7427TIP3   OH243771   0.845   1.621   0.707 -0.9821 -0.1339  0.4639
 7427TIP3    H143772   0.790   1.670   0.646  0.2592  0.2175 -0.3886
 7427TIP3    H243773   0.911   1.684   0.735 -0.3509 -0.8592  0.6193
 7428TIP3   OH243774   1.369   6.466  12.421  0.5318  0.2320  0.2383
 7428TIP3    H143775   1.364   6.511  12.337  0.2460  0.6194  0.4598
 7428TIP3    H243776   1.460   6.437  12.428  0.8657  1.2980  0.3596
 7429TIP3   OH243777   5.971   3.687  16.909 -0.0059 -0.1810  0.4544
 7429TIP3    H143778   5.996   3.594  16.910  0.1391 -0.1427  0.3383
 7429TIP3    H243779   5.895   3.690  16.851  1.2393  0.0938 -1.1994
 7430TIP3   OH243780   1.560   1.312  15.686  0.4130 -0.0498  0.0057
 7430TIP3    H143781   1.609   1.277  15.761 -1.5042 -0.8835  0.9248
 7430TIP3    H243782   1.589   1.402  15.678  2.4111 -0.6565  0.2446
 7431TIP3   OH243783   4.980   0.043   5.408  0.3026  0.2252  0.3320
 7431TIP3    H143784   5.049   0.074   5.466 -0.1134  1.9184 -0.0579
 7431TIP3    H243785   5.022  -0.022   5.352  1.3164  0.4995  0.7747
 7432TIP3   OH243786   0.418   1.987  11.377  0.3548  0.0029  0.0083
 7432TIP3    H143787   0.360   2.051  11.418  0.4158  0.5855 -0.7954
 7432TIP3    H243788   0.449   2.031  11.297 -0.9413 -1.6799 -1.4649
 7433TIP3   OH243789   5.136   5.880   0.602 -0.4973 -0.2106  0.1020
 7433TIP3    H143790   5.048   5.918   0.610 -0.3907  0.2614 -0.9209
 7433TIP3    H243791   5.165   5.905   0.515  0.6735 -0.3483  0.4490
 7434TIP3   OH243792   5.171   5.410   4.654  0.3285  0.1751 -0.1935
 7434TIP3    H143793   5.174   5.389   4.747  1.2447  1.6319  0.1242
 7434TIP3    H243794   5.084   5.446   4.640 -0.0562 -0.6894 -0.0529
 7435TIP3   OH243795   4.184   5.656   2.593  0.2139  0.3401 -0.1176
 7435TIP3    H143796   4.212   5.621   2.508 -0.6753 -0.1356 -0.2248
 7435TIP3    H243797   4.265   5.671   2.641  0.6490 -1.0281 -0.4057
 7436TIP3   OH243798   4.638   1.768   4.426  0.5224  0.0431  0.5998
 7436TIP3    H143799   4.606   1.773   4.336 -0.6404 -0.8668  0.9515
 7436TIP3    H243800   4.591   1.838   4.472 -0.3454 -0.7407  0.9234
 7437TIP3   OH243801   3.436   4.610  11.972 -0.4822 -0.2715 -0.1604
 7437TIP3    H143802   3.345   4.613  12.002 -0.9843 -1.7288 -1.4926
 7437TIP3    H243803   3.447   4.522  11.936  1.3367  0.0327 -0.4141
 7438TIP3   OH243804   5.808   3.901  15.488 -0.1734 -0.3905 -0.3580
 7438TIP3    H143805   5.742   3.874  15.552 -0.1042 -0.2291 -0.2215
 7438TIP3    H243806   5.819   3.995  15.502  0.6195 -0.5534  0.1011
 7439TIP3   OH243807   4.107   5.088  14.137  0.2401 -0.7480 -0.2628
 7439TIP3    H143808   4.025   5.113  14.094  0.1800  0.5559  0.5743
 7439TIP3    H243809   4.095   4.996  14.161 -0.8358 -0.6659 -0.4769
 7440TIP3   OH243810   2.818   0.592   3.376 -0.1654  0.2501 -0.3499
 7440TIP3    H143811   2.812   0.679   3.339  0.5338 -0.0470 -1.1761
 7440TIP3    H243812   2.773   0.535   3.313 -1.0428  0.0788  0.4200
 7441TIP3   OH243813   5.410   3.014  16.896  0.0470 -0.2524 -0.1177
 7441TIP3    H143814   5.466   2.938  16.911 -0.6454 -0.8773 -0.6451
 7441TIP3    H243815   5.471   3.088  16.892  1.0744 -1.1730 -2.7516
 7442TIP3   OH243816   3.379   6.507  15.463  0.0103 -0.5829  0.2639
 7442TIP3    H143817   3.373   6.481  15.371 -1.4056  0.3383  0.0585
 7442TIP3    H243818   3.467   6.543  15.473  0.3646 -1.2077 -0.5853
 7443TIP3   OH243819   3.768   5.823  11.629 -0.2184  0.1380  0.0832
 7443TIP3    H143820   3.770   5.727  11.622 -0.5959  0.0034  1.6033
 7443TIP3    H243821   3.851   5.852  11.592  0.2233 -0.8333  0.2990
 7444TIP3   OH243822   4.418   2.133  11.840  0.2514 -0.0875 -0.3868
 7444TIP3    H143823   4.341   2.184  11.812  0.8077  0.5774 -0.7300
 7444TIP3    H243824   4.455   2.184  11.912  1.4620  0.6025 -1.4674
 7445TIP3   OH243825   1.552   2.191  15.535  0.2649  0.2430  0.6235
 7445TIP3    H143826   1.578   2.246  15.609 -0.3169 -0.6170  1.4981
 7445TIP3    H243827   1.461   2.167  15.555  0.1864 -0.1958 -0.2546
 7446TIP3   OH243828   2.623   0.071   1.158  0.3873 -0.1273 -0.2281
 7446TIP3    H143829   2.618   0.159   1.122  0.7694  0.4435  1.0676
 7446TIP3    H243830   2.639   0.014   1.083  0.1079  0.9083 -1.0681
 7447TIP3   OH243831   6.679   5.600   4.736  0.2368 -0.2402 -0.3607
 7447TIP3    H143832   6.592   5.567   4.757  0.6250 -0.9793  0.1255
 7447TIP3    H243833   6.703   5.653   4.812  0.7893 -1.2162  0.1650
 7448TIP3   OH243834   1.523   0.183   4.411 -0.1026  0.0646 -0.2117
 7448TIP3    H143835   1.519   0.274   4.440  0.4862  0.2582 -0.7254
 7448TIP3    H243836   1.439   0.169   4.368  0.5215  0.9401 -1.7669
 7449TIP3   OH243837   1.924   4.956  14.626 -0.2045 -0.1331  0.3078
 7449TIP3    H143838   1.905   4.863  14.618  0.2595 -0.1971 -0.0679
 7449TIP3    H243839   2.017   4.963  14.608  0.1835  0.1538  2.3445
 7450TIP3   OH243840   1.917   2.012  15.870  0.7037 -0.1433 -0.4874
 7450TIP3    H143841   1.881   2.052  15.791 -0.3099 -1.9445 -0.9702
 7450TIP3    H243842   1.905   2.079  15.938 -2.7603 -0.2840 -0.8427
 7451TIP3   OH243843   6.133   4.276  17.160 -0.2045  0.6612  0.0601
 7451TIP3    H143844   6.188   4.262  17.237  1.1678  1.7338 -0.7061
 7451TIP3    H243845   6.068   4.341  17.188 -1.1808 -0.6795  0.9965
 7452TIP3   OH243846   0.766   0.462  13.782  0.0284  0.2621  0.2100
 7452TIP3    H143847   0.741   0.379  13.821 -1.5176 -0.6677 -2.6607
 7452TIP3    H243848   0.853   0.446  13.745 -0.6242 -0.3567 -1.0821
 7453TIP3   OH243849   5.038   4.685   4.374 -0.0432 -0.7105 -0.4725
 7453TIP3    H143850   5.120   4.668   4.420  0.4888  2.1903 -0.2300
 7453TIP3    H243851   4.999   4.758   4.421 -1.3182 -0.1158 -2.3687
 7454TIP3   OH243852   5.071   4.198   3.294  0.4270  0.2427 -0.5351
 7454TIP3    H143853   5.123   4.147   3.231 -0.4092 -0.5612 -0.5852
 7454TIP3    H243854   5.084   4.289   3.267  1.3103  0.0093 -0.9233
 7455TIP3   OH243855   1.383   6.621  14.015  0.2664 -0.2735 -0.5506
 7455TIP3    H143856   1.423   6.708  14.010 -0.6902  0.1170 -1.7147
 7455TIP3    H243857   1.299   6.635  14.059 -0.4132 -0.3974 -1.7777
 7456TIP3   OH243858   4.073   3.271   5.112  0.3429 -0.2609  0.3504
 7456TIP3    H143859   3.994   3.322   5.130 -1.0277 -3.0948  2.9603
 7456TIP3    H243860   4.057   3.231   5.027 -0.2086  0.6824  0.0091
 7457TIP3   OH243861   2.049   2.951  14.279  0.6440  0.1154 -0.8620
 7457TIP3    H143862   2.029   2.862  14.308 -0.5446  0.3965 -0.7988
 7457TIP3    H243863   1.974   2.976  14.225  1.0297  1.0358 -0.9840
 7458TIP3   OH243864   1.674   1.547  12.646  0.0041  0.4607  0.6573
 7458TIP3    H143865   1.606   1.548  12.713 -0.6853 -0.1801 -0.0149
 7458TIP3    H243866   1.725   1.468  12.665 -0.7146 -0.1877 -0.0739
 7459TIP3   OH243867   4.954   3.595   0.273  0.1176  0.2440 -0.0613
 7459TIP3    H143868   5.046   3.575   0.288  0.4480  0.6176 -1.4716
 7459TIP3    H243869   4.952   3.635   0.185 -1.3838  0.2034 -0.0633
 7460TIP3   OH243870   4.776   1.508  12.831 -0.2474  0.7415 -0.0450
 7460TIP3    H143871   4.818   1.573  12.887  1.2029 -0.2603  0.0457
 7460TIP3    H243872   4.772   1.429  12.885 -1.6544  0.6272 -0.2914
 7461TIP3   OH243873   2.470   3.156  15.546  0.0708 -0.6734 -0.2246
 7461TIP3    H143874   2.437   3.243  15.521  1.2540 -0.3294 -0.5958
 7461TIP3    H243875   2.453   3.101  15.469  1.7189 -0.1325 -1.0008
 7462TIP3   OH243876   1.152   0.315   1.530 -0.5762 -1.0010 -0.3490
 7462TIP3    H143877   1.146   0.406   1.503 -2.5431 -0.8554  0.4912
 7462TIP3    H243878   1.131   0.264   1.451  2.4376 -0.8129 -1.3302
 7463TIP3   OH243879   3.919   0.510   5.678 -0.5036  0.9815 -0.2302
 7463TIP3    H143880   3.993   0.542   5.729 -0.1014  0.6011 -0.5678
 7463TIP3    H243881   3.913   0.571   5.604 -0.4371  0.9289 -0.2788
 7464TIP3   OH243882   6.258   3.011  15.790 -0.6624 -0.4029 -0.4034
 7464TIP3    H143883   6.299   3.053  15.715 -1.2966 -0.2501 -0.6587
 7464TIP3    H243884   6.180   2.968  15.755 -0.2941 -1.3714 -0.0626
 7465TIP3   OH243885   1.424   0.918   4.755  0.1760  0.7263 -0.3201
 7465TIP3    H143886   1.399   0.826   4.765  2.7286 -0.0950 -1.1580
 7465TIP3    H243887   1.372   0.949   4.681 -0.2323 -0.2134 -0.4425
 7466TIP3   OH243888   4.689   5.486   5.583  0.6216 -0.3459  0.0071
 7466TIP3    H143889   4.751   5.520   5.519  0.9910  1.0620  1.1051
 7466TIP3    H243890   4.658   5.563   5.631 -1.8569 -1.0353 -0.4083
 7467TIP3   OH243891   2.552   1.649   3.766  0.2400 -0.2541 -0.5563
 7467TIP3    H143892   2.604   1.665   3.845 -0.6106  0.1158 -0.0651
 7467TIP3    H243893   2.544   1.554   3.761  0.2060 -0.2716 -0.1374
 7468TIP3   OH243894   6.790   1.796  12.963  0.6119  0.6389 -0.2795
 7468TIP3    H143895   6.883   1.817  12.967  1.6281 -3.5812  1.1300
 7468TIP3    H243896   6.749   1.852  13.029  3.1805 -1.7661  3.5468
 7469TIP3   OH243897   0.632   4.340   5.578  0.6708 -0.0417  0.5933
 7469TIP3    H143898   0.638   4.431   5.552 -0.5098 -0.0348  0.2932
 7469TIP3    H243899   0.614   4.292   5.497  1.4341 -0.5584  0.7227
 7470TIP3   OH243900   3.341   1.529  14.528 -0.4051 -0.2637 -0.0320
 7470TIP3    H143901   3.255   1.554  14.492  0.0644  0.7539 -0.4768
 7470TIP3    H243902   3.356   1.441  14.495 -0.3878  0.3191 -1.6038
 7471TIP3   OH243903   2.873   3.745  14.016 -0.3395 -0.0973  0.4098
 7471TIP3    H143904   2.930   3.757  14.092 -0.7642  0.8457  0.5918
 7471TIP3    H243905   2.931   3.750  13.941 -0.2491  1.3995  0.5679
 7472TIP3   OH243906   0.904   3.471  10.751  0.4191 -0.4641 -0.0371
 7472TIP3    H143907   0.933   3.468  10.660  0.6218 -0.2062  0.0169
 7472TIP3    H243908   0.824   3.420  10.753 -1.3274  2.1176 -1.0042
 7473TIP3   OH243909   0.111   5.738   2.493 -0.6139  0.1022 -0.3590
 7473TIP3    H143910   0.117   5.833   2.495  1.0316  0.0556 -1.9678
 7473TIP3    H243911   0.070   5.718   2.408 -0.6667 -0.6411 -0.1698
 7474TIP3   OH243912   6.665   0.432   4.699 -0.4510  0.6456 -0.1104
 7474TIP3    H143913   6.665   0.336   4.699  1.2672  0.6336  1.2400
 7474TIP3    H243914   6.754   0.457   4.722 -0.7287  2.5889 -1.0137
 7475TIP3   OH243915   6.754   1.845  16.861  0.0368  0.4002 -0.6237
 7475TIP3    H143916   6.806   1.851  16.780  1.1102  0.8720  0.0796
 7475TIP3    H243917   6.725   1.754  16.864 -1.2515  0.7488 -2.2896
 7476TIP3   OH243918   5.538   0.032   3.192 -0.3208  0.2019  0.1510
 7476TIP3    H143919   5.476  -0.026   3.148 -0.5560 -0.3788  1.2277
 7476TIP3    H243920   5.551  -0.008   3.278 -0.3223  1.6399  0.8287
 7477TIP3   OH243921   6.109   2.609  14.055  0.2782  0.1831 -0.3448
 7477TIP3    H143922   6.164   2.570  14.122  2.1210  1.0932 -1.2841
 7477TIP3    H243923   6.050   2.538  14.027  1.9159 -1.2185 -0.3097
 7478TIP3   OH243924   1.408   6.813   5.548  0.1417 -0.4314  0.2706
 7478TIP3    H143925   1.353   6.768   5.612  0.4657 -2.3804 -0.7967
 7478TIP3    H243926   1.352   6.826   5.472  0.1257  0.7731  0.4729
 7479TIP3   OH243927   1.707   2.282   4.771 -0.1724  0.4424  0.3289
 7479TIP3    H143928   1.793   2.261   4.732 -0.8427 -1.0053 -0.4120
 7479TIP3    H243929   1.682   2.202   4.817 -1.7222  0.4088 -0.5650
 7480TIP3   OH243930   5.097   6.468   6.125  0.3826 -0.0223 -0.0003
 7480TIP3    H143931   5.080   6.426   6.209  0.0424 -0.3893 -0.2520
 7480TIP3    H243932   5.025   6.530   6.114 -0.9587 -1.7419 -1.1748
 7481TIP3   OH243933   4.020   5.851  17.098 -0.3826  0.0360  1.0562
 7481TIP3    H143934   4.063   5.802  17.029 -0.9942  2.4044 -1.0784
 7481TIP3    H243935   3.975   5.785  17.151  4.7529 -2.4311  2.6899
 7482TIP3   OH243936   5.836   4.793  13.298 -0.5207  0.2617  0.2085
 7482TIP3    H143937   5.781   4.716  13.280  0.1353 -0.2833  0.5248
 7482TIP3    H243938   5.853   4.831  13.212  1.0825 -1.2879 -0.1869
 7483TIP3   OH243939   5.603   4.937   3.740  0.1078  0.3696  0.3332
 7483TIP3    H143940   5.578   4.977   3.823  0.6518  0.1712  0.5924
 7483TIP3    H243941   5.694   4.910   3.752 -0.1378 -0.6360  0.0473
 7484TIP3   OH243942   5.098   3.891  14.853 -0.1653  0.3689 -0.2670
 7484TIP3    H143943   5.032   3.960  14.840  1.7633  2.5607  1.1007
 7484TIP3    H243944   5.181   3.937  14.844  1.1640 -1.5957  1.7408
 7485TIP3   OH243945   6.155   0.384  14.455  0.2651 -0.3819 -0.3744
 7485TIP3    H143946   6.183   0.425  14.373 -0.3633  2.5854  0.8588
 7485TIP3    H243947   6.084   0.439  14.488 -0.2459 -2.1424  1.6422
 7486TIP3   OH243948   6.285   0.535   5.674  0.2059 -0.0559  0.0233
 7486TIP3    H143949   6.356   0.476   5.697  0.0593 -0.5146 -0.6898
 7486TIP3    H243950   6.225   0.531   5.748  2.4150  2.7215  2.0724
 7487TIP3   OH243951   1.607   5.267   2.996 -0.3686  0.5735  0.0365
 7487TIP3    H143952   1.691   5.313   3.001 -0.5545  1.0002 -0.6636
 7487TIP3    H243953   1.624   5.182   3.036 -0.3129  1.6700  2.4295
 7488TIP3   OH243954   6.435   0.848   6.165 -0.1331 -0.2413 -0.0895
 7488TIP3    H143955   6.394   0.934   6.178  2.1829  0.9736 -0.6484
 7488TIP3    H243956   6.389   0.811   6.089  0.1845  1.3768 -1.1033
 7489TIP3   OH243957   2.768   2.182   0.320  0.3422 -0.0490  0.2581
 7489TIP3    H143958   2.732   2.124   0.254  2.0084 -1.1369  0.2753
 7489TIP3    H243959   2.743   2.270   0.291  0.6143 -0.5423 -1.5429
 7490TIP3   OH243960   2.725   2.390   2.399  0.1429 -0.8591 -0.0496
 7490TIP3    H143961   2.711   2.454   2.329  2.2039 -0.8606 -0.5065
 7490TIP3    H243962   2.753   2.310   2.352  1.1653 -0.9732  0.7276
 7491TIP3   OH243963   1.084   2.857  15.641  0.5674 -0.1876 -0.2414
 7491TIP3    H143964   1.015   2.923  15.637  0.0283 -0.7444 -0.2608
 7491TIP3    H243965   1.161   2.904  15.673 -0.4601 -0.0615  2.1498
 7492TIP3   OH243966   5.498   2.302  10.695 -0.0288 -0.5127 -0.2737
 7492TIP3    H143967   5.412   2.316  10.657 -0.4623 -1.2316  0.4298
 7492TIP3    H243968   5.548   2.259  10.626 -0.9979 -2.3878  0.1496
 7493TIP3   OH243969   1.319   1.899  16.399 -0.0515 -0.5406  0.5813
 7493TIP3    H143970   1.397   1.948  16.424  0.1431 -0.7892  0.4602
 7493TIP3    H243971   1.252   1.966  16.387  1.0684  0.0458 -2.8977
 7494TIP3   OH243972   4.043   0.056   1.499  0.1052  0.0424  0.1157
 7494TIP3    H143973   4.084  -0.006   1.438  0.7144  0.2703  0.2963
 7494TIP3    H243974   4.057   0.142   1.459 -0.9970  0.0414 -0.2819
 7495TIP3   OH243975   4.996   2.779   4.496  0.1220  0.6374 -0.1678
 7495TIP3    H143976   5.003   2.850   4.561 -1.3336 -1.4342  2.3566
 7495TIP3    H243977   4.951   2.709   4.543 -0.3252 -1.2109 -3.2540
 7496TIP3   OH243978   4.989   6.475  13.834  0.2635  0.1525  0.4605
 7496TIP3    H143979   5.076   6.510  13.856  1.2246 -0.7690 -1.6800
 7496TIP3    H243980   4.996   6.381  13.852 -0.6223  0.2403  1.2660
 7497TIP3   OH243981   0.493   6.057  12.500  0.4083 -0.0285 -0.3079
 7497TIP3    H143982   0.440   6.007  12.562 -1.0166  0.5687 -1.0298
 7497TIP3    H243983   0.482   6.011  12.417  2.2758 -0.7985 -0.1653
 7498TIP3   OH243984   1.709   0.621  17.045  0.5419 -0.1536  0.2329
 7498TIP3    H143985   1.646   0.689  17.071 -1.2384 -1.2902 -0.9721
 7498TIP3    H243986   1.743   0.587  17.127  0.2704  1.1073  0.8824
 7499TIP3   OH243987   3.609   4.880   2.150  0.1753  0.6266  0.0584
 7499TIP3    H143988   3.667   4.803   2.155  1.2083  1.4099  0.4696
 7499TIP3    H243989   3.535   4.851   2.098 -0.8399 -1.5419  2.5728
 7500TIP3   OH243990   6.633   1.767   2.806 -0.0262  0.0234  0.1427
 7500TIP3    H143991   6.625   1.716   2.725  1.4202 -0.8122  0.5194
 7500TIP3    H243992   6.700   1.832   2.787 -0.8870  0.9135  0.1269
 7501TIP3   OH243993   2.988   1.469   3.127 -0.1987  0.2360 -0.5779
 7501TIP3    H143994   3.023   1.433   3.046 -2.9281  0.1238 -1.7633
 7501TIP3    H243995   2.971   1.561   3.106 -0.1566  0.4058  0.1320
 7502TIP3   OH243996   4.286   3.682   5.052  0.2116 -0.6252 -0.0089
 7502TIP3    H143997   4.266   3.685   5.146  1.7028  1.0836  0.2781
 7502TIP3    H243998   4.235   3.754   5.014  1.0825 -0.1079 -0.2067
 7503TIP3   OH243999   0.059   0.966   3.227  0.3080  0.1143  0.2022
 7503TIP3    H144000   0.113   0.893   3.257  1.7944  0.4714 -1.5487
 7503TIP3    H244001   0.116   1.043   3.233 -1.0519  1.0655  1.4304
 7504TIP3   OH244002   6.106   0.516   4.665  0.1936 -0.0494  0.4086
 7504TIP3    H144003   6.085   0.596   4.712  1.2475 -0.5739  1.8094
 7504TIP3    H244004   6.173   0.543   4.601 -1.3601  0.6933 -0.9200
 7505TIP3   OH244005   2.206   0.132  15.571  0.3793 -0.0533  0.4942
 7505TIP3    H144006   2.237   0.122  15.661  1.0281 -0.3121  0.2461
 7505TIP3    H244007   2.273   0.088  15.518  0.0239  0.1397 -0.1144
 7506TIP3   OH244008   6.746   6.385   1.372 -0.3093  0.0930  0.4651
 7506TIP3    H144009   6.712   6.473   1.352 -0.0746 -0.0953 -0.8006
 7506TIP3    H244010   6.759   6.345   1.286 -2.8354 -2.1122  1.0464
 7507TIP3   OH244011   3.230   2.896  11.805  0.5349 -0.3175 -0.5185
 7507TIP3    H144012   3.183   2.843  11.870  1.3120 -2.0288 -1.3229
 7507TIP3    H244013   3.256   2.975  11.853 -1.2504 -0.3305  0.5147
 7508TIP3   OH244014   6.478   2.780  13.176  0.6056  0.1323 -0.6431
 7508TIP3    H144015   6.457   2.873  13.175 -0.9874 -0.1975  0.0240
 7508TIP3    H244016   6.400   2.739  13.214  1.9544 -1.3033  0.6175
 7509TIP3   OH244017   0.217   2.446  15.710 -0.5115  0.4566  0.0395
 7509TIP3    H144018   0.307   2.419  15.725 -0.4929  1.0828  1.1495
 7509TIP3    H244019   0.170   2.419  15.789 -1.1577  0.7064 -0.2512
 7510TIP3   OH244020   5.734   4.720  10.274 -0.2054 -0.7510 -0.9715
 7510TIP3    H144021   5.824   4.737  10.304 -0.7109  0.5428 -0.1187
 7510TIP3    H244022   5.738   4.634  10.234  0.9455 -1.6936  1.0749
 7511TIP3   OH244023   4.824   6.512   4.373 -0.5128  0.0444 -0.1067
 7511TIP3    H144024   4.794   6.539   4.460 -0.7824 -0.3284 -0.0867
 7511TIP3    H244025   4.917   6.537   4.372 -0.3429 -0.5491  0.5333
 7512TIP3   OH244026   0.587   4.256  16.318 -0.4111 -0.2963 -0.2082
 7512TIP3    H144027   0.612   4.176  16.272 -0.7397 -0.5158 -0.0080
 7512TIP3    H244028   0.589   4.325  16.251  1.1895 -0.2201 -0.0948
 7513TIP3   OH244029   2.455   2.272   5.705 -0.5839 -0.0939  0.6851
 7513TIP3    H144030   2.501   2.301   5.627 -1.9539 -1.1723 -0.5488
 7513TIP3    H244031   2.524   2.241   5.763  0.3083 -1.1704 -0.9209
 7514TIP3   OH244032   6.614   0.588  13.747 -0.3119  0.0809 -0.3028
 7514TIP3    H144033   6.543   0.651  13.732 -2.0993 -1.7507  0.1560
 7514TIP3    H244034   6.694   0.636  13.728 -1.6214  2.5336  0.1972
 7515TIP3   OH244035   6.105   0.963   0.079  0.0913  0.4639  0.4312
 7515TIP3    H144036   6.184   0.989   0.127  1.1291  1.0247 -1.5400
 7515TIP3    H244037   6.102   1.022   0.004 -0.9684 -1.0410 -0.7291
 7516TIP3   OH244038   1.619   4.948   0.259 -0.1122 -0.7502 -0.2538
 7516TIP3    H144039   1.538   4.948   0.207 -0.5973  0.4445  0.4754
 7516TIP3    H244040   1.674   5.014   0.216  0.3828 -1.3812 -0.5948
 7517TIP3   OH244041   4.084   2.966  11.485  0.1771  0.8207  0.6528
 7517TIP3    H144042   4.147   2.908  11.527  0.2186  0.8144  0.5814
 7517TIP3    H244043   4.128   2.996  11.406 -1.2701 -2.0226 -1.3143
 7518TIP3   OH244044   6.016   3.815   1.675  0.0002  0.3907 -0.0219
 7518TIP3    H144045   5.937   3.836   1.625 -0.8579 -0.0144  1.1430
 7518TIP3    H244046   6.088   3.842   1.618 -0.9618  0.2582 -1.3275
 7519TIP3   OH244047   4.051   2.537  12.520 -0.4495 -0.0024 -0.1558
 7519TIP3    H144048   4.025   2.616  12.473 -0.8353  0.3563  0.6545
 7519TIP3    H244049   4.144   2.525  12.497 -0.5619  0.3124 -0.7942
 7520TIP3   OH244050   0.845   2.869  15.893  0.2496 -0.2035 -0.4783
 7520TIP3    H144051   0.796   2.882  15.974  0.9499 -0.8118  0.0394
 7520TIP3    H244052   0.918   2.931  15.898 -0.1202  0.2882 -0.9893
 7521TIP3   OH244053   2.711   1.204  13.913  0.0822 -0.2825 -0.5156
 7521TIP3    H144054   2.641   1.227  13.974  0.1301 -0.1853 -0.4972
 7521TIP3    H244055   2.698   1.111  13.895 -0.7028 -0.0176 -1.3638
 7522TIP3   OH244056   2.819   0.570  11.785  0.0238 -0.0813 -0.5208
 7522TIP3    H144057   2.825   0.480  11.753 -0.0966  0.4456 -2.0504
 7522TIP3    H244058   2.895   0.614  11.748 -0.3974  0.6661 -0.5034
 7523TIP3   OH244059   3.820   1.083   4.069  0.1145  0.0011  0.1501
 7523TIP3    H144060   3.858   1.004   4.030 -1.9827 -1.4677  0.9437
 7523TIP3    H244061   3.761   1.117   4.001  0.1891  0.2517  0.2101
 7524TIP3   OH244062   3.603   2.569   2.609  0.2934  0.0192  0.2011
 7524TIP3    H144063   3.666   2.511   2.566  1.7439  1.2355  0.6519
 7524TIP3    H244064   3.534   2.581   2.544  1.2860 -0.0730 -0.8883
 7525TIP3   OH244065   3.256   2.742   2.533  0.3971 -0.7586  0.0243
 7525TIP3    H144066   3.326   2.689   2.494  2.7951  1.1954  1.5026
 7525TIP3    H244067   3.228   2.801   2.463  1.3330 -0.5180 -0.1516
 7526TIP3   OH244068   3.439   6.719  16.026 -0.3085  0.0565 -0.3068
 7526TIP3    H144069   3.374   6.786  16.045  0.5245  0.5121  1.0229
 7526TIP3    H244070   3.391   6.651  15.979 -1.1852  1.5444 -1.6346
 7527TIP3   OH244071   0.476   3.162  15.614 -0.0636  0.2186 -0.0515
 7527TIP3    H144072   0.546   3.215  15.652 -1.4948  2.1871 -0.0881
 7527TIP3    H244073   0.472   3.084  15.670  1.2488  0.7045  0.7470
 7528TIP3   OH244074   6.734   0.907  16.612  0.2292 -0.7479  0.3213
 7528TIP3    H144075   6.808   0.964  16.631  0.6497 -1.5408  1.1232
 7528TIP3    H244076   6.682   0.955  16.547  0.7897  0.3457  0.6726
 7529TIP3   OH244077   0.525   6.773   2.244 -0.4394 -0.2427  0.5765
 7529TIP3    H144078   0.430   6.772   2.260 -0.1765  0.5499  2.3590
 7529TIP3    H244079   0.554   6.857   2.281  0.6484  0.4856 -1.8785
 7530TIP3   OH244080   0.182   1.479  14.948 -0.2314  0.6009 -0.1748
 7530TIP3    H144081   0.179   1.388  14.917  0.1850  0.7839 -0.7639
 7530TIP3    H244082   0.090   1.501  14.964 -0.3222  0.0295  0.1212
 7531TIP3   OH244083   5.505   2.577  13.529 -0.0776  0.1446 -0.6218
 7531TIP3    H144084   5.468   2.505  13.580  0.5243  1.3640  1.5885
 7531TIP3    H244085   5.432   2.607  13.475 -0.8129 -0.9909 -0.2898
 7532TIP3   OH244086   4.365   0.437  13.273  0.3709 -0.0473  0.5265
 7532TIP3    H144087   4.369   0.477  13.186  0.0191 -1.8869 -0.3644
 7532TIP3    H244088   4.448   0.463  13.314  0.0131  1.8250  0.1024
 7533TIP3   OH244089   4.737   2.382   5.930 -0.7424 -0.9072  0.0880
 7533TIP3    H144090   4.724   2.435   5.852 -0.0542 -1.2222 -0.2497
 7533TIP3    H244091   4.677   2.418   5.994  1.4593  1.8638  0.6674
 7534TIP3   OH244092   6.233   0.454   5.225 -0.2976  0.4675 -0.0602
 7534TIP3    H144093   6.178   0.478   5.300  0.0775  1.9120 -0.2398
 7534TIP3    H244094   6.255   0.362   5.240 -1.9139  0.1660  0.5438
 7535TIP3   OH244095   5.606   4.830  11.815 -0.2284  0.0332  0.3417
 7535TIP3    H144096   5.549   4.754  11.820 -2.6384  1.6423 -1.5092
 7535TIP3    H244097   5.553   4.897  11.772  2.3903  2.2366  0.4035
 7536TIP3   OH244098   5.825   1.181  13.830  0.0805  0.1437 -0.4760
 7536TIP3    H144099   5.770   1.171  13.752  0.7590  2.2082 -1.2546
 7536TIP3    H244100   5.835   1.275  13.840  0.9957 -0.1354  1.4336
 7537TIP3   OH244101   2.119   5.418   1.889  0.1409 -0.3831 -0.0269
 7537TIP3    H144102   2.126   5.477   1.964  1.2452 -1.0740  0.4336
 7537TIP3    H244103   2.179   5.455   1.824 -0.9899  0.3428 -0.6586
 7538TIP3   OH244104   4.246   5.126   4.684  0.4263  0.0389 -0.0768
 7538TIP3    H144105   4.231   5.033   4.702 -0.9377 -0.1483 -1.9561
 7538TIP3    H244106   4.160   5.159   4.660  1.0855  1.5675 -0.3722
 7539TIP3   OH244107   3.731   2.942  11.298 -0.5793 -0.4264  0.4076
 7539TIP3    H144108   3.703   2.978  11.214  0.2721  0.1075  0.3353
 7539TIP3    H244109   3.658   2.888  11.327 -1.5395  0.6819  0.0980
 7540TIP3   OH244110   0.061   6.336   0.190  0.6434  0.4119 -0.7093
 7540TIP3    H144111   0.155   6.346   0.200  0.5323 -0.9055  1.9421
 7540TIP3    H244112   0.026   6.424   0.203  1.3701  0.5653  0.2308
 7541TIP3   OH244113   3.524   2.866  14.517 -0.2195 -0.3517 -0.1224
 7541TIP3    H144114   3.509   2.959  14.504  2.0291 -0.0081 -0.4331
 7541TIP3    H244115   3.475   2.845  14.596  0.5466  1.4688  0.8759
 7542TIP3   OH244116   2.264   5.720  17.240  0.1068 -0.1055 -0.4241
 7542TIP3    H144117   2.306   5.774  17.307 -1.6703 -0.9154  1.3784
 7542TIP3    H244118   2.171   5.740  17.248 -0.3252 -1.7138 -1.2810
 7543TIP3   OH244119   0.422   3.596   2.285  0.6229  0.0903  0.9729
 7543TIP3    H144120   0.486   3.644   2.233 -1.1382  1.3931 -0.0205
 7543TIP3    H244121   0.387   3.530   2.226 -0.7477  0.9995  0.7660
 7544TIP3   OH244122   6.076   5.137   6.193 -0.0986 -0.1630  0.5919
 7544TIP3    H144123   5.989   5.157   6.227  0.1442 -0.1503  1.2141
 7544TIP3    H244124   6.106   5.219   6.154 -1.0617 -0.6306 -1.1651
 7545TIP3   OH244125   2.635   0.080   0.340  0.2690  0.0521  0.1048
 7545TIP3    H144126   2.624   0.122   0.255 -1.4356 -2.2534 -0.8776
 7545TIP3    H244127   2.729   0.067   0.349  0.6042  1.8385 -0.6466
 7546TIP3   OH244128   4.062   5.969  10.450 -0.3258 -0.3716 -0.3533
 7546TIP3    H144129   4.086   5.886  10.409 -0.2806 -0.3826 -0.3049
 7546TIP3    H244130   4.072   6.034  10.381  0.8077 -0.2310 -0.0595
 7547TIP3   OH244131   3.903   4.180   5.608 -0.6424  0.1114  0.2313
 7547TIP3    H144132   3.933   4.147   5.692  0.5904  1.5499  0.3856
 7547TIP3    H244133   3.895   4.275   5.621  1.3481  0.5990 -1.7695
 7548TIP3   OH244134   2.013   5.324  12.697  0.1443  0.0362 -0.6887
 7548TIP3    H144135   1.998   5.310  12.604 -1.6366  1.8731 -0.7021
 7548TIP3    H244136   2.093   5.377  12.700  0.4908 -0.4511 -1.1312
 7549TIP3   OH244137   4.103   3.293  15.049 -0.0192 -0.2074  0.0189
 7549TIP3    H144138   4.143   3.345  15.118  1.3209  0.3761 -1.1793
 7549TIP3    H244139   4.045   3.353  15.003  0.1507 -0.2340 -0.2313
 7550TIP3   OH244140   2.719   0.284   5.873 -0.0902  0.0573 -0.3065
 7550TIP3    H144141   2.666   0.229   5.931  2.9702 -1.6209  1.0108
 7550TIP3    H244142   2.779   0.222   5.830 -1.0465  1.5235 -3.9103
 7551TIP3   OH244143   5.592   2.927  14.071 -0.7143  0.4015  0.2588
 7551TIP3    H144144   5.643   2.910  13.991 -0.6097 -0.2517  0.4630
 7551TIP3    H244145   5.576   2.840  14.108 -1.4623  0.6473  0.5210
 7552TIP3   OH244146   4.536   4.979   1.034 -0.0104 -0.2647  0.1384
 7552TIP3    H144147   4.531   5.074   1.025 -2.4240 -0.2334  1.5163
 7552TIP3    H244148   4.630   4.961   1.042  0.6596  1.7279 -2.6228
 7553TIP3   OH244149   2.351   2.726   3.676 -0.0320  0.3237  0.1314
 7553TIP3    H144150   2.369   2.699   3.766  0.3349  0.1618  0.0123
 7553TIP3    H244151   2.262   2.762   3.678 -0.0484  0.2558  0.5427
 7554TIP3   OH244152   0.675   0.382   6.037  0.2740  0.0401  0.0545
 7554TIP3    H144153   0.659   0.468   6.076 -1.7169 -0.3845  0.1912
 7554TIP3    H244154   0.597   0.364   5.985  0.7369 -1.6294 -0.0884
 7555TIP3   OH244155   4.213   4.377  10.514 -0.1800  0.1811 -0.2876
 7555TIP3    H144156   4.173   4.341  10.434 -2.4082  1.9786 -0.0313
 7555TIP3    H244157   4.211   4.304  10.576  1.5587 -1.2313 -1.8376
 7556TIP3   OH244158   2.014   0.754   2.405  0.3826  0.6987 -0.2719
 7556TIP3    H144159   2.085   0.703   2.366  0.4920  1.2613 -0.8214
 7556TIP3    H244160   2.052   0.841   2.418  0.2235  0.6274  0.7315
 7557TIP3   OH244161   0.022   6.493   2.543 -0.2239 -0.0456 -0.1367
 7557TIP3    H144162  -0.010   6.455   2.625 -1.6460  0.5424 -0.4103
 7557TIP3    H244163  -0.014   6.582   2.543  0.2179  0.1326 -1.1502
 7558TIP3   OH244164   4.955   6.579  11.866  0.3750 -0.0555  0.5861
 7558TIP3    H144165   5.010   6.503  11.883  1.3140  0.5279  0.1594
 7558TIP3    H244166   5.013   6.654  11.874 -0.5097  0.6127  0.8325
 7559TIP3   OH244167   5.709   3.507  15.645  0.2710  0.1643  0.0986
 7559TIP3    H144168   5.781   3.553  15.689  0.6247 -0.2230 -0.0806
 7559TIP3    H244169   5.752   3.444  15.587 -0.2139 -0.7238  0.6905
 7560TIP3   OH244170   1.182   0.029  10.802 -0.2756  0.3504  0.3777
 7560TIP3    H144171   1.089   0.008  10.797 -0.2112 -0.3454  1.8048
 7560TIP3    H244172   1.226  -0.049  10.768 -0.2344  1.4551 -2.2437
 7561TIP3   OH244173   2.081   4.731   1.642  0.2299  0.0500  0.6019
 7561TIP3    H144174   2.163   4.702   1.602 -1.0659  1.2474 -3.0782
 7561TIP3    H244175   2.013   4.683   1.595 -1.2820  0.3489  2.4498
 7562TIP3   OH244176   0.984   2.522   1.578 -0.7149 -0.4814 -0.0649
 7562TIP3    H144177   1.075   2.509   1.551  0.0626  2.3093  1.0643
 7562TIP3    H244178   0.982   2.490   1.669 -1.2060 -1.7492 -0.5085
 7563TIP3   OH244179   5.972   0.879  14.782  0.4696 -0.3032 -0.5599
 7563TIP3    H144180   6.003   0.896  14.871  2.5889  0.3490 -1.3915
 7563TIP3    H244181   5.877   0.875  14.790  0.4998  1.8924  1.3736
 7564TIP3   OH244182   5.520   1.583  14.564  0.0789  0.2658 -0.4463
 7564TIP3    H144183   5.579   1.511  14.586  1.2784  1.3025 -0.2340
 7564TIP3    H244184   5.479   1.606  14.648  1.5370  1.4430 -0.0278
 7565TIP3   OH244185   2.505   3.090   3.440  0.0729  0.4090  0.2287
 7565TIP3    H144186   2.433   3.037   3.475  0.9885  0.1603  1.7330
 7565TIP3    H244187   2.551   3.031   3.381 -0.9616  0.5798 -0.7828
 7566TIP3   OH244188   0.377   1.098   6.804 -0.2985 -0.3202 -0.3802
 7566TIP3    H144189   0.328   1.061   6.731 -0.7998 -0.0236 -0.1935
 7566TIP3    H244190   0.371   1.193   6.792  1.6663 -0.3000 -1.3089
 7567TIP3   OH244191   4.671   2.428   0.688  0.0997 -0.1491 -0.0738
 7567TIP3    H144192   4.758   2.396   0.666  0.3227  0.2039  0.2883
 7567TIP3    H244193   4.616   2.350   0.693  0.3683 -0.3592 -0.4204
 7568TIP3   OH244194   3.039   0.393   5.158 -0.0779  0.5726  0.0417
 7568TIP3    H144195   3.018   0.460   5.093  0.2634  0.8574  0.2176
 7568TIP3    H244196   3.108   0.434   5.211  0.8872 -0.3190 -0.5060
 7569TIP3   OH244197   3.138   5.073  14.588 -0.5130 -0.0646 -0.6852
 7569TIP3    H144198   3.184   5.090  14.507  1.3141 -0.6368  0.2016
 7569TIP3    H244199   3.207   5.056  14.652 -1.8797  1.3628  1.2198
 7570TIP3   OH244200   2.821   0.950  10.646  0.5149  0.3727 -0.1022
 7570TIP3    H144201   2.750   0.945  10.582 -0.6932 -0.7156  1.2910
 7570TIP3    H244202   2.858   1.037  10.634 -1.8185  1.4084 -0.0619
 7571TIP3   OH244203   1.366   3.755   3.769 -1.0818 -0.0791  0.7309
 7571TIP3    H144204   1.278   3.793   3.764 -0.6772  0.8631  0.6377
 7571TIP3    H244205   1.353   3.661   3.752 -1.8030  0.3949 -1.5333
 7572TIP3   OH244206   6.624   1.186  15.692  0.3493 -0.5776  0.5293
 7572TIP3    H144207   6.675   1.266  15.684  0.3480 -0.5664  0.6303
 7572TIP3    H244208   6.562   1.203  15.764  1.5220 -1.2948  1.7376
 7573TIP3   OH244209   5.939   2.163  13.307 -0.0306 -0.0107 -0.1811
 7573TIP3    H144210   5.912   2.177  13.216  1.5971 -0.1766 -0.6979
 7573TIP3    H244211   5.876   2.098  13.340 -0.8242  0.2820 -1.0854
 7574TIP3   OH244212   3.357   3.809   0.251  0.0524 -0.5236 -0.5614
 7574TIP3    H144213   3.386   3.776   0.166  0.8511 -1.7895  0.1896
 7574TIP3    H244214   3.338   3.731   0.303 -0.1600  0.2264  0.5240
 7575TIP3   OH244215   5.366   0.395  14.531  0.1640 -0.3406 -0.2496
 7575TIP3    H144216   5.333   0.394  14.442  0.9895  1.6661 -0.6074
 7575TIP3    H244217   5.289   0.412  14.586  0.0461  1.0545 -0.8148
 7576TIP3   OH244218   1.524   2.951  15.654  0.0082 -0.0717  0.1329
 7576TIP3    H144219   1.583   2.889  15.697 -0.6017 -0.8585 -0.1649
 7576TIP3    H244220   1.558   2.957  15.564  0.9954  1.2105  0.5740
 7577TIP3   OH244221   4.257   1.482  13.771  0.1835 -0.3494  0.1909
 7577TIP3    H144222   4.178   1.490  13.824  0.6847 -2.5912  1.3271
 7577TIP3    H244223   4.318   1.433  13.826  1.3558 -1.1471 -1.7805
 7578TIP3   OH244224   2.757   5.323   4.015 -0.0672 -0.1520 -0.1016
 7578TIP3    H144225   2.778   5.238   3.977 -0.9378 -0.9960  1.2581
 7578TIP3    H244226   2.675   5.308   4.062 -0.4955  1.5696 -0.2788
 7579TIP3   OH244227   4.906   4.327   2.492 -0.3532  0.1045 -0.5000
 7579TIP3    H144228   4.880   4.247   2.537  0.1793  0.5429  0.6139
 7579TIP3    H244229   4.824   4.372   2.472 -0.5573  0.4077  0.9811
 7580TIP3   OH244230   4.400   1.330  14.516  0.0028  0.6893 -0.1221
 7580TIP3    H144231   4.344   1.253  14.522 -0.6257  1.2292  1.2936
 7580TIP3    H244232   4.473   1.303  14.461  0.8941 -1.5740  2.0966
 7581TIP3   OH244233   6.486   4.570   5.388 -0.5874 -0.1986  0.4187
 7581TIP3    H144234   6.519   4.660   5.382 -0.2972 -0.3286  0.0857
 7581TIP3    H244235   6.550   4.517   5.341 -1.8619 -0.3095 -1.2385
 7582TIP3   OH244236   5.975   4.096  11.569 -0.6910 -0.1564  0.5166
 7582TIP3    H144237   6.039   4.152  11.526 -0.2795  0.3114  1.7171
 7582TIP3    H244238   5.939   4.151  11.639  0.1870 -1.6037  2.1205
 7583TIP3   OH244239   3.137   1.105   3.465 -0.1676 -0.1300 -0.5098
 7583TIP3    H144240   3.079   1.142   3.398  0.9623  0.8248 -0.9662
 7583TIP3    H244241   3.141   1.172   3.533 -0.7627 -0.8133  0.2111
 7584TIP3   OH244242   5.803   3.166   0.373 -0.0870  0.4033 -0.3042
 7584TIP3    H144243   5.746   3.148   0.298 -1.4290 -0.3764  0.8891
 7584TIP3    H244244   5.745   3.204   0.439  0.8163 -0.1683  0.8308
 7585TIP3   OH244245   1.910   0.628  14.093  0.3102  0.4702 -0.6583
 7585TIP3    H144246   1.859   0.663  14.020 -2.2447 -0.4434  0.6107
 7585TIP3    H244247   1.951   0.549  14.058 -2.0480 -0.7566 -0.7560
 7586TIP3   OH244248   1.945   0.098   1.381 -0.3362  0.0832 -0.5586
 7586TIP3    H144249   1.910   0.040   1.312 -1.7193  0.4582 -0.1819
 7586TIP3    H244250   2.033   0.119   1.351 -1.3071  1.1218 -2.7879
 7587TIP3   OH244251   4.102   3.791  11.248 -0.4214 -0.0453  0.5986
 7587TIP3    H144252   4.192   3.785  11.217 -0.8021  1.3784 -0.8582
 7587TIP3    H244253   4.074   3.700  11.261  1.0951 -0.5015  0.7447
 7588TIP3   OH244254   1.267   1.368  13.539  0.3149  0.0040 -0.5858
 7588TIP3    H144255   1.180   1.401  13.561 -0.2334 -1.5957 -0.2917
 7588TIP3    H244256   1.315   1.370  13.621  0.1950 -0.1941 -0.5109
 7589TIP3   OH244257   4.287   1.135  16.609  0.1189 -0.5585 -0.7993
 7589TIP3    H144258   4.281   1.062  16.671 -0.3368 -0.7041 -1.0171
 7589TIP3    H244259   4.251   1.210  16.657 -0.0894 -0.6369 -0.8344
 7590TIP3   OH244260   1.332   5.795   4.612 -0.1924  0.0723  0.1032
 7590TIP3    H144261   1.412   5.771   4.565 -0.6668  2.5422 -2.1063
 7590TIP3    H244262   1.362   5.850   4.684  0.0636  2.3331 -1.6564
 7591TIP3   OH244263   1.760   5.108   2.100 -0.3435  0.7960  0.9083
 7591TIP3    H144264   1.682   5.069   2.140 -0.3320  0.4246  0.5762
 7591TIP3    H244265   1.833   5.065   2.145 -0.3304  0.3218  0.4381
 7592TIP3   OH244266   2.205   3.043   3.188  0.6582 -0.1082 -0.9478
 7592TIP3    H144267   2.245   3.030   3.274 -1.2406  1.1520  0.1742
 7592TIP3    H244268   2.154   2.964   3.172 -0.5023  0.4406 -0.0316
 7593TIP3   OH244269   6.642   4.051   3.920  0.2232  0.1197  0.1564
 7593TIP3    H144270   6.735   4.045   3.902  0.4709 -0.4783  1.6086
 7593TIP3    H244271   6.625   4.145   3.929  0.6587  0.2304 -0.1734
 7594TIP3   OH244272   2.190   6.258  13.055  0.3606 -0.3883  0.0599
 7594TIP3    H144273   2.113   6.211  13.023 -0.6857  2.1739 -1.3078
 7594TIP3    H244274   2.264   6.207  13.023 -0.7393 -1.5923 -0.6352
 7595TIP3   OH244275   1.374   0.634   1.362 -0.5186  0.1458  0.2956
 7595TIP3    H144276   1.429   0.591   1.427  0.1750 -0.3544 -0.6061
 7595TIP3    H244277   1.368   0.725   1.393 -1.4717 -0.4441  1.8585
 7596TIP3   OH244278   5.342   3.310  16.538  0.1821  0.4403 -0.2740
 7596TIP3    H144279   5.262   3.264  16.511  0.5398  0.3291 -1.1568
 7596TIP3    H244280   5.357   3.281  16.628 -0.4726  0.0399 -0.2885
 7597TIP3   OH244281   3.255   1.362   0.592 -0.9096 -0.0662  0.0080
 7597TIP3    H144282   3.208   1.445   0.601  1.0061  0.9177  1.4763
 7597TIP3    H244283   3.284   1.360   0.501 -1.9383  0.3388 -0.3295
 7598TIP3   OH244284   2.241   2.864  16.808 -0.6641 -0.1179  0.4728
 7598TIP3    H144285   2.198   2.890  16.727  1.2518  0.5284 -0.3639
 7598TIP3    H244286   2.304   2.934  16.825  1.0129 -1.7036  0.9378
 7599TIP3   OH244287   0.181   1.030   0.604 -0.2982 -0.1441  0.0584
 7599TIP3    H144288   0.249   1.096   0.597 -1.2234  0.8301  0.1420
 7599TIP3    H244289   0.116   1.069   0.662 -2.1188 -0.0251 -2.0006
 7600TIP3   OH244290   6.248   5.703   5.963 -0.1635  0.0447  0.1151
 7600TIP3    H144291   6.208   5.665   6.042  1.9004 -1.0034  0.6864
 7600TIP3    H244292   6.286   5.786   5.992  0.9676 -0.5403  0.3486
 7601TIP3   OH244293   3.357   3.197  13.625 -0.1811 -0.0082  0.0454
 7601TIP3    H144294   3.410   3.209  13.703  0.6978 -1.6628 -0.2715
 7601TIP3    H244295   3.402   3.249  13.558 -0.3675  0.5897  0.3761
 7602TIP3   OH244296   6.535   1.182   2.128  0.3939  0.0103 -0.2357
 7602TIP3    H144297   6.475   1.112   2.155 -0.8906  0.4182 -1.9261
 7602TIP3    H244298   6.491   1.263   2.155  1.3181  0.2362  0.6362
 7603TIP3   OH244299   2.617   2.140  11.163 -0.4285 -0.3285  1.0802
 7603TIP3    H144300   2.647   2.226  11.192 -1.2777  0.5125 -0.4769
 7603TIP3    H244301   2.675   2.118  11.090  1.0388 -1.9664  2.7038
 7604TIP3   OH244302   1.539   2.015  13.762  0.3222 -0.9398 -0.5241
 7604TIP3    H144303   1.625   2.027  13.722  0.5370 -2.3276 -0.4988
 7604TIP3    H244304   1.544   1.931  13.807 -1.3703 -1.5780 -1.4299
 7605TIP3   OH244305   2.315   1.685   3.606 -0.7478 -0.2191 -0.3401
 7605TIP3    H144306   2.380   1.691   3.676 -0.2155  2.4549 -1.0065
 7605TIP3    H244307   2.291   1.592   3.604  0.1568 -0.5704  2.5077
 7606TIP3   OH244308   5.482   6.576  14.627 -0.1419  0.2941  0.1733
 7606TIP3    H144309   5.403   6.584  14.680 -0.1520 -0.3291  0.2543
 7606TIP3    H244310   5.541   6.521  14.679 -0.2211 -0.4700 -0.5347
 7607TIP3   OH244311   2.357   3.071   3.841  0.2126  0.1249  0.0604
 7607TIP3    H144312   2.314   3.125   3.775 -1.0026 -0.2963  0.4945
 7607TIP3    H244313   2.286   3.028   3.888  1.1098 -0.7381  0.6721
 7608TIP3   OH244314   6.023   3.107   3.594 -0.0163  0.0919  0.2331
 7608TIP3    H144315   5.952   3.043   3.587  0.2742 -0.0866 -1.3111
 7608TIP3    H244316   5.981   3.191   3.575  0.3493 -0.1232 -1.5682
 7609TIP3   OH244317   5.849   3.389  12.558  0.1896 -0.1762 -0.0271
 7609TIP3    H144318   5.876   3.318  12.499  1.3986  0.7196 -0.5730
 7609TIP3    H244319   5.923   3.450  12.558 -0.8766  1.1491  0.3455
 7610TIP3   OH244320   6.731   1.544  14.996  0.3851  0.1188  0.1931
 7610TIP3    H144321   6.640   1.571  15.008  0.0496 -1.3441  1.1321
 7610TIP3    H244322   6.725   1.450  14.979  1.6390  0.2432 -1.0402
 7611TIP3   OH244323   4.390   3.500   4.501  0.2769 -0.3505 -0.1896
 7611TIP3    H144324   4.439   3.438   4.555  2.7918  0.9615 -0.9213
 7611TIP3    H244325   4.395   3.465   4.412  0.6942  0.2874 -0.4184
 7612TIP3   OH244326   0.891   1.764  11.044  0.4406  0.2970  0.0800
 7612TIP3    H144327   0.916   1.825  10.974 -0.4589 -1.3048 -1.6672
 7612TIP3    H244328   0.796   1.763  11.042  0.4453 -0.9047  0.3256
 7613TIP3   OH244329   3.371   1.505  15.437  0.6151 -0.3707  0.2893
 7613TIP3    H144330   3.329   1.500  15.351  1.7596  2.7982 -0.5319
 7613TIP3    H244331   3.431   1.430  15.439  0.4849 -0.5456 -1.6298
 7614TIP3   OH244332   0.590   2.439  16.125 -0.0291  0.8059  0.2537
 7614TIP3    H144333   0.520   2.389  16.083  1.0046 -0.1404 -0.3918
 7614TIP3    H244334   0.670   2.390  16.103  0.9573  2.5281 -0.0389
 7615TIP3   OH244335   1.825   6.419  13.521  0.2660  0.5464 -0.7801
 7615TIP3    H144336   1.895   6.376  13.472  0.3561  0.3342 -0.4654
 7615TIP3    H244337   1.869   6.487  13.572  0.1916  0.6673 -0.8761
 7616TIP3   OH244338   3.436   1.237   2.251  0.2408  0.6620 -0.3056
 7616TIP3    H144339   3.387   1.184   2.314 -0.9587 -1.1203 -2.6792
 7616TIP3    H244340   3.388   1.319   2.246 -0.3123  0.3746  0.2210
 7617TIP3   OH244341   2.128   6.152  16.244 -0.1712  0.7488 -0.2885
 7617TIP3    H144342   2.188   6.161  16.318 -3.0592 -2.5432  2.6671
 7617TIP3    H244343   2.178   6.104  16.178  1.4525  0.9506  0.7731
 7618TIP3   OH244344   1.714   5.552  13.365  0.3669 -0.0785  1.1179
 7618TIP3    H144345   1.730   5.458  13.355 -0.2262 -0.0873  0.1637
 7618TIP3    H244346   1.727   5.569  13.458 -0.3368 -1.2612  1.4428
 7619TIP3   OH244347   2.999   4.444  16.355 -0.3316  0.3036  0.2572
 7619TIP3    H144348   3.040   4.460  16.440  0.6827 -1.3866  0.1139
 7619TIP3    H244349   3.068   4.459  16.291  0.0873 -2.3949 -0.0014
 7620TIP3   OH244350   3.216   5.426   5.045 -0.1192 -0.0791 -0.1461
 7620TIP3    H144351   3.185   5.492   5.107 -0.6987 -0.0613 -0.4602
 7620TIP3    H244352   3.146   5.418   4.981  1.0857  0.9623 -1.6203
 7621TIP3   OH244353   3.322   4.824   5.955 -0.1268 -0.1039 -0.2716
 7621TIP3    H144354   3.366   4.894   6.003 -0.0185 -1.3921  1.5379
 7621TIP3    H244355   3.235   4.818   5.995 -0.3048 -0.6792 -0.7378
 7622TIP3   OH244356   4.973   1.379  17.231 -0.0705  0.0680 -0.4908
 7622TIP3    H144357   5.051   1.381  17.288 -0.6662 -0.9258  0.3778
 7622TIP3    H244358   4.914   1.444  17.270 -0.1104  0.0481 -0.5191
 7623TIP3   OH244359   4.802   6.090  11.495  0.4648 -0.3364 -0.6079
 7623TIP3    H144360   4.706   6.098  11.496  0.3376 -1.7719  0.1976
 7623TIP3    H244361   4.832   6.147  11.565  0.2447  0.5480 -1.2210
 7624TIP3   OH244362   6.380   4.798  13.360 -0.4327 -0.0221 -0.3708
 7624TIP3    H144363   6.363   4.834  13.273 -2.0356  0.2094  0.0166
 7624TIP3    H244364   6.366   4.704  13.350  0.8867 -0.1910 -0.7079
 7625TIP3   OH244365   6.470   0.327  12.840  0.1794  0.3245 -0.6540
 7625TIP3    H144366   6.556   0.368  12.831  0.0094  0.3664 -2.0865
 7625TIP3    H244367   6.470   0.291  12.929  1.6962  0.2829 -0.6633
 7626TIP3   OH244368   5.945   1.410  17.208 -0.0272  0.2045  0.3084
 7626TIP3    H144369   5.919   1.322  17.183 -1.6977  0.8387 -0.2338
 7626TIP3    H244370   5.881   1.436  17.274  1.1851  0.5671  1.3765
 7627TIP3   OH244371   4.459   5.028  12.971 -0.1534 -0.2229 -0.0641
 7627TIP3    H144372   4.467   4.939  12.937  1.7130 -1.1359  2.6413
 7627TIP3    H244373   4.543   5.069  12.953 -0.8818  0.9180 -0.9773
 7628TIP3   OH244374   1.289   2.899  14.781 -0.3521 -0.0117 -0.7346
 7628TIP3    H144375   1.228   2.826  14.783  2.5565 -2.4818  1.0311
 7628TIP3    H244376   1.291   2.925  14.689 -2.4436 -1.2221 -1.1689
 7629TIP3   OH244377   6.322   6.563   5.192 -0.2139  0.0012 -0.4133
 7629TIP3    H144378   6.365   6.645   5.216 -0.5743 -0.0716  0.4920
 7629TIP3    H244379   6.245   6.590   5.142 -0.1089  0.1946 -0.4704
 7630TIP3   OH244380   1.507   5.537  11.485  0.8914 -0.2881 -0.0596
 7630TIP3    H144381   1.450   5.485  11.428  0.1998 -0.2315  0.5653
 7630TIP3    H244382   1.518   5.620  11.439 -0.5290  0.1528  0.3683
 7631TIP3   OH244383   6.581   3.198   3.470 -0.0647 -0.1589  0.1676
 7631TIP3    H144384   6.490   3.197   3.501 -0.3220 -0.6830 -0.5947
 7631TIP3    H244385   6.631   3.158   3.541 -0.5278 -0.5060  0.2966
 7632TIP3   OH244386   5.698   6.509   3.497  0.1739  0.1598 -0.4222
 7632TIP3    H144387   5.788   6.483   3.517 -0.4239  0.0101  2.3683
 7632TIP3    H244388   5.704   6.602   3.474  0.7367  0.9397  2.6706
 7633TIP3   OH244389   1.328   6.696   1.499  0.2785 -0.3238 -0.0037
 7633TIP3    H144390   1.261   6.628   1.499  0.7196 -0.7636  0.6406
 7633TIP3    H244391   1.310   6.747   1.578 -1.2648  1.5249 -1.5036
 7634TIP3   OH244392   5.058   5.816   3.665  0.1085  0.1524 -0.5980
 7634TIP3    H144393   5.151   5.802   3.682  0.3967  1.4190 -1.1042
 7634TIP3    H244394   5.047   5.795   3.573 -0.1564 -0.1867 -0.4927
 7635TIP3   OH244395   1.310   5.595   6.217 -0.2085  0.2631  0.2095
 7635TIP3    H144396   1.399   5.560   6.213 -0.8155 -1.2321 -0.2869
 7635TIP3    H244397   1.309   5.648   6.296  0.6417 -1.0471  1.1138
 7636TIP3   OH244398   6.017   3.391   1.881  0.5854 -0.0886  0.2137
 7636TIP3    H144399   6.033   3.301   1.853 -0.3170 -0.1280 -0.2080
 7636TIP3    H244400   6.028   3.443   1.801  0.8261  0.1425  0.3964
 7637TIP3   OH244401   3.983   5.290  13.856 -0.0525  0.2810 -0.1469
 7637TIP3    H144402   4.071   5.326  13.869  0.4170 -1.6111  2.2929
 7637TIP3    H244403   3.934   5.360  13.813  2.0039  2.2177  0.5749
 7638TIP3   OH244404   2.250   0.914  13.817  0.1640  0.1120  0.2203
 7638TIP3    H144405   2.282   0.926  13.907  1.7377  0.9145 -0.4158
 7638TIP3    H244406   2.316   0.858  13.776 -1.0808 -1.0960 -0.1619
 7639TIP3   OH244407   4.350   3.191   5.203 -0.1886  0.7104 -0.8386
 7639TIP3    H144408   4.283   3.127   5.224 -0.2550  1.7767  2.3847
 7639TIP3    H244409   4.305   3.255   5.148 -1.0138 -0.1293 -1.1589
 7640TIP3   OH244410   4.729   6.528   5.394 -0.0004 -0.2453 -0.6969
 7640TIP3    H144411   4.740   6.437   5.365  0.1503 -0.0749 -1.1916
 7640TIP3    H244412   4.766   6.530   5.482  0.0288 -0.6563 -0.6985
 7641TIP3   OH244413   2.451   1.056  13.610  0.2055  0.1128  0.2597
 7641TIP3    H144414   2.489   0.969  13.601 -0.2683  0.1248 -2.3858
 7641TIP3    H244415   2.387   1.048  13.680  0.2234 -1.6619  0.0839
 7642TIP3   OH244416   3.908   4.329  12.682  0.0221 -0.5410 -0.0823
 7642TIP3    H144417   3.960   4.408  12.674 -0.1290 -0.5075 -0.7922
 7642TIP3    H244418   3.966   4.258  12.654 -0.3104 -0.4986 -0.9117
 7643TIP3   OH244419   4.179   5.252   0.559 -0.6611 -0.0005 -0.0647
 7643TIP3    H144420   4.178   5.170   0.608 -0.3422 -0.1983 -0.3785
 7643TIP3    H244421   4.262   5.249   0.511  0.8157  1.8855  2.2483
 7644TIP3   OH244422   3.996   5.197  15.862 -1.0263 -0.1443 -0.6703
 7644TIP3    H144423   3.981   5.187  15.956  0.3290  0.3386 -0.3777
 7644TIP3    H244424   3.948   5.277  15.838 -0.7897  0.1297 -0.2356
 7645TIP3   OH244425   6.200   0.476  16.699  0.5654  0.2944  0.0074
 7645TIP3    H144426   6.199   0.438  16.787 -1.9238 -2.0263 -0.9324
 7645TIP3    H244427   6.272   0.431  16.655  0.3931 -0.2034  0.2201
 7646TIP3   OH244428   0.768   0.445   2.113 -0.7802 -0.1081  0.0493
 7646TIP3    H144429   0.782   0.372   2.174 -0.9270 -0.4348 -0.3052
 7646TIP3    H244430   0.743   0.518   2.169  0.3905 -0.0439  0.5103
 7647TIP3   OH244431   1.367   2.351  11.453  0.0875  0.1240 -0.0352
 7647TIP3    H144432   1.386   2.262  11.422  0.7431  0.5607 -0.9386
 7647TIP3    H244433   1.449   2.380  11.494  0.3511  0.8222 -1.0214
 7648TIP3   OH244434   2.637   3.139   1.841  0.5276 -0.2858 -0.0428
 7648TIP3    H144435   2.696   3.196   1.889 -0.2776  3.5132 -3.3125
 7648TIP3    H244436   2.551   3.180   1.850 -0.3601 -1.8341 -1.1578
 7649TIP3   OH244437   0.665   6.399  17.224  1.2619 -0.0244 -0.0250
 7649TIP3    H144438   0.709   6.378  17.142 -2.6876 -1.4489 -1.8857
 7649TIP3    H244439   0.632   6.314  17.256  1.0141  0.8012  1.9655
 7650TIP3   OH244440   3.553   2.859  15.021 -0.2050  0.2165  0.0908
 7650TIP3    H144441   3.596   2.810  14.952  3.6155  1.0160  1.8042
 7650TIP3    H244442   3.503   2.793  15.070  0.4136 -1.0057 -0.9125
 7651TIP3   OH244443   2.120   0.611   5.440  0.9518  0.2938 -0.0702
 7651TIP3    H144444   2.163   0.625   5.356 -0.0374 -0.1830 -0.6625
 7651TIP3    H244445   2.121   0.697   5.482  3.7308 -0.0060  0.5290
 7652TIP3   OH244446   6.593   3.320  11.901  0.5627 -0.1711  0.2267
 7652TIP3    H144447   6.520   3.295  11.845  2.5365 -1.3532 -1.9203
 7652TIP3    H244448   6.631   3.236  11.930  1.2455  0.4144  1.0559
 7653TIP3   OH244449   0.845   4.752  12.599  0.0600  0.0659  0.1198
 7653TIP3    H144450   0.931   4.795  12.592  0.7080 -1.4580 -2.1640
 7653TIP3    H244451   0.836   4.705  12.515 -2.5431 -0.6401  0.7701
 7654TIP3   OH244452   1.590   4.556   1.199 -0.2341 -0.4851  0.3002
 7654TIP3    H144453   1.612   4.569   1.107  4.0090 -0.9106  1.1759
 7654TIP3    H244454   1.609   4.464   1.216  1.2597  0.1120  2.1211
 7655TIP3   OH244455   1.150   6.705  14.117  0.0722  0.2820  0.3135
 7655TIP3    H144456   1.074   6.764  14.115 -0.5959 -0.6105 -0.8246
 7655TIP3    H244457   1.195   6.728  14.198 -1.2816  0.9912  0.8904
 7656TIP3   OH244458   3.056   6.328   1.894 -0.3820 -0.4132  0.3767
 7656TIP3    H144459   2.998   6.325   1.970  0.2719  0.0109  0.9006
 7656TIP3    H244460   3.095   6.415   1.898 -2.3173  0.6097 -1.9253
 7657TIP3   OH244461   6.214   1.852  16.833  0.2282  0.3326 -0.4320
 7657TIP3    H144462   6.134   1.889  16.870 -0.1870 -1.1765  0.2312
 7657TIP3    H244463   6.266   1.827  16.910  0.2537 -0.9451 -0.8575
 7658TIP3   OH244464   5.552   0.712   3.447  0.4046  0.5781 -0.3214
 7658TIP3    H144465   5.458   0.707   3.463  0.4789 -0.8871 -0.2569
 7658TIP3    H244466   5.591   0.653   3.512  1.3412  0.9009 -0.5793
 7659TIP3   OH244467   1.810   0.461   5.019 -0.3973  0.3760  0.2399
 7659TIP3    H144468   1.870   0.535   5.025  0.1081  0.0390 -0.5465
 7659TIP3    H244469   1.865   0.384   5.029 -0.4557  0.0128 -1.8907
 7660TIP3   OH244470   1.141   0.577   1.243  0.1777 -0.4503  0.2567
 7660TIP3    H144471   1.213   0.594   1.304  0.7188  0.7132 -0.6651
 7660TIP3    H244472   1.177   0.513   1.181 -0.0566 -0.9329  0.6213
 7661TIP3   OH244473   3.941   2.793  14.512 -0.4863 -0.1544 -0.6707
 7661TIP3    H144474   3.965   2.706  14.544 -0.4593 -0.3055 -1.1002
 7661TIP3    H244475   4.025   2.836  14.496 -0.4537  0.9294  2.1351
 7662TIP3   OH244476   4.033   2.871  12.245  0.8050 -0.5885  0.2908
 7662TIP3    H144477   3.986   2.879  12.329  0.2892  0.8981 -0.1227
 7662TIP3    H244478   4.073   2.957  12.232  0.4791 -0.6564 -1.2253
 7663TIP3   OH244479   5.689   4.135   4.500 -0.4114  0.1926 -0.2649
 7663TIP3    H144480   5.767   4.170   4.457 -1.2923 -1.0525 -3.0028
 7663TIP3    H244481   5.624   4.205   4.490 -0.1837  0.4986  0.3827
 7664TIP3   OH244482   4.534   5.677  14.512 -0.2337  0.0625  0.1141
 7664TIP3    H144483   4.536   5.695  14.418 -0.3887 -2.5252 -0.4382
 7664TIP3    H244484   4.445   5.644  14.528 -0.3539  0.9399  1.2511
 7665TIP3   OH244485   4.684   3.151   2.050 -0.2574 -0.4743 -0.2670
 7665TIP3    H144486   4.616   3.214   2.074 -0.0944 -0.5517  0.4086
 7665TIP3    H244487   4.690   3.158   1.955 -0.4664  0.2959 -0.2308
 7666TIP3   OH244488   5.929   2.622   1.874  0.7390 -0.6670  0.1579
 7666TIP3    H144489   5.944   2.688   1.942  1.2537 -0.2675 -0.3445
 7666TIP3    H244490   5.834   2.618   1.865  0.7161  0.0578  0.1278
 7667TIP3   OH244491   6.497   5.290  11.870  0.1005 -0.1549 -0.0871
 7667TIP3    H144492   6.546   5.226  11.819 -1.7222 -2.4896  1.0114
 7667TIP3    H244493   6.414   5.247  11.890 -0.9175  2.3030  1.2594
 7668TIP3   OH244494   5.561   3.963   5.443 -0.0215  0.1193  0.0768
 7668TIP3    H144495   5.492   4.014   5.400  1.7331  1.4838 -1.2307
 7668TIP3    H244496   5.642   4.009   5.421  1.3509 -1.6167  1.3081
 7669TIP3   OH244497   1.405   3.288  13.124 -0.3938 -0.0186  0.2942
 7669TIP3    H144498   1.405   3.350  13.052  0.0401  0.7512  0.9436
 7669TIP3    H244499   1.320   3.245  13.120 -1.1508  1.4356  0.5380
 7670TIP3   OH244500   0.704   2.080  16.578 -0.1363 -1.0311  0.2766
 7670TIP3    H144501   0.630   2.049  16.630  0.0562  0.3778  1.4073
 7670TIP3    H244502   0.664   2.112  16.497 -1.2297  2.8420  2.2061
 7671TIP3   OH244503   4.251   3.304   6.854  0.1061  0.0669 -0.7243
 7671TIP3    H144504   4.202   3.223   6.869  1.7836 -1.5510 -3.4398
 7671TIP3    H244505   4.191   3.359   6.803 -1.2223  0.7655  1.5552
 7672TIP3   OH244506   3.806   3.981   4.866  0.2558  0.3756  0.0370
 7672TIP3    H144507   3.752   4.060   4.876 -1.0875 -0.6691  1.2464
 7672TIP3    H244508   3.895   4.012   4.881 -0.1242  1.9037 -0.7548
 7673TIP3   OH244509   4.496   6.458   0.452 -0.1270  0.0456  0.1195
 7673TIP3    H144510   4.482   6.550   0.476 -1.5901 -0.2908  0.6109
 7673TIP3    H244511   4.591   6.448   0.448  0.0440  1.4892  0.4276
 7674TIP3   OH244512   4.629   6.192  14.715  0.0669 -0.4304 -0.0843
 7674TIP3    H144513   4.570   6.239  14.774  0.4547  0.8615 -0.7114
 7674TIP3    H244514   4.715   6.231  14.732  0.5528 -1.5700  0.0652
 7675TIP3   OH244515   1.534   1.940   5.560  0.0193 -0.1429 -0.2348
 7675TIP3    H144516   1.452   1.939   5.609  0.1263  4.1710  0.2430
 7675TIP3    H244517   1.507   1.952   5.469  0.0716 -0.8918 -0.3534
 7676TIP3   OH244518   4.711   4.123   0.689  0.1538  0.1596  0.1341
 7676TIP3    H144519   4.628   4.075   0.694  1.0828 -1.5388 -0.1230
 7676TIP3    H244520   4.689   4.205   0.644 -1.5964  0.2594  1.1385
 7677TIP3   OH244521   2.589   4.092   1.367  0.0217  0.1626  0.1298
 7677TIP3    H144522   2.652   4.104   1.438 -0.8100  0.0489  0.9024
 7677TIP3    H244523   2.643   4.079   1.289  0.9746 -1.2594  0.9978
 7678TIP3   OH244524   4.258   4.834  12.751 -0.4109 -0.5515 -0.0424
 7678TIP3    H144525   4.320   4.792  12.811 -0.1067  0.4157  0.3279
 7678TIP3    H244526   4.311   4.865  12.678 -0.6265 -0.7544 -0.2863
 7679TIP3   OH244527   4.891   4.120   1.606  0.6175 -0.4298  0.0531
 7679TIP3    H144528   4.881   4.092   1.515  1.2690  1.3434 -0.5797
 7679TIP3    H244529   4.945   4.052   1.646 -0.1962 -1.5478 -0.7240
 7680TIP3   OH244530   2.362   2.863   4.932  0.2311  0.6138  0.3536
 7680TIP3    H144531   2.336   2.852   4.840  0.4921 -0.1533  0.3684
 7680TIP3    H244532   2.310   2.937   4.962  0.1785  0.9059 -0.4300
 7681TIP3   OH244533   1.614   5.687  12.661  0.4879  0.2304 -0.0272
 7681TIP3    H144534   1.540   5.655  12.610  0.6244  0.1715 -0.1907
 7681TIP3    H244535   1.577   5.754  12.718  0.0280 -0.8492  0.9721
 7682TIP3   OH244536   2.790   2.513  17.006 -0.1047  0.0086  0.2183
 7682TIP3    H144537   2.780   2.538  16.914  0.4184  2.4290  0.7941
 7682TIP3    H244538   2.884   2.521  17.023 -0.0345 -1.5731  0.6730
 7683TIP3   OH244539   1.418   1.964   0.230 -0.3366 -0.2608  0.2295
 7683TIP3    H144540   1.402   1.870   0.234 -2.6692  0.0811 -0.6250
 7683TIP3    H244541   1.338   2.004   0.264  0.0609  1.4442 -0.7672
 7684TIP3   OH244542   1.577   2.110  10.863 -0.1907  0.1004  0.6646
 7684TIP3    H144543   1.657   2.130  10.912  2.2053  0.6876 -3.2543
 7684TIP3    H244544   1.551   2.023  10.894  2.1733 -0.2690  1.7506
 7685TIP3   OH244545   2.210   3.356  11.598 -0.4819 -0.2183  0.0847
 7685TIP3    H144546   2.263   3.425  11.559  1.6249 -0.9538  1.5349
 7685TIP3    H244547   2.143   3.336  11.532  0.9007  0.8985 -1.6869
 7686TIP3   OH244548   1.852   5.288  14.985  0.0072 -0.3610 -0.5899
 7686TIP3    H144549   1.768   5.274  15.027 -0.8010  2.4461 -1.1817
 7686TIP3    H244550   1.848   5.236  14.904 -1.5449  0.5006 -1.0859
 7687TIP3   OH244551   2.377   2.960  13.571  0.0462 -0.5933 -0.0738
 7687TIP3    H144552   2.295   2.977  13.618  0.1695 -0.8452  0.2376
 7687TIP3    H244553   2.417   3.046  13.559 -0.8369 -0.3448 -1.2775
 7688TIP3   OH244554   3.350   5.984  11.951 -0.2206 -0.1613 -0.2714
 7688TIP3    H144555   3.318   5.909  12.001 -1.8360  1.0839  0.6410
 7688TIP3    H244556   3.299   5.982  11.869 -1.6503  1.0050  0.5680
 7689TIP3   OH244557   1.833   3.375   3.861  0.3142  0.5614 -0.4226
 7689TIP3    H144558   1.804   3.296   3.816 -0.5031 -0.5095  1.8781
 7689TIP3    H244559   1.921   3.355   3.891  0.3861  0.8030 -0.4698
 7690TIP3   OH244560   6.816   2.982   0.647 -0.1385 -0.0309 -0.2341
 7690TIP3    H144561   6.763   3.012   0.722  1.7553  0.9229  0.7492
 7690TIP3    H244562   6.905   3.010   0.668  0.8331 -1.9516 -1.7057
 7691TIP3   OH244563   1.881   5.984  15.473  0.1257  0.2010 -0.3008
 7691TIP3    H144564   1.793   5.971  15.436  0.1063  1.0172 -0.5594
 7691TIP3    H244565   1.868   6.048  15.543  0.5493  0.4993 -0.4919
 7692TIP3   OH244566   6.526   2.288   1.780 -0.0551 -0.1684 -0.2696
 7692TIP3    H144567   6.471   2.365   1.796 -0.9766 -0.7420 -0.6032
 7692TIP3    H244568   6.482   2.243   1.708 -0.1100 -1.5747  0.6334
 7693TIP3   OH244569   0.318   5.803  17.051 -0.6486 -0.5971 -0.0431
 7693TIP3    H144570   0.362   5.874  17.005  0.0661 -0.8635  0.2243
 7693TIP3    H244571   0.240   5.843  17.089  0.8157  0.5264  1.8634
 7694TIP3   OH244572   1.367   0.259   2.481  0.3849 -0.0175  0.1545
 7694TIP3    H144573   1.307   0.268   2.555 -0.7649  0.1566 -0.7822
 7694TIP3    H244574   1.415   0.341   2.479  0.7663 -0.2241  1.0162
 7695TIP3   OH244575   6.005   0.329  16.078 -0.3416 -0.4344 -0.0330
 7695TIP3    H144576   5.936   0.394  16.065 -0.5823 -0.6262  0.2838
 7695TIP3    H244577   5.959   0.251  16.111  0.1022 -0.3374  0.8395
 7696TIP3   OH244578   1.683   3.636   0.850  0.4198  0.3486  1.2042
 7696TIP3    H144579   1.705   3.627   0.757 -0.8867 -0.2428  0.9315
 7696TIP3    H244580   1.735   3.568   0.893  0.4892  0.1391  0.8026
 7697TIP3   OH244581   6.598   1.637  16.525 -0.7411 -0.2674 -0.3326
 7697TIP3    H144582   6.572   1.702  16.590 -1.1529 -1.2486  0.5194
 7697TIP3    H244583   6.565   1.554  16.561  0.1608 -0.9968 -1.1724
 7698TIP3   OH244584   2.555   6.244   0.857 -0.2599 -0.3159  0.2629
 7698TIP3    H144585   2.580   6.293   0.936  0.5033 -1.8584  0.9949
 7698TIP3    H244586   2.628   6.256   0.797 -1.4392  2.0296 -0.8153
 7699TIP3   OH244587   1.012   5.273  14.843 -0.3230 -0.7449  0.3446
 7699TIP3    H144588   0.917   5.264  14.840 -0.4062  0.1811 -0.0312
 7699TIP3    H244589   1.044   5.205  14.784 -0.7381 -1.2524  0.6998
 7700TIP3   OH244590   4.987   5.464   1.174  0.4109  0.0143 -0.6945
 7700TIP3    H144591   5.072   5.508   1.181  1.7353 -2.4894 -0.3964
 7700TIP3    H244592   4.992   5.392   1.237 -3.6614  2.4585  2.6902
 7701TIP3   OH244593   3.145   0.714  13.774  0.2624 -0.1242 -0.0111
 7701TIP3    H144594   3.204   0.766  13.828  1.2529 -1.5530  0.2895
 7701TIP3    H244595   3.201   0.677  13.706 -0.5283 -0.4348 -0.5007
 7702TIP3   OH244596   1.621   4.577  12.240 -0.1089  0.5123  0.2432
 7702TIP3    H144597   1.573   4.640  12.293 -1.9966 -0.2146 -0.5579
 7702TIP3    H244598   1.572   4.572  12.158  1.8422  0.4073 -0.9656
 7703TIP3   OH244599   5.920   6.612   2.451 -0.2084 -0.1038 -0.4621
 7703TIP3    H144600   5.998   6.667   2.456 -0.7314  0.6535 -0.5414
 7703TIP3    H244601   5.902   6.606   2.357 -2.0047  2.2579 -0.3289
 7704TIP3   OH244602   3.766   4.656  14.357  0.7447  0.0548  0.1441
 7704TIP3    H144603   3.689   4.610  14.391  1.6893 -0.6868  1.3225
 7704TIP3    H244604   3.733   4.708  14.284 -0.9775  0.2369  1.0443
 7705TIP3   OH244605   4.705   4.591  12.910 -0.1624  0.0173  0.3377
 7705TIP3    H144606   4.784   4.586  12.963  0.3851  0.4979 -0.4408
 7705TIP3    H244607   4.732   4.560  12.824 -0.8257  0.1832  0.0690
 7706TIP3   OH244608   3.663   0.781   0.590  0.0906 -0.2849 -0.2783
 7706TIP3    H144609   3.635   0.740   0.672 -1.7943  0.2215 -0.6347
 7706TIP3    H244610   3.758   0.775   0.591  0.0089 -1.6338  1.2426
 7707TIP3   OH244611   6.494   2.166   1.365  0.1195  0.2620 -0.3977
 7707TIP3    H144612   6.484   2.235   1.299 -1.0270  1.3832  0.9174
 7707TIP3    H244613   6.562   2.199   1.424  0.7012 -0.4582 -0.6649
 7708TIP3   OH244614   6.083   1.438  11.086 -0.2580  0.3016 -0.3344
 7708TIP3    H144615   6.032   1.496  11.030  1.3538  1.2528 -0.8279
 7708TIP3    H244616   6.129   1.496  11.147  1.4880 -0.4124 -0.9334
 7709TIP3   OH244617   0.623   3.528   0.630 -0.4078  0.2035  0.4361
 7709TIP3    H144618   0.599   3.611   0.671  2.7869  2.7252 -2.3923
 7709TIP3    H244619   0.569   3.524   0.551 -0.1133 -0.0863  0.2486
 7710TIP3   OH244620   5.545   4.610  16.889  0.0264 -0.1775 -0.1555
 7710TIP3    H144621   5.550   4.607  16.985 -0.1518  0.6101 -0.1230
 7710TIP3    H244622   5.587   4.693  16.865 -0.3990 -0.1295 -0.7308
 7711TIP3   OH244623   5.906   1.790  17.163  0.2332 -0.5088  0.2181
 7711TIP3    H144624   5.848   1.843  17.109  0.6065 -1.1279 -0.8022
 7711TIP3    H244625   5.856   1.772  17.243  0.7165  2.8382  1.3580
 7712TIP3   OH244626   1.083   1.731   4.186 -0.5702  0.2261 -0.5083
 7712TIP3    H144627   1.001   1.779   4.175 -0.7333 -0.4986 -2.9181
 7712TIP3    H244628   1.148   1.785   4.141  0.1053  0.3305  0.5781
 7713TIP3   OH244629   1.915   4.735   4.922 -0.1955 -0.0867  0.3662
 7713TIP3    H144630   1.894   4.662   4.979 -0.9963 -1.6268 -1.8241
 7713TIP3    H244631   1.999   4.711   4.882 -0.3855  0.2634 -0.2537
 7714TIP3   OH244632   0.825   5.028  15.204 -0.0530 -0.3797  0.1672
 7714TIP3    H144633   0.740   4.986  15.210 -0.0585 -0.5730 -1.0334
 7714TIP3    H244634   0.848   5.049  15.294 -1.2174 -0.6224  0.5318
 7715TIP3   OH244635   0.161   0.423   0.504  0.0543 -0.1865  0.2707
 7715TIP3    H144636   0.132   0.382   0.422  3.2616 -0.8456 -0.5888
 7715TIP3    H244637   0.188   0.511   0.479  0.5235 -0.1998  0.7234
 7716TIP3   OH244638   6.446   1.649   1.478  0.3968  0.5387  0.4214
 7716TIP3    H144639   6.518   1.587   1.485 -0.4572 -0.4490  0.5716
 7716TIP3    H244640   6.463   1.697   1.396  0.8945 -0.1117  0.1468
 7717TIP3   OH244641   2.784   4.992  14.304  0.7264 -0.2573  0.1778
 7717TIP3    H144642   2.807   4.909  14.345 -0.4637  1.0397  3.7403
 7717TIP3    H244643   2.705   4.973  14.253  1.5703 -1.7034 -0.6087
 7718TIP3   OH244644   1.868   4.145   1.342  0.7140  0.1644  0.0678
 7718TIP3    H144645   1.788   4.194   1.323  1.5547  1.7685  0.6135
 7718TIP3    H244646   1.901   4.118   1.256  0.6935  1.2764 -0.2957
 7719TIP3   OH244647   0.262   1.731  16.893 -0.1211  0.3915  0.4865
 7719TIP3    H144648   0.257   1.811  16.841 -0.5526  1.2814  1.8625
 7719TIP3    H244649   0.171   1.710  16.913 -0.1179 -1.3483 -1.1909
 7720TIP3   OH244650   0.719   5.135   0.788 -0.4490  0.5274  0.2283
 7720TIP3    H144651   0.688   5.094   0.707 -1.7939  1.2611  0.3658
 7720TIP3    H244652   0.769   5.211   0.759  0.6046 -0.2326  0.0318
 7721TIP3   OH244653   3.022   1.875  16.234 -0.0585  0.5994  0.2348
 7721TIP3    H144654   3.039   1.785  16.205 -1.3879 -0.5654  2.9474
 7721TIP3    H244655   3.092   1.894  16.296 -0.2669  1.1583  0.3011
 7722TIP3   OH244656   2.603   2.848   6.125 -0.2126  0.3414  0.9115
 7722TIP3    H144657   2.567   2.772   6.079  1.1682  0.3329 -0.1849
 7722TIP3    H244658   2.641   2.811   6.205 -0.6976  0.0589  1.0155
 7723TIP3   OH244659   4.551   6.073  15.947 -0.4203 -0.4586 -0.3932
 7723TIP3    H144660   4.538   6.097  16.038  0.0722 -1.4549 -0.0554
 7723TIP3    H244661   4.477   6.112  15.901  0.1158  1.3083  0.2060
 7724TIP3   OH244662   4.201   2.938   5.152  0.6383 -0.4706 -0.4540
 7724TIP3    H144663   4.274   2.877   5.150 -0.6733 -2.1299  0.5516
 7724TIP3    H244664   4.169   2.941   5.062 -0.2296 -2.4687 -0.2285
 7725TIP3   OH244665   3.063   6.103  11.828 -0.1621  0.3541 -0.1008
 7725TIP3    H144666   3.026   6.032  11.880 -0.1141  1.3362  1.3223
 7725TIP3    H244667   2.995   6.122  11.762 -0.0288 -1.2021 -0.7137
 7726TIP3   OH244668   4.480   5.897  14.074  0.2485 -0.1378 -0.2907
 7726TIP3    H144669   4.552   5.949  14.111 -1.9163  1.4518  1.7735
 7726TIP3    H244670   4.480   5.921  13.981  1.0326  1.4620  0.0998
 7727TIP3   OH244671   0.586   5.429  14.537  0.6447  0.3778 -0.1756
 7727TIP3    H144672   0.660   5.490  14.529  0.2856  0.8333 -0.0556
 7727TIP3    H244673   0.599   5.367  14.465  1.8149 -0.2880  0.5849
 7728TIP3   OH244674   6.107   3.423  16.538  0.2476  0.4017  0.2673
 7728TIP3    H144675   6.117   3.329  16.524 -0.4106  0.1302  1.5596
 7728TIP3    H244676   6.020   3.443  16.505 -0.0452  0.3469  0.9933
 7729TIP3   OH244677   3.657   1.946   0.464 -0.1578 -0.4962  0.1082
 7729TIP3    H144678   3.668   1.986   0.378 -1.7333  1.8790  0.9555
 7729TIP3    H244679   3.585   1.885   0.453  0.2679 -0.8989 -0.4780
 7730TIP3   OH244680   3.948   5.466   5.046 -0.1801  0.3808  0.2609
 7730TIP3    H144681   3.941   5.390   5.104 -0.1874  0.4868  0.3996
 7730TIP3    H244682   3.949   5.542   5.105 -1.6532  0.5740  0.0456
 7731TIP3   OH244683   3.284   1.434  15.182 -0.6234 -0.2163 -0.0026
 7731TIP3    H144684   3.230   1.477  15.117  0.3360 -2.6251 -2.4616
 7731TIP3    H244685   3.364   1.410  15.135 -0.6868 -3.6928  1.5288
 7732TIP3   OH244686   6.446   6.783  16.215 -0.4334 -0.0555 -0.0247
 7732TIP3    H144687   6.458   6.878  16.217 -0.9572  0.0223 -0.4484
 7732TIP3    H244688   6.432   6.758  16.307  1.8547 -0.0149  0.3496
 7733TIP3   OH244689   4.582   0.224   4.725  0.0864 -0.2031 -0.7914
 7733TIP3    H144690   4.488   0.203   4.730 -0.0095  0.5869  1.6950
 7733TIP3    H244691   4.587   0.293   4.658 -1.7125  2.4131  1.6162
 7734TIP3   OH244692   4.046   2.152  15.114 -0.5842  0.1042 -0.5580
 7734TIP3    H144693   3.996   2.095  15.172  0.3371  0.2280  0.3568
 7734TIP3    H244694   4.026   2.119  15.026 -1.2604 -0.6588 -0.1297
 7735TIP3   OH244695   0.288   0.881   3.619 -0.3166 -0.4146 -0.1582
 7735TIP3    H144696   0.335   0.892   3.702 -0.0819  2.1573 -0.5763
 7735TIP3    H244697   0.243   0.965   3.606  1.2404  0.0039 -3.5800
 7736TIP3   OH244698   2.088   5.165  15.821  0.3492  0.6173  0.4288
 7736TIP3    H144699   2.050   5.173  15.908  0.4723  0.7403  0.4720
 7736TIP3    H244700   2.046   5.233  15.769  0.6941  0.9173  0.5414
 7737TIP3   OH244701   4.760   6.621  17.244 -0.8350 -0.6083 -0.2596
 7737TIP3    H144702   4.766   6.659  17.156 -2.1979  0.6981  0.1827
 7737TIP3    H244703   4.848   6.630  17.280 -0.5084 -0.2389 -1.1340
 7738TIP3   OH244704   6.761   4.887   2.946  0.0794  0.5726  0.2128
 7738TIP3    H144705   6.848   4.866   2.979 -0.1130 -1.0422 -0.2716
 7738TIP3    H244706   6.725   4.803   2.916 -0.9240  1.4977 -1.2776
 7739TIP3   OH244707   5.345   5.157   4.347 -0.2691  0.7437 -0.0840
 7739TIP3    H144708   5.402   5.213   4.295 -0.3022  1.9881  1.1872
 7739TIP3    H244709   5.304   5.098   4.284  1.0095  1.0756 -1.2342
 7740TIP3   OH244710   2.875   0.213  15.917  0.0086 -0.0302  0.3532
 7740TIP3    H144711   2.958   0.166  15.908  0.7312  1.2117  0.2765
 7740TIP3    H244712   2.885   0.263  15.999 -0.4785  0.4709  0.1134
 7741TIP3   OH244713   6.140   4.254  11.878  0.5188 -0.3047  0.1017
 7741TIP3    H144714   6.115   4.341  11.848 -0.3232 -0.4186  0.4708
 7741TIP3    H244715   6.058   4.211  11.901  0.9783 -0.9838  0.5089
 7742TIP3   OH244716   2.745   0.464  14.112 -0.2377 -0.1363 -0.4655
 7742TIP3    H144717   2.821   0.446  14.056  0.5603 -0.6035  0.7500
 7742TIP3    H244718   2.771   0.541  14.163 -0.6954 -0.1331 -0.2379
 7743TIP3   OH244719   3.033   1.238  13.476 -0.1464  0.0950 -0.1028
 7743TIP3    H144720   3.097   1.242  13.547  0.3815  0.5701 -0.5959
 7743TIP3    H244721   3.009   1.146  13.471  0.2559 -0.0361  0.3029
 7744TIP3   OH244722   3.433   0.272   4.803  0.1073 -0.5087 -0.3489
 7744TIP3    H144723   3.359   0.332   4.800 -0.3831 -1.1551 -1.7234
 7744TIP3    H244724   3.509   0.328   4.818 -0.6957  0.1096  1.4823
 7745TIP3   OH244725   2.894   6.622   1.839 -0.0110 -0.5907  0.2751
 7745TIP3    H144726   2.818   6.598   1.786 -0.6558  2.0547 -0.0816
 7745TIP3    H244727   2.967   6.573   1.801 -0.8938 -0.4293 -1.6754
 7746TIP3   OH244728   2.569   2.790   6.895  0.1603 -0.0365 -0.2252
 7746TIP3    H144729   2.625   2.730   6.845  0.4211  0.6015 -0.6981
 7746TIP3    H244730   2.564   2.869   6.841  0.9837  0.9072  1.0464
 7747TIP3   OH244731   2.283   2.581   1.742  0.5402 -0.5498  0.6519
 7747TIP3    H144732   2.202   2.604   1.696  0.4976 -0.9431  0.5240
 7747TIP3    H244733   2.286   2.485   1.737  0.7268 -0.5701  1.1403
 7748TIP3   OH244734   0.368   5.302  14.906 -0.4895  0.2404  0.0114
 7748TIP3    H144735   0.282   5.333  14.934 -0.7065 -0.8319  0.5515
 7748TIP3    H244736   0.420   5.382  14.897 -1.3565  0.8487  0.2859
 7749TIP3   OH244737   2.291   6.514   3.827 -0.3117  0.1159 -0.0908
 7749TIP3    H144738   2.208   6.472   3.851  0.8773 -1.6062  1.1510
 7749TIP3    H244739   2.325   6.460   3.756  1.1955 -1.0143  1.4598
 7750TIP3   OH244740   1.469   0.918   6.893  0.2792  0.2648  0.1568
 7750TIP3    H144741   1.507   0.940   6.808  0.1597 -0.1290  0.0020
 7750TIP3    H244742   1.374   0.921   6.878  0.2565  0.2948  0.3019
 7751TIP3   OH244743   6.269   0.849   2.465  0.3013 -0.5811 -0.2418
 7751TIP3    H144744   6.305   0.831   2.552 -0.5881  0.2724  0.3124
 7751TIP3    H244745   6.206   0.919   2.480 -0.0582 -0.6291 -1.5383
 7752TIP3   OH244746   0.080   3.487  14.432  0.3211 -0.2238 -0.8570
 7752TIP3    H144747   0.001   3.435  14.443  0.3502 -0.2935 -0.9842
 7752TIP3    H244748   0.073   3.523  14.344 -0.8179  1.8661  0.0447
 7753TIP3   OH244749   1.014   1.973  15.460  0.6381  0.1676  0.1353
 7753TIP3    H144750   1.050   1.986  15.372 -2.9771  0.0482 -1.4595
 7753TIP3    H244751   1.027   2.057  15.504 -0.8257  1.4657 -1.8120
 7754TIP3   OH244752   6.674   4.766  16.307 -0.0658 -0.0690  0.1213
 7754TIP3    H144753   6.626   4.842  16.274 -1.2816 -1.0694 -0.4516
 7754TIP3    H244754   6.682   4.708  16.231  0.9073 -0.4921  0.5391
 7755TIP3   OH244755   5.261   6.225   1.296 -0.5481  0.2194  0.6326
 7755TIP3    H144756   5.238   6.315   1.320 -0.8128  0.1073  0.8050
 7755TIP3    H244757   5.183   6.192   1.251  0.5864  1.0306 -2.0368
 7756TIP3   OH244758   4.715   0.574  11.533 -0.3319 -0.2834 -0.5344
 7756TIP3    H144759   4.646   0.636  11.557 -0.1294  0.5603 -2.1154
 7756TIP3    H244760   4.727   0.521  11.612 -0.5368  1.6542  0.8457
 7757TIP3   OH244761   1.137   4.303   4.334  0.0194 -0.8816  0.1730
 7757TIP3    H144762   1.145   4.398   4.341  1.6638 -0.9573 -0.4149
 7757TIP3    H244763   1.049   4.288   4.299  0.4364  0.5251 -1.5138
 7758TIP3   OH244764   4.224   5.850  13.172 -0.3376 -0.3616  0.3590
 7758TIP3    H144765   4.148   5.794  13.155 -0.9290  0.5892 -0.1787
 7758TIP3    H244766   4.270   5.855  13.088  0.4446 -1.1038  0.7358
 7759TIP3   OH244767   3.492   0.877   5.137 -0.0746  0.3275 -0.5751
 7759TIP3    H144768   3.548   0.917   5.204  2.2310 -1.6537 -1.2600
 7759TIP3    H244769   3.412   0.853   5.183  0.8492  0.4423  1.1141
 7760TIP3   OH244770   0.164   1.876  15.822 -0.0962 -0.0488 -0.5284
 7760TIP3    H144771   0.212   1.902  15.743 -1.5854 -0.2767 -1.5250
 7760TIP3    H244772   0.216   1.912  15.894  1.1148  0.4343 -1.6174
 7761TIP3   OH244773   3.816   2.451   2.459 -0.1989  0.3729  0.2366
 7761TIP3    H144774   3.901   2.417   2.487  0.9499  2.5668 -0.4806
 7761TIP3    H244775   3.808   2.424   2.368  0.9811  2.4804 -0.5097
 7762TIP3   OH244776   6.039   1.851   1.286 -0.2697  0.3358 -0.1696
 7762TIP3    H144777   5.971   1.910   1.253  0.8256  1.0283 -1.2661
 7762TIP3    H244778   6.121   1.895   1.263  0.5653 -1.5303 -0.8500
 7763TIP3   OH244779   0.225   5.006   4.618 -0.2374 -0.1553  0.2596
 7763TIP3    H144780   0.286   5.079   4.630 -2.0573  1.5302 -0.3511
 7763TIP3    H244781   0.147   5.032   4.669 -1.2393 -1.2571 -0.6773
 7764TIP3   OH244782   4.621   0.023  13.452  0.6362  0.1934  0.5026
 7764TIP3    H144783   4.644   0.115  13.441  1.5580  0.0008  0.7280
 7764TIP3    H244784   4.618  -0.012  13.363  2.2722 -0.0133  0.5112
 7765TIP3   OH244785   5.454   2.042  16.589  0.2715  0.3345 -0.0357
 7765TIP3    H144786   5.432   2.002  16.673  0.2877  0.4607  0.0279
 7765TIP3    H244787   5.375   2.030  16.536  0.9497 -1.5195 -0.6786
 7766TIP3   OH244788   1.189   2.522  17.114 -0.3472 -0.2859  0.2007
 7766TIP3    H144789   1.131   2.574  17.058  0.2033 -1.2092 -1.2687
 7766TIP3    H244790   1.214   2.582  17.184  0.8300  1.7135 -1.8187
 7767TIP3   OH244791   5.307   2.721   5.014  0.0689 -0.0545  0.1619
 7767TIP3    H144792   5.236   2.785   5.013  1.2508  1.2660 -0.3542
 7767TIP3    H244793   5.282   2.659   5.082 -0.7809  1.3080  1.1134
 7768TIP3   OH244794   1.477   2.386  13.364 -0.3132 -0.2269 -0.2715
 7768TIP3    H144795   1.479   2.339  13.448  1.2653 -0.6434 -0.5252
 7768TIP3    H244796   1.558   2.360  13.320 -0.4815  1.0370 -1.3579
 7769TIP3   OH244797   3.491   2.637  13.537 -0.1482 -0.2872 -0.3164
 7769TIP3    H144798   3.565   2.582  13.514  0.1348  0.5114 -1.3684
 7769TIP3    H244799   3.464   2.678  13.455 -1.4611 -0.2088  0.1337
 7770TIP3   OH244800   5.267   3.118   5.263 -0.4044 -0.6475  0.1097
 7770TIP3    H144801   5.272   3.136   5.169 -0.1898  3.1005  0.7617
 7770TIP3    H244802   5.358   3.120   5.293 -0.7488  3.1118  1.1514
 7771TIP3   OH244803   0.894   1.015  11.216  0.3888 -0.2056  0.0886
 7771TIP3    H144804   0.923   1.040  11.128 -1.2929  0.9537 -0.1594
 7771TIP3    H244805   0.873   0.922  11.209  1.4773 -0.4289 -0.3926
 7772TIP3   OH244806   0.672   3.985   4.167  0.0660  0.1094 -0.5732
 7772TIP3    H144807   0.609   3.960   4.234  0.9701 -1.4072 -0.2577
 7772TIP3    H244808   0.737   4.037   4.213 -1.4452  2.5083 -1.0911
 7773TIP3   OH244809   1.895   4.785   1.294 -0.3692 -0.3808 -0.3022
 7773TIP3    H144810   1.837   4.716   1.327 -1.1214  0.0325 -0.7700
 7773TIP3    H244811   1.877   4.860   1.351  0.4424 -0.5563  0.1980
 7774TIP3   OH244812   5.725   1.353  12.590 -0.5478  0.1141  0.1231
 7774TIP3    H144813   5.739   1.444  12.562 -0.5590  0.2890  0.6799
 7774TIP3    H244814   5.721   1.303  12.508  0.5375  0.4576 -0.1457
 7775TIP3   OH244815   3.108   0.484   5.599 -0.4613  0.3409  0.3808
 7775TIP3    H144816   3.092   0.421   5.669  2.0474  0.4224  1.0692
 7775TIP3    H244817   3.051   0.558   5.620  0.0108  0.2163  2.1663
 7776TIP3   OH244818   5.862   5.876   4.043 -0.1720 -0.1601 -0.4782
 7776TIP3    H144819   5.856   5.782   4.030  1.0909 -0.2681 -0.3692
 7776TIP3    H244820   5.942   5.902   3.997 -0.2133  0.7635 -0.0451
 7777TIP3   OH244821   0.101   1.113  13.712  0.6396  0.5940 -0.3222
 7777TIP3    H144822   0.177   1.170  13.703  0.7115  0.6507  0.5668
 7777TIP3    H244823   0.075   1.122  13.804 -1.1676  1.5071 -0.9082
 7778TIP3   OH244824   5.067   2.463  13.827  0.1777  0.0638  0.1008
 7778TIP3    H144825   5.125   2.464  13.903  0.1826 -0.1947  0.1012
 7778TIP3    H244826   4.986   2.505  13.858 -0.0679 -0.6539  0.4461
 7779TIP3   OH244827   1.427   5.776  15.469  0.2852 -0.6430 -0.2687
 7779TIP3    H144828   1.438   5.681  15.459  0.5431 -0.5397 -0.9489
 7779TIP3    H244829   1.360   5.784  15.538  0.2543 -1.3160 -0.2111
 7780TIP3   OH244830   1.304   2.154  15.625 -0.1340  0.7204  0.0773
 7780TIP3    H144831   1.303   2.183  15.716 -1.4171 -0.3522  0.4229
 7780TIP3    H244832   1.211   2.154  15.599  0.1407  0.1075 -0.9215
 7781TIP3   OH244833   5.010   2.966  16.887 -0.0729  0.0069  0.2463
 7781TIP3    H144834   5.040   2.874  16.886 -0.0151  0.0262 -0.6021
 7781TIP3    H244835   4.970   2.977  16.973 -1.5529 -1.2965 -0.2513
 7782TIP3   OH244836   0.932   3.977  11.142  0.1603 -0.0293  0.1000
 7782TIP3    H144837   0.844   3.966  11.178 -1.2173  1.7042 -2.5453
 7782TIP3    H244838   0.945   3.900  11.086 -0.5049  0.6431 -1.0161
 7783TIP3   OH244839   0.394   3.150  11.370  0.1581  0.2165 -0.0234
 7783TIP3    H144840   0.356   3.164  11.283  1.4603  0.5828 -0.5330
 7783TIP3    H244841   0.320   3.164  11.430 -0.4659  1.1663 -0.9885
 7784TIP3   OH244842   4.155   4.271  16.439  0.4131 -0.2155 -0.3631
 7784TIP3    H144843   4.226   4.325  16.474 -0.3936  1.9401 -1.9300
 7784TIP3    H244844   4.170   4.271  16.344 -1.1574 -0.4929 -0.6258
 7785TIP3   OH244845   2.936   3.029  16.062 -0.1956 -0.4763 -0.0883
 7785TIP3    H144846   2.927   2.976  15.983 -0.7089  0.0776 -0.4086
 7785TIP3    H244847   3.028   3.022  16.085 -0.0515 -0.6835 -0.7149
 7786TIP3   OH244848   5.709   0.844   3.627  0.2612 -0.0644  0.5820
 7786TIP3    H144849   5.660   0.842   3.544 -0.0902 -0.3570  0.7947
 7786TIP3    H244850   5.650   0.891   3.687  0.5894  0.3005  0.6194
 7787TIP3   OH244851   1.632   0.986  11.909 -0.1459 -0.3201  0.1440
 7787TIP3    H144852   1.563   1.053  11.906 -0.4147 -0.5538  1.0370
 7787TIP3    H244853   1.669   0.992  11.997  0.5357 -0.6429 -0.1131
 7788TIP3   OH244854   0.200   6.604  15.800 -0.3372  0.1338 -0.6683
 7788TIP3    H144855   0.264   6.609  15.871 -0.4484 -0.5140 -0.5188
 7788TIP3    H244856   0.140   6.677  15.816 -1.2020 -0.8742  0.7127
 7789TIP3   OH244857   0.099   4.092   3.888 -1.0756  0.6130  0.4640
 7789TIP3    H144858   0.139   4.179   3.883  1.9269 -0.7264 -0.4983
 7789TIP3    H244859   0.140   4.052   3.965 -0.9866 -0.6008 -0.2040
 7790TIP3   OH244860   4.476   4.859   1.272 -0.2352  0.3243 -0.6424
 7790TIP3    H144861   4.442   4.938   1.313  1.5644  0.5125  0.5366
 7790TIP3    H244862   4.516   4.889   1.190 -0.0212  0.5424 -0.4554
 7791TIP3   OH244863   5.755   0.406   3.976  0.0970  0.2022  0.2224
 7791TIP3    H144864   5.756   0.434   4.067  2.1343  1.2769 -0.0848
 7791TIP3    H244865   5.843   0.372   3.960  0.0219  0.7446 -1.5342
 7792TIP3   OH244866   1.898   0.986  14.476  0.3529 -0.7164 -0.4394
 7792TIP3    H144867   1.818   1.028  14.509  1.3333  0.2537  0.7648
 7792TIP3    H244868   1.966   1.053  14.485  1.0942 -1.1457 -2.5025
 7793TIP3   OH244869   2.390   6.440  17.204 -0.6308  0.1517  0.2821
 7793TIP3    H144870   2.317   6.386  17.171 -0.7258  1.5015 -1.8156
 7793TIP3    H244871   2.350   6.525  17.222  0.6391  1.2907 -2.1147
 7794TIP3   OH244872   5.487   4.336  14.501 -0.8624  0.0498 -0.4034
 7794TIP3    H144873   5.480   4.277  14.576 -0.6626 -0.5774 -0.8789
 7794TIP3    H244874   5.398   4.370  14.489 -0.7103  0.8455  0.6737
 7795TIP3   OH244875   1.663   2.199   4.011  0.1142  0.0348  0.6410
 7795TIP3    H144876   1.749   2.224   4.042  0.3776  0.2285 -0.2368
 7795TIP3    H244877   1.678   2.120   3.958 -0.4796 -0.9829  1.9643
 7796TIP3   OH244878   5.102   0.687   5.040 -0.2907  0.6222 -0.3305
 7796TIP3    H144879   5.071   0.626   4.973 -1.5772  1.4043 -0.4638
 7796TIP3    H244880   5.111   0.633   5.119 -0.2454  0.0140 -0.7441
 7797TIP3   OH244881   0.088   2.395   3.620 -0.1972 -0.2315 -0.1633
 7797TIP3    H144882   0.068   2.351   3.702 -2.3257  1.5609  0.3024
 7797TIP3    H244883   0.132   2.476   3.646  1.3234 -0.7783 -0.9233
 7798TIP3   OH244884   2.603   5.581  15.934 -0.0574  0.1656  0.0279
 7798TIP3    H144885   2.638   5.493  15.914 -0.0422  0.4127 -1.0945
 7798TIP3    H244886   2.614   5.629  15.852  1.8683  1.8542  1.2314
 7799TIP3   OH244887   5.467   4.069   1.204 -0.5557 -0.3198  0.5986
 7799TIP3    H144888   5.389   4.105   1.247 -0.5508  1.8626 -1.1262
 7799TIP3    H244889   5.432   4.022   1.128 -0.2191  0.6633 -0.1760
 7800TIP3   OH244890   3.090   3.140  14.820 -0.5552 -0.2166  0.2351
 7800TIP3    H144891   3.029   3.138  14.894  0.1564  0.1588  0.8430
 7800TIP3    H244892   3.106   3.233  14.806 -0.1995 -0.3106  0.0207
 7801TIP3   OH244893   5.818   4.251   4.862 -0.2951  0.5737 -0.0298
 7801TIP3    H144894   5.895   4.241   4.807 -0.4429  1.0367 -0.3163
 7801TIP3    H244895   5.848   4.300   4.938 -0.3756  0.9995 -0.2756
 7802TIP3   OH244896   3.748   0.032   0.842  0.6784  0.2202  0.3975
 7802TIP3    H144897   3.718   0.120   0.863  0.4117  0.1761  0.2150
 7802TIP3    H244898   3.697  -0.025   0.900 -1.3360 -0.0314 -1.5543
 7803TIP3   OH244899   3.249   2.858  15.701 -0.1304  0.4266 -0.0872
 7803TIP3    H144900   3.181   2.868  15.768  0.6435 -2.0864  1.1224
 7803TIP3    H244901   3.321   2.913  15.733  0.5138 -1.3321  1.5797
 7804TIP3   OH244902   6.295   6.415  11.515  0.6631  0.2979  0.3527
 7804TIP3    H144903   6.314   6.503  11.482  1.0947  0.1673  0.2548
 7804TIP3    H244904   6.275   6.429  11.608 -2.8715  0.9830 -0.4234
 7805TIP3   OH244905   5.790   3.040   3.366  0.3229 -0.8917 -0.2567
 7805TIP3    H144906   5.756   2.975   3.305  1.6962 -2.1176  0.2595
 7805TIP3    H244907   5.870   3.073   3.324  0.9442 -1.3062  0.5805
 7806TIP3   OH244908   3.302   4.352  15.916 -0.1056 -0.1907  0.3685
 7806TIP3    H144909   3.311   4.447  15.907  0.2344 -0.0920  1.5684
 7806TIP3    H244910   3.377   4.316  15.868 -0.2615  0.1424 -0.1262
 7807TIP3   OH244911   0.696   4.149   1.633 -0.3203 -0.3527 -0.3413
 7807TIP3    H144912   0.747   4.067   1.628 -0.5783 -0.5507  0.3526
 7807TIP3    H244913   0.732   4.195   1.708  0.0993  0.3668 -0.9702
 7808TIP3   OH244914   4.854   3.605   5.103 -0.0142  0.0609  0.0697
 7808TIP3    H144915   4.794   3.555   5.048  0.3060 -1.2644  0.9150
 7808TIP3    H244916   4.798   3.662   5.155 -0.4567 -0.2399 -0.0772
 7809TIP3   OH244917   3.810   2.449   3.558 -0.1225  0.0127 -0.0940
 7809TIP3    H144918   3.715   2.459   3.550 -0.0475  0.7628 -0.0087
 7809TIP3    H244919   3.844   2.538   3.562  0.2628 -0.2110  3.7396
 7810TIP3   OH244920   6.573   6.301  13.532 -0.6265 -0.1716  0.0891
 7810TIP3    H144921   6.668   6.316  13.539 -0.7177  0.0947  0.7819
 7810TIP3    H244922   6.564   6.239  13.460  0.3633 -3.1627  2.4482
 7811TIP3   OH244923   1.877   3.962   3.147  0.6423 -0.7327  0.1006
 7811TIP3    H144924   1.934   3.972   3.223  3.0317 -0.9630 -1.6253
 7811TIP3    H244925   1.927   3.908   3.086 -1.7983 -1.7248 -1.0877
 7812TIP3   OH244926   1.989   3.918   4.324 -0.3141  0.5428 -0.5368
 7812TIP3    H144927   1.949   3.833   4.311 -0.5596  0.7495 -1.1508
 7812TIP3    H244928   1.955   3.949   4.408 -1.8682  0.9525 -1.3113
 7813TIP3   OH244929   4.858   0.800   2.753 -0.1005 -0.1639 -0.5933
 7813TIP3    H144930   4.763   0.793   2.759  0.0077 -2.1169 -0.6039
 7813TIP3    H244931   4.874   0.841   2.668 -0.9685  2.0371  0.2886
 7814TIP3   OH244932   2.335   6.301   5.065  0.1804 -0.6660  0.3500
 7814TIP3    H144933   2.267   6.235   5.069 -1.2084  0.6087 -1.6044
 7814TIP3    H244934   2.387   6.279   4.987  0.0106  0.2279 -0.0311
 7815TIP3   OH244935   2.258   5.141  16.619  0.2620 -0.3244 -0.0121
 7815TIP3    H144936   2.183   5.166  16.672 -0.0119 -0.6253 -0.2537
 7815TIP3    H244937   2.311   5.220  16.613  0.7672 -0.5491  1.4926
 7816TIP3   OH244938   2.965   2.789  15.383 -0.1598 -0.0478  0.6284
 7816TIP3    H144939   3.052   2.750  15.391 -1.4015 -3.1289 -0.0309
 7816TIP3    H244940   2.912   2.742  15.447 -1.3969  1.6374  0.8634
 7817TIP3   OH244941   2.008   5.258  12.407 -0.2896  0.0687 -0.9767
 7817TIP3    H144942   1.931   5.273  12.351 -0.8844  1.0936  0.0939
 7817TIP3    H244943   2.053   5.342  12.408 -0.6161  0.2339  0.5667
 7818TIP3   OH244944   0.276   0.813  14.965 -0.3086  0.4363 -0.3288
 7818TIP3    H144945   0.207   0.878  14.976 -1.0410  0.0194 -2.1714
 7818TIP3    H244946   0.259   0.774  14.879  2.4482  0.5938 -1.0138
 7819TIP3   OH244947   2.066   0.504  15.020 -0.3509  0.3981  0.3023
 7819TIP3    H144948   1.975   0.474  15.024 -0.5740  1.2815  2.4860
 7819TIP3    H244949   2.063   0.594  15.052  1.0340  1.0858 -1.4571
 7820TIP3   OH244950   0.202   6.556   0.794  0.2694  0.2613 -0.0546
 7820TIP3    H144951   0.182   6.647   0.816 -1.9255 -0.5604  1.6174
 7820TIP3    H244952   0.244   6.521   0.873  0.4345 -0.3842 -0.4220
 7821TIP3   OH244953   2.135   6.236   2.193  0.3037  0.0511 -0.6062
 7821TIP3    H144954   2.109   6.221   2.284  0.0673  2.3753 -0.2716
 7821TIP3    H244955   2.180   6.155   2.167 -1.3358 -1.4168  0.9373
 7822TIP3   OH244956   1.808   0.102  11.151  0.1378  0.3176 -0.4778
 7822TIP3    H144957   1.743   0.096  11.081 -0.7493  2.0480  0.1567
 7822TIP3    H244958   1.781   0.034  11.214 -0.9016  0.8379 -0.3532
 7823TIP3   OH244959   1.641   3.089  11.840  0.0096  0.4976 -0.3329
 7823TIP3    H144960   1.734   3.104  11.856 -0.0766 -1.1152  1.7741
 7823TIP3    H244961   1.597   3.156  11.893 -0.0719  0.6656 -0.6081
 7824TIP3   OH244962   2.564   5.213   5.641  0.3147  0.1875  0.2161
 7824TIP3    H144963   2.482   5.182   5.602 -0.5055  3.1229 -0.5669
 7824TIP3    H244964   2.541   5.236   5.731  0.6396 -0.4240  0.4555
 7825TIP3   OH244965   1.249   2.420  13.149  0.4193 -0.1760  0.0695
 7825TIP3    H144966   1.169   2.375  13.124  1.5305 -1.4457 -1.3163
 7825TIP3    H244967   1.291   2.361  13.213  0.2875  0.4535  0.7478
 7826TIP3   OH244968   0.896   4.281   5.129  0.7357  0.0886  0.0253
 7826TIP3    H144969   0.889   4.214   5.198 -0.6873 -1.2384 -1.3709
 7826TIP3    H244970   0.989   4.280   5.105  0.8828 -0.8084  0.5828
 7827TIP3   OH244971   2.831   4.226  16.680  0.2607  0.2310  0.8129
 7827TIP3    H144972   2.781   4.190  16.607  0.5914 -0.3989  0.8883
 7827TIP3    H244973   2.905   4.271  16.639  2.7056 -3.5322  0.8281
 7828TIP3   OH244974   5.371   1.819  12.905 -0.3475  0.4244 -0.1200
 7828TIP3    H144975   5.371   1.733  12.864  2.0061  0.8118 -1.0584
 7828TIP3    H244976   5.392   1.880  12.834 -2.2857  1.8098  0.4669
 7829TIP3   OH244977   4.180   3.558   4.712 -0.3160 -0.2764  0.1981
 7829TIP3    H144978   4.204   3.512   4.632 -1.5045  2.8806 -2.0899
 7829TIP3    H244979   4.249   3.624   4.723 -0.5662 -0.1916  1.3269
 7830TIP3   OH244980   0.846   1.338  16.923  0.4440  0.6195 -0.4089
 7830TIP3    H144981   0.893   1.410  16.965  0.3625 -1.6299  3.7825
 7830TIP3    H244982   0.755   1.365  16.922  0.6540  1.3299 -0.5327
 7831TIP3   OH244983   0.937   1.152   4.577 -0.0936 -0.2354  0.0669
 7831TIP3    H144984   0.940   1.218   4.508 -1.4027  0.6568  0.8411
 7831TIP3    H244985   0.844   1.136   4.591  0.1327 -0.0204  1.9701
 7832TIP3   OH244986   6.335   2.244   2.260  0.3803 -0.2685  0.3671
 7832TIP3    H144987   6.378   2.162   2.284  0.3380 -0.0614  1.1526
 7832TIP3    H244988   6.402   2.311   2.275  0.2963 -0.1167  0.0718
 7833TIP3   OH244989   6.309   6.230  16.956  0.3884  0.3737 -0.2873
 7833TIP3    H144990   6.283   6.213  17.047  1.6775  0.1894  0.0659
 7833TIP3    H244991   6.373   6.301  16.963  1.9359 -0.9401 -0.8452
 7834TIP3   OH244992   3.546   5.154   6.054  0.0419 -0.6924  0.4578
 7834TIP3    H144993   3.601   5.160   6.132 -0.9366 -2.8231  1.3496
 7834TIP3    H244994   3.606   5.168   5.981  1.3876 -0.9459  1.4942
 7835TIP3   OH244995   3.455   3.649   0.585 -0.1527  0.3122  0.2629
 7835TIP3    H144996   3.361   3.643   0.571 -0.2266 -0.0255  0.8627
 7835TIP3    H244997   3.484   3.719   0.527 -0.5373 -0.6115 -1.0888
 7836TIP3   OH244998   3.539   6.384  11.447 -0.2552 -0.3971  0.2168
 7836TIP3    H144999   3.486   6.452  11.489 -0.1068  0.0263 -0.2754
 7836TIP3    H245000   3.488   6.358  11.370  0.8943  1.0287 -1.0628
 7837TIP3   OH245001   0.931   5.004  11.582  0.1200 -0.2261  0.0052
 7837TIP3    H145002   0.971   5.077  11.536 -0.0292  0.9856  1.7616
 7837TIP3    H245003   0.852   4.985  11.531  0.9837 -0.2406 -1.3697
 7838TIP3   OH245004   3.081   4.707  14.209  0.5006  0.1408  0.2149
 7838TIP3    H145005   3.113   4.784  14.162  0.7941  0.0524  0.2623
 7838TIP3    H245006   3.080   4.637  14.143 -0.3279  0.3252  0.0315
 7839TIP3   OH245007   0.935   3.199   1.235  0.6186  0.2701  0.4982
 7839TIP3    H145008   0.885   3.146   1.298  0.0735  0.0664 -0.0953
 7839TIP3    H245009   0.974   3.269   1.287 -0.9006  0.8667  0.8667
 7840TIP3   OH245010   4.262   6.739   3.841  0.3171  0.3771  0.4990
 7840TIP3    H145011   4.269   6.809   3.775  0.2084  0.8063  0.9373
 7840TIP3    H245012   4.188   6.686   3.812  0.5423  0.3151  0.0383
 7841TIP3   OH245013   0.568   5.954   5.693 -0.2376 -0.5957  0.2667
 7841TIP3    H145014   0.615   5.871   5.702  0.2607 -0.5541 -1.6251
 7841TIP3    H245015   0.626   6.020   5.730  1.3624 -0.5142 -2.2406
 7842TIP3   OH245016   2.408   5.066  13.675  0.4490 -0.2016 -0.2338
 7842TIP3    H145017   2.313   5.072  13.666  0.2648  0.9242  2.0399
 7842TIP3    H245018   2.443   5.135  13.619 -0.0204 -1.2861 -1.8679
 7843TIP3   OH245019   2.197   2.082  16.157 -0.4875 -0.0116  0.0165
 7843TIP3    H145020   2.153   2.165  16.178 -1.4415 -0.4390 -0.2628
 7843TIP3    H245021   2.224   2.092  16.066  2.9586  1.5353  1.0876
 7844TIP3   OH245022   0.441   0.812   6.428 -0.5692 -0.1632  0.7479
 7844TIP3    H145023   0.463   0.727   6.389 -0.2393 -0.9796  2.6589
 7844TIP3    H245024   0.363   0.795   6.480 -1.3865  1.0586 -0.0765
 7845TIP3   OH245025   3.874   4.234  17.045  0.8154 -0.2619 -0.1499
 7845TIP3    H145026   3.914   4.239  16.958 -0.3492 -1.8413 -0.8055
 7845TIP3    H245027   3.847   4.324  17.065 -0.6968 -0.2203 -2.2859
 7846TIP3   OH245028   1.495   3.116  12.201 -0.0434 -1.2806 -0.1461
 7846TIP3    H145029   1.452   3.201  12.211  2.0787 -0.2377  0.4531
 7846TIP3    H245030   1.431   3.062  12.154 -1.8586  0.2902  0.4341
 7847TIP3   OH245031   5.620   0.060  11.839 -0.1564 -0.0543 -0.1245
 7847TIP3    H145032   5.595   0.071  11.747 -1.4405 -0.4832  0.1730
 7847TIP3    H245033   5.629  -0.034  11.851 -0.2049 -0.0113  0.2566
 7848TIP3   OH245034   0.466   2.360  15.040 -0.2586  0.1042  0.3267
 7848TIP3    H145035   0.386   2.383  15.089 -1.0579  0.2565 -1.0295
 7848TIP3    H245036   0.533   2.419  15.075 -1.0813  0.9607  0.4839
 7849TIP3   OH245037   3.680   6.344  17.200 -0.0991  0.1585  0.3978
 7849TIP3    H145038   3.759   6.396  17.192 -0.3065  0.4589  0.3115
 7849TIP3    H245039   3.610   6.407  17.218 -0.3571 -0.0807  0.2536
 7850TIP3   OH245040   1.963   1.272   3.834  0.2896 -0.3330 -0.1354
 7850TIP3    H145041   2.023   1.208   3.872 -0.0338 -0.0205  0.9028
 7850TIP3    H245042   1.932   1.230   3.754  0.1802 -1.4203  0.4652
 7851TIP3   OH245043   5.419   6.773   5.272  0.1741 -0.1194 -0.1476
 7851TIP3    H145044   5.428   6.703   5.336 -1.1878  0.5235  0.7835
 7851TIP3    H245045   5.479   6.841   5.302 -0.2620  0.0702  0.3086
 7852TIP3   OH245046   1.610   5.188  16.814  0.0989  0.4095  0.9188
 7852TIP3    H145047   1.545   5.134  16.768  0.8999 -0.2703  0.5636
 7852TIP3    H245048   1.633   5.257  16.752  0.9854 -0.3550  0.3797
 7853TIP3   OH245049   5.544   5.143   1.616  0.4288 -0.2441  0.1098
 7853TIP3    H145050   5.603   5.217   1.629  0.6344 -0.6829  1.8951
 7853TIP3    H245051   5.472   5.178   1.565  0.7120  1.0916  0.6106
 7854TIP3   OH245052   4.540   6.633  14.067  0.0855  0.1455 -0.1251
 7854TIP3    H145053   4.552   6.716  14.112  1.2475  1.5817 -2.9138
 7854TIP3    H245054   4.554   6.654  13.974 -0.4651 -2.9884 -0.9871
 7855TIP3   OH245055   6.012   0.276   4.830 -0.1745  0.6689 -0.1375
 7855TIP3    H145056   6.038   0.354   4.781 -0.2721 -0.6006 -2.2620
 7855TIP3    H245057   6.083   0.213   4.816 -1.1013 -0.3756 -0.2065
 7856TIP3   OH245058   0.998   3.745  14.402  0.2748  0.1856  0.9093
 7856TIP3    H145059   0.968   3.816  14.458  0.7798  1.2066 -0.0991
 7856TIP3    H245060   1.003   3.783  14.314 -0.3091 -1.3341  0.1957
 7857TIP3   OH245061   0.918   5.531  16.646  0.4728  0.8025 -0.2484
 7857TIP3    H145062   0.979   5.517  16.574  1.6992  0.6094  0.7988
 7857TIP3    H245063   0.917   5.447  16.692  1.4226  1.5839  1.2344
 7858TIP3   OH245064   2.158   1.293   2.239 -0.3952  0.0912  0.1779
 7858TIP3    H145065   2.208   1.302   2.320  0.1560 -2.2483  0.1310
 7858TIP3    H245066   2.223   1.267   2.174 -1.3770 -1.2679 -0.2774
 7859TIP3   OH245067   0.422   4.075  14.462  0.2115  0.2243 -0.2863
 7859TIP3    H145068   0.458   4.064  14.374  0.4055 -1.3937 -0.0120
 7859TIP3    H245069   0.486   4.032  14.520 -0.3932  0.4422  0.5526
 7860TIP3   OH245070   3.852   2.414  11.858 -0.2670  0.4427  0.0082
 7860TIP3    H145071   3.835   2.341  11.799  2.2752 -0.6359  0.5516
 7860TIP3    H245072   3.885   2.483  11.800  0.6370 -0.0389 -0.0563
 7861TIP3   OH245073   0.090   6.295  11.380  0.2352 -0.0460 -0.0716
 7861TIP3    H145074   0.150   6.342  11.438  0.2177  1.5677 -1.3540
 7861TIP3    H245075   0.003   6.316  11.414  0.3153 -1.4549  1.0743
 7862TIP3   OH245076   5.582   0.714  14.118  0.2617 -0.8833 -0.1644
 7862TIP3    H145077   5.522   0.771  14.165 -0.7470 -0.8708 -1.4321
 7862TIP3    H245078   5.526   0.645  14.083  0.7156 -0.0607 -2.6153
 7863TIP3   OH245079   5.518   5.602   2.867  0.3162 -0.4860 -0.0916
 7863TIP3    H145080   5.499   5.659   2.941 -2.8438 -4.4940  2.3628
 7863TIP3    H245081   5.439   5.606   2.813  0.8833 -0.9765 -0.9726
 7864TIP3   OH245082   4.260   3.219   4.566  0.2041  0.5198  0.3135
 7864TIP3    H145083   4.342   3.234   4.614  0.2207  1.9730 -0.1480
 7864TIP3    H245084   4.282   3.152   4.502  0.9233  0.5753  0.4948
 7865TIP3   OH245085   3.527   0.948  14.101 -0.0183 -0.5741  0.5229
 7865TIP3    H145086   3.514   1.043  14.098  1.9256 -0.3443 -1.8107
 7865TIP3    H245087   3.615   0.937  14.137 -0.4235 -1.5349  1.2482
 7866TIP3   OH245088   1.426   5.482   4.604  0.3749  0.5497 -1.1465
 7866TIP3    H145089   1.372   5.425   4.549 -1.2198  0.0693  0.8602
 7866TIP3    H245090   1.368   5.554   4.627  0.2964 -0.3611  1.6681
 7867TIP3   OH245091   4.656   1.687  16.909  0.0918  0.5571  0.1487
 7867TIP3    H145092   4.707   1.620  16.954  0.3722  0.6714  0.0044
 7867TIP3    H245093   4.671   1.767  16.959 -1.2241  0.2702  1.0483
 7868TIP3   OH245094   4.279   3.665   4.174 -0.5529 -0.3481  0.1741
 7868TIP3    H145095   4.218   3.609   4.221 -1.0538  0.4414  0.4717
 7868TIP3    H245096   4.258   3.754   4.203  1.0977 -0.1074  0.6900
 7869TIP3   OH245097   4.382   5.895  12.964 -0.6301 -0.8606  0.2529
 7869TIP3    H145098   4.461   5.866  13.008 -0.6828 -0.6334  0.4979
 7869TIP3    H245099   4.413   5.938  12.884 -0.5885 -2.2795 -0.5052
 7870TIP3   OH245100   4.194   4.113  14.070  0.6300 -0.0368 -0.0195
 7870TIP3    H145101   4.099   4.113  14.072  0.6203 -1.0245 -0.6456
 7870TIP3    H245102   4.218   4.030  14.030  1.7626  0.0719  0.4097
 7871TIP3   OH245103   2.424   1.127   5.029 -0.3049  0.9798 -0.0843
 7871TIP3    H145104   2.470   1.157   4.951  0.3736  0.5455  0.1539
 7871TIP3    H245105   2.398   1.037   5.009  0.2259  0.7308  0.3543
 7872TIP3   OH245106   1.438   4.304   0.303 -0.3948  0.2997 -0.5801
 7872TIP3    H145107   1.401   4.385   0.337  1.6043 -0.2824  3.2707
 7872TIP3    H245108   1.521   4.330   0.263 -1.2316  0.5164 -2.2568
 7873TIP3   OH245109   5.415   1.531  14.252  0.0535 -0.1069 -0.6996
 7873TIP3    H145110   5.400   1.499  14.163  2.1845 -0.1948 -1.0482
 7873TIP3    H245111   5.491   1.482  14.283 -0.3530  0.2954  0.9867
 7874TIP3   OH245112   3.956   5.113  11.366 -0.8901 -0.0325  0.0618
 7874TIP3    H145113   3.988   5.064  11.442 -0.6998 -1.4429 -0.9081
 7874TIP3    H245114   4.034   5.131  11.315 -0.9623  1.3070  0.4227
 7875TIP3   OH245115   1.211   6.641   2.615 -0.2225 -0.4091  0.2891
 7875TIP3    H145116   1.156   6.659   2.538 -0.1656 -1.9384 -0.1213
 7875TIP3    H245117   1.169   6.690   2.685 -1.2268 -0.3007 -0.3681
 7876TIP3   OH245118   4.506   2.650  13.379 -0.1155  0.6888  0.1725
 7876TIP3    H145119   4.533   2.737  13.407 -0.6756  1.3764 -1.3833
 7876TIP3    H245120   4.575   2.620  13.320  0.8418 -0.5730  1.8903
 7877TIP3   OH245121   3.931   0.890  11.664 -0.0562  0.2585 -0.0567
 7877TIP3    H145122   3.842   0.891  11.627  0.5902 -1.3061 -1.7486
 7877TIP3    H245123   3.984   0.937  11.599  0.7398 -0.7943 -0.1761
 7878TIP3   OH245124   0.320   5.652   0.451  0.1986 -0.5031  0.3378
 7878TIP3    H145125   0.333   5.730   0.504  1.7699 -0.0884 -0.6502
 7878TIP3    H245126   0.408   5.617   0.437 -0.4751 -2.4370  0.7381
 7879TIP3   OH245127   1.714   4.793   2.457 -0.2777 -0.1394  0.0536
 7879TIP3    H145128   1.619   4.797   2.468 -0.4086 -0.3659 -0.9731
 7879TIP3    H245129   1.748   4.866   2.509 -0.9508 -0.5596  1.0943
 7880TIP3   OH245130   0.174   2.489   3.040 -0.3544 -0.3266 -0.3567
 7880TIP3    H145131   0.138   2.465   3.125 -0.6488 -0.0903 -0.4147
 7880TIP3    H245132   0.172   2.584   3.039  4.9749  0.0082  1.7159
 7881TIP3   OH245133   1.549   3.925  14.036  0.0658  0.3956 -0.3234
 7881TIP3    H145134   1.545   3.892  13.946  2.3642 -0.2070 -0.2281
 7881TIP3    H245135   1.521   4.016  14.029 -1.0423 -0.0106 -1.4297
 7882TIP3   OH245136   6.634   5.933  15.607  0.0993 -0.1089 -0.3856
 7882TIP3    H145137   6.580   5.947  15.530  1.5024  1.9681 -1.0243
 7882TIP3    H245138   6.581   5.876  15.664 -1.7749  0.0215 -1.9653
 7883TIP3   OH245139   0.899   1.893  16.553  0.1358 -0.5351  0.0090
 7883TIP3    H145140   0.814   1.937  16.555  1.1219  1.4174 -0.3847
 7883TIP3    H245141   0.906   1.860  16.463  0.0933 -0.1333 -0.1425
 7884TIP3   OH245142   3.756   1.546   4.339  0.2498  0.1169 -0.2226
 7884TIP3    H145143   3.685   1.574   4.396  0.1638  0.1713 -0.3549
 7884TIP3    H245144   3.835   1.584   4.378  0.5284 -1.9797  1.3090
 7885TIP3   OH245145   4.645   2.103  16.696 -0.6663  0.2770 -0.7064
 7885TIP3    H145146   4.575   2.083  16.757  0.2601 -3.5739 -0.7880
 7885TIP3    H245147   4.611   2.076  16.610 -0.2754  1.3794 -1.2161
 7886TIP3   OH245148   5.733   5.857   5.548 -0.3931 -0.2011 -0.2347
 7886TIP3    H145149   5.726   5.905   5.465  1.8078  0.5539 -0.0405
 7886TIP3    H245150   5.697   5.916   5.614 -0.5402 -0.0837 -0.4201
 7887TIP3   OH245151   0.341   4.406   0.085  0.3928 -0.1036  0.4047
 7887TIP3    H145152   0.366   4.379  -0.003  0.5700  0.2014  0.3643
 7887TIP3    H245153   0.420   4.443   0.123  0.5082 -0.8962  0.9556
 7888TIP3   OH245154   4.083   1.521   2.953 -0.6315  0.0347  0.0182
 7888TIP3    H145155   4.116   1.610   2.942 -0.2681  0.1065  1.5286
 7888TIP3    H245156   4.061   1.515   3.046  1.2277 -2.0777  0.3728
 7889TIP3   OH245157   4.512   5.488  17.062 -0.2900 -0.2340 -0.8462
 7889TIP3    H145158   4.515   5.453  17.151  1.8094 -1.2744 -1.2979
 7889TIP3    H245159   4.511   5.583  17.073  1.1965 -0.3279  0.3059
 7890TIP3   OH245160   0.861   2.757  11.563 -0.2891 -0.1689 -0.3367
 7890TIP3    H145161   0.877   2.847  11.532 -1.0217 -0.1510 -0.6794
 7890TIP3    H245162   0.942   2.710  11.544 -0.3028  0.1419 -1.2009
 7891TIP3   OH245163   4.475   4.459  13.747  0.2359  0.1889  0.0649
 7891TIP3    H145164   4.440   4.407  13.675 -2.4718  2.1144 -0.0939
 7891TIP3    H245165   4.468   4.402  13.824 -2.2382  0.1130 -0.1848
 7892TIP3   OH245166   1.511   3.436   2.464 -0.4604  0.3202 -0.4682
 7892TIP3    H145167   1.490   3.484   2.384  2.6244  2.0940 -0.2789
 7892TIP3    H245168   1.432   3.444   2.518 -1.3060  2.1160 -1.9196
 7893TIP3   OH245169   5.478   6.060   0.292 -0.1324 -0.4011  0.1759
 7893TIP3    H145170   5.549   6.105   0.337  0.0052  0.2755 -0.7079
 7893TIP3    H245171   5.470   6.105   0.208 -1.5352 -0.5438  0.2209
 7894TIP3   OH245172   4.558   1.823  11.062  0.3526  0.3235  0.4679
 7894TIP3    H145173   4.598   1.811  11.148  1.8027  2.0118  0.0477
 7894TIP3    H245174   4.499   1.748  11.052 -1.8034  1.4637  4.0271
 7895TIP3   OH245175   1.574   5.527  15.000 -0.4813 -0.0512 -0.4569
 7895TIP3    H145176   1.593   5.590  14.931 -1.3226 -0.0860 -0.7299
 7895TIP3    H245177   1.614   5.563  15.079 -0.6383  0.6277 -0.6924
 7896TIP3   OH245178   6.422   1.849  12.992 -0.2121 -0.8589  0.7606
 7896TIP3    H145179   6.464   1.927  13.028 -1.2303  0.6121 -1.1224
 7896TIP3    H245180   6.441   1.780  13.055  0.9656  0.8384  2.3197
 7897TIP3   OH245181   3.193   0.599   1.690 -0.3843  0.2635 -0.3279
 7897TIP3    H145182   3.255   0.527   1.707  0.4633  1.1397  0.3364
 7897TIP3    H245183   3.215   0.629   1.602 -1.2769 -0.8064 -0.9349
 7898TIP3   OH245184   3.792   3.827  13.285  0.2836 -0.0752  0.2537
 7898TIP3    H145185   3.759   3.856  13.200 -0.5179  1.2770  1.0094
 7898TIP3    H245186   3.827   3.740  13.269 -0.0694  0.0845 -1.4159
 7899TIP3   OH245187   3.214   5.557   4.453  0.0806  0.3431 -0.3163
 7899TIP3    H145188   3.136   5.564   4.509  1.0051  1.3038  0.8827
 7899TIP3    H245189   3.255   5.475   4.481 -0.2035  0.1142 -0.5657
 7900TIP3   OH245190   4.768   1.152  10.389  0.0104 -0.1663  0.3707
 7900TIP3    H145191   4.698   1.109  10.437  0.3718 -0.6225  0.4900
 7900TIP3    H245192   4.846   1.099  10.406  0.3292  0.1799  0.0177
 7901TIP3   OH245193   2.017   5.691   4.298  0.1095 -0.3917 -0.7232
 7901TIP3    H145194   1.974   5.606   4.299 -0.5303 -0.0953 -1.5509
 7901TIP3    H245195   2.097   5.677   4.248  0.0433 -0.5292 -0.7909
 7902TIP3   OH245196   6.533   3.658  15.276 -0.0005 -0.1047 -0.1172
 7902TIP3    H145197   6.563   3.738  15.232  0.2468  0.0214  0.2796
 7902TIP3    H245198   6.588   3.589  15.240  0.6312  0.0940  0.4505
 7903TIP3   OH245199   5.739   4.403  16.810  0.2302  0.4023  0.1442
 7903TIP3    H145200   5.702   4.488  16.834  2.6838  1.5005  0.1739
 7903TIP3    H245201   5.778   4.417  16.724  2.3930 -0.1217  1.0033
 7904TIP3   OH245202   4.413   3.725   4.643 -0.3003  0.3926  0.0651
 7904TIP3    H145203   4.410   3.645   4.591  1.5508 -0.3877  1.1107
 7904TIP3    H245204   4.464   3.786   4.590 -0.6697  0.4819 -0.1902
 7905TIP3   OH245205   5.263   4.465   5.888 -0.1627 -0.4667 -0.0149
 7905TIP3    H145206   5.337   4.415   5.923  0.0428 -0.4137 -0.3701
 7905TIP3    H245207   5.292   4.557   5.891 -0.9787 -0.2597  1.7032
 7906TIP3   OH245208   3.649   2.107   5.745  0.0677  0.0166  0.3052
 7906TIP3    H145209   3.618   2.071   5.829 -1.4534  1.7648  0.5328
 7906TIP3    H245210   3.612   2.048   5.679  1.5897 -1.5855  0.8753
 7907TIP3   OH245211   3.176   0.638   0.316  0.0460  0.2214  0.5202
 7907TIP3    H145212   3.244   0.570   0.320  0.7051  0.7002 -1.6773
 7907TIP3    H245213   3.149   0.638   0.224 -2.8077  0.1831  1.3061
 7908TIP3   OH245214   2.444   0.203   0.877 -0.0557  0.3057  0.1239
 7908TIP3    H145215   2.351   0.208   0.857  0.0832  0.5851 -0.4740
 7908TIP3    H245216   2.484   0.273   0.825  0.4527  0.3726  0.5911
 7909TIP3   OH245217   6.534   1.140  16.610 -0.2677 -0.3059  0.4351
 7909TIP3    H145218   6.452   1.176  16.578 -0.3054 -2.4873 -2.0960
 7909TIP3    H245219   6.508   1.070  16.670 -0.2742 -1.2456 -0.6574
 7910TIP3   OH245220   6.571   2.506  14.642 -0.1340 -0.1932  0.2841
 7910TIP3    H145221   6.623   2.587  14.646 -0.1176 -0.1335 -0.8728
 7910TIP3    H245222   6.608   2.451  14.711 -1.6876  1.6551  2.6808
 7911TIP3   OH245223   3.702   5.467  12.845 -0.5401  0.1916  0.3051
 7911TIP3    H145224   3.737   5.378  12.853 -0.1505  0.2506 -0.7626
 7911TIP3    H245225   3.622   5.457  12.795 -0.3110  0.4886 -0.1206
 7912TIP3   OH245226   5.237   3.461  17.052 -0.4180  0.1964 -0.1050
 7912TIP3    H145227   5.263   3.553  17.043 -0.0971  0.2433  1.2146
 7912TIP3    H245228   5.143   3.461  17.032 -0.4328  0.8284 -0.0693
 7913TIP3   OH245229   6.454   4.850   1.390  0.1691 -0.1681 -0.0425
 7913TIP3    H145230   6.373   4.803   1.368 -1.1575  2.2128 -0.4514
 7913TIP3    H245231   6.498   4.861   1.306 -0.1728  0.4726 -0.1400
 7914TIP3   OH245232   6.371   1.361  15.181  0.0575 -0.0176  0.5443
 7914TIP3    H145233   6.300   1.347  15.244  0.5485  0.6568  1.2608
 7914TIP3    H245234   6.359   1.292  15.116 -0.9771 -0.1960  0.9077
 7915TIP3   OH245235   3.975   3.781  14.029  0.0548  0.0413  0.1549
 7915TIP3    H145236   4.062   3.753  14.059 -0.2349  0.0633  1.0217
 7915TIP3    H245237   3.918   3.767  14.104 -0.8604 -0.7293 -0.6694
 7916TIP3   OH245238   1.446   1.342  11.686 -0.1461 -0.1986  0.3237
 7916TIP3    H145239   1.455   1.259  11.733 -0.8556 -0.8583 -0.6773
 7916TIP3    H245240   1.352   1.360  11.686 -0.4187 -1.3256 -2.6471
 7917TIP3   OH245241   0.442   4.063   4.749  0.5193 -0.0186  0.1435
 7917TIP3    H145242   0.520   4.016   4.720 -1.1501 -2.2922 -0.7808
 7917TIP3    H245243   0.430   4.036   4.840 -0.1162 -0.9743 -0.2168
 7918TIP3   OH245244   0.275   0.041   0.722  0.5400 -0.0135  0.5239
 7918TIP3    H145245   0.252   0.132   0.741 -0.6458 -0.4219  1.1364
 7918TIP3    H245246   0.249   0.027   0.631  1.0728  0.3605  0.3110
 7919TIP3   OH245247   5.686   3.891  17.245 -0.3518  0.1342 -0.2519
 7919TIP3    H145248   5.604   3.863  17.205 -0.6915  0.2154  0.3720
 7919TIP3    H245249   5.717   3.814  17.293 -0.9314  0.5908  0.8948
 7920TIP3   OH245250   0.673   2.110   3.547  0.6456  0.2927 -0.4455
 7920TIP3    H145251   0.721   2.111   3.630 -1.0167  0.5448  0.5481
 7920TIP3    H245252   0.658   2.202   3.527  0.5302  0.2141 -0.7150
 7921TIP3   OH245253   3.814   3.343  13.859  0.2192  0.4608  0.6864
 7921TIP3    H145254   3.852   3.321  13.944  0.2976  1.3165  0.8875
 7921TIP3    H245255   3.828   3.438  13.852  0.7700  0.2938 -0.5492
 7922TIP3   OH245256   0.749   1.532  11.556  0.3681 -0.1213 -0.3235
 7922TIP3    H145257   0.802   1.549  11.478 -1.2583 -0.3694 -1.5048
 7922TIP3    H245258   0.669   1.582  11.541 -0.3767 -0.9863  0.7266
 7923TIP3   OH245259   1.509   3.255   4.140 -1.0777  0.8898  0.0636
 7923TIP3    H145260   1.530   3.329   4.083 -2.6413  0.4428 -1.1431
 7923TIP3    H245261   1.414   3.248   4.135 -0.9184 -1.4880 -0.2116
 7924TIP3   OH245262   2.019   0.317  15.574 -0.1095  0.1652  0.4138
 7924TIP3    H145263   2.076   0.374  15.523 -0.5458 -0.1945 -0.4941
 7924TIP3    H245264   2.055   0.229  15.561  0.6205  0.2217  1.8838
 7925TIP3   OH245265   5.355   2.696   6.462  0.2671 -0.0905  0.5464
 7925TIP3    H145266   5.418   2.640   6.508 -0.2304 -0.3669  0.8990
 7925TIP3    H245267   5.407   2.769   6.428  1.0906 -1.2772 -0.7906
 7926TIP3   OH245268   2.278   5.029  10.863 -0.1302 -0.0730 -0.0390
 7926TIP3    H145269   2.324   4.982  10.794 -0.0866 -1.2152  0.7541
 7926TIP3    H245270   2.193   4.984  10.870 -0.0973 -0.0268  0.7128
 7927TIP3   OH245271   2.640   2.987   5.222 -0.4467 -0.1340  0.2998
 7927TIP3    H145272   2.725   2.988   5.178 -1.3592 -0.1794 -1.5221
 7927TIP3    H245273   2.631   3.076   5.257 -0.0577  0.1744 -0.3500
 7928TIP3   OH245274   6.413   3.189   0.680  0.1099 -0.2413  0.2340
 7928TIP3    H145275   6.467   3.169   0.757  0.5064 -0.3640 -0.0691
 7928TIP3    H245276   6.468   3.162   0.606 -0.4126 -0.4511 -0.0738
 7929TIP3   OH245277   4.665   4.135  12.820 -0.3928 -0.0355  0.0976
 7929TIP3    H145278   4.705   4.206  12.870 -0.9065  1.0438 -0.9720
 7929TIP3    H245279   4.590   4.107  12.873 -1.2476  1.4590 -0.2738
 7930TIP3   OH245280   3.010   4.679   5.688 -0.5081  0.3035 -0.2217
 7930TIP3    H145281   3.063   4.698   5.611  0.0779 -0.1759  0.0661
 7930TIP3    H245282   2.920   4.682   5.655 -0.2030 -1.7681 -1.3597
 7931TIP3   OH245283   3.830   5.963  11.877  0.1037 -0.1093  0.5745
 7931TIP3    H145284   3.778   5.943  11.955  1.4707 -1.5538  1.1503
 7931TIP3    H245285   3.797   5.903  11.810 -0.3149  0.3538  0.3661
 7932TIP3   OH245286   3.464   0.147  12.329 -0.6470 -0.1499  0.3301
 7932TIP3    H145287   3.421   0.110  12.252  0.1761  0.2812 -0.3385
 7932TIP3    H245288   3.543   0.094  12.341  0.0642  0.7897 -0.0876
 7933TIP3   OH245289   2.185   2.889   5.831 -0.2516 -0.0332  0.4067
 7933TIP3    H145290   2.180   2.977   5.794  0.2937 -0.4876 -0.7604
 7933TIP3    H245291   2.278   2.875   5.849 -0.4428 -0.0328  1.4405
 7934TIP3   OH245292   0.753   2.107   1.754 -0.6404  0.4319  0.0213
 7934TIP3    H145293   0.786   2.020   1.732 -1.2849 -0.4511  2.4064
 7934TIP3    H245294   0.661   2.105   1.730 -0.9735 -0.0053  1.3195
 7935TIP3   OH245295   4.335   0.694  12.453 -0.1967  0.2875 -0.2206
 7935TIP3    H145296   4.398   0.734  12.394 -0.8478  0.9022 -0.5143
 7935TIP3    H245297   4.259   0.676  12.398 -1.0602  1.4755  0.5489
 7936TIP3   OH245298   1.628   3.938  16.795 -0.6290  0.3345  0.4088
 7936TIP3    H145299   1.664   4.017  16.753  0.2762  0.1713  0.8659
 7936TIP3    H245300   1.545   3.923  16.750  0.2537  0.2405 -1.2444
 7937TIP3   OH245301   0.895   5.826  14.935  0.5225  0.3082 -0.3603
 7937TIP3    H145302   0.944   5.795  14.858  0.4257  1.1008 -0.7541
 7937TIP3    H245303   0.847   5.903  14.903 -0.9515 -0.4341  0.0426
 7938TIP3   OH245304   3.499   3.513  12.777 -0.3129 -0.3082  0.4403
 7938TIP3    H145305   3.431   3.470  12.828 -0.3852 -0.4287  0.2462
 7938TIP3    H245306   3.574   3.453  12.781 -0.8403 -1.0948 -0.9156
 7939TIP3   OH245307   3.203   4.328   2.309 -0.0320  0.3628 -0.3401
 7939TIP3    H145308   3.273   4.394   2.316  0.4356 -0.4186  3.1552
 7939TIP3    H245309   3.247   4.250   2.276  0.6893  0.0376  1.3278
 7940TIP3   OH245310   5.189   2.979  12.621 -0.3279  0.2867 -0.1662
 7940TIP3    H145311   5.171   2.937  12.705 -0.5130  2.0485  0.7033
 7940TIP3    H245312   5.175   3.072  12.637 -0.0621  0.6876 -2.0787
 7941TIP3   OH245313   5.455   5.028   4.022  0.1796  0.2302 -1.1499
 7941TIP3    H145314   5.447   5.122   4.037 -0.1794  0.5394 -3.1208
 7941TIP3    H245315   5.378   5.005   3.971 -0.0242 -1.2568 -0.2063
 7942TIP3   OH245316   1.910   1.396   4.203  0.3152 -0.2575  0.4423
 7942TIP3    H145317   1.999   1.368   4.185  0.1899 -0.0775 -0.4738
 7942TIP3    H245318   1.884   1.346   4.280  0.5313 -1.7272 -0.4301
 7943TIP3   OH245319   4.109   3.344   0.072  0.3133  1.1387 -0.9559
 7943TIP3    H145320   4.160   3.302   0.003  1.9796  1.4255  0.0796
 7943TIP3    H245321   4.047   3.277   0.101  1.0634  0.3142 -1.2426
 7944TIP3   OH245322   4.230   2.968   1.289  0.3002  0.7473  0.1145
 7944TIP3    H145323   4.219   3.041   1.228 -0.2531  0.8571  0.3403
 7944TIP3    H245324   4.144   2.959   1.331  0.2569 -0.2751 -0.1851
 7945TIP3   OH245325   6.270   6.480  16.768  0.0665 -0.2451  0.0270
 7945TIP3    H145326   6.309   6.464  16.682 -1.3455 -0.0378 -0.6782
 7945TIP3    H245327   6.284   6.399  16.817  1.6024 -0.0722 -0.1048
 7946TIP3   OH245328   4.494   6.713  16.832  0.2512 -0.3119  0.8477
 7946TIP3    H145329   4.421   6.713  16.771  0.3603 -0.8658  0.7144
 7946TIP3    H245330   4.464   6.765  16.906 -1.0936 -2.3471  1.7655
 7947TIP3   OH245331   3.682   2.014  13.242  0.8662 -0.4434 -0.0514
 7947TIP3    H145332   3.608   2.038  13.298 -1.0938 -2.9431 -1.4510
 7947TIP3    H245333   3.714   1.932  13.279  1.5287 -0.5114 -0.7614
 7948TIP3   OH245334   3.872   1.108   4.730  0.0916 -0.6092  0.3453
 7948TIP3    H145335   3.839   1.128   4.817  1.9787  1.0154  0.7079
 7948TIP3    H245336   3.822   1.030   4.703 -2.9012  0.8472  1.4717
 7949TIP3   OH245337   2.517   4.923   4.853 -0.2605  0.0927 -0.1471
 7949TIP3    H145338   2.545   4.857   4.916 -1.6883 -0.6148 -0.2332
 7949TIP3    H245339   2.449   4.880   4.801  1.3036  0.4794 -2.5714
 7950TIP3   OH245340   0.980   0.489   6.140 -0.4088  0.1244  0.5439
 7950TIP3    H145341   1.073   0.479   6.161 -0.7882 -1.2399  1.6925
 7950TIP3    H245342   0.978   0.503   6.046  0.8492 -1.7966  0.1971
 7951TIP3   OH245343   4.661   6.803  14.415 -0.2250 -0.7908  0.4993
 7951TIP3    H145344   4.691   6.726  14.462  2.1466  0.5282  1.2339
 7951TIP3    H245345   4.695   6.791  14.326 -0.3603 -0.8661  0.4574
 7952TIP3   OH245346   4.532   0.506  17.008 -0.2179 -0.2377  0.1316
 7952TIP3    H145347   4.509   0.597  16.989 -2.9258 -0.9970 -0.3813
 7952TIP3    H245348   4.558   0.470  16.923 -2.5513 -0.8809 -0.3284
 7953TIP3   OH245349   5.029   4.775   2.440 -0.6298 -0.4792  0.0223
 7953TIP3    H145350   5.009   4.721   2.364 -0.6053 -1.1807  0.5033
 7953TIP3    H245351   4.966   4.846   2.437 -2.0148 -1.6741  0.5279
 7954TIP3   OH245352   6.674   1.315  12.003 -0.7683 -0.8616  0.3033
 7954TIP3    H145353   6.707   1.366  12.077  1.6210 -1.6279 -0.1931
 7954TIP3    H245354   6.662   1.227  12.039 -1.8970 -0.6891  0.3663
 7955TIP3   OH245355   3.951   2.689  15.098  0.1786  0.1717  0.9597
 7955TIP3    H145356   4.022   2.753  15.103  1.4440 -1.1444  0.4632
 7955TIP3    H245357   3.994   2.605  15.114 -1.2102 -0.6911  0.2750
 7956TIP3   OH245358   3.089   5.162  15.126  0.0610  0.1684 -0.4285
 7956TIP3    H145359   2.995   5.176  15.139  0.1896  0.8392 -0.1696
 7956TIP3    H245360   3.095   5.097  15.056 -0.6013 -0.1699 -0.1659
 7957TIP3   OH245361   0.779   3.066   3.024 -0.4006  0.2160  0.5076
 7957TIP3    H145362   0.685   3.054   3.015 -0.6073  1.4298  1.0243
 7957TIP3    H245363   0.805   3.111   2.943 -0.2647 -0.0952  0.3770
 7958TIP3   OH245364   6.381   3.994  16.813  0.3229  0.0362  0.3757
 7958TIP3    H145365   6.352   4.078  16.777 -0.5463  0.5902  2.3135
 7958TIP3    H245366   6.475   3.991  16.793  0.0368  0.6809 -1.1735
 7959TIP3   OH245367   6.414   3.339  16.465 -0.3728  0.0546  0.3908
 7959TIP3    H145368   6.476   3.342  16.393 -1.9857  1.2010 -1.0084
 7959TIP3    H245369   6.339   3.291  16.430 -1.6068  1.5375  0.9220
 7960TIP3   OH245370   4.889   0.975  16.858 -0.2138  0.2310  0.2421
 7960TIP3    H145371   4.810   0.989  16.805  0.3416  0.4969 -0.5161
 7960TIP3    H245372   4.859   0.921  16.931 -0.6535 -1.5475 -1.2205
 7961TIP3   OH245373   0.106   5.097   1.780 -0.2158 -0.6740 -0.0276
 7961TIP3    H145374   0.087   5.017   1.829 -1.8049 -0.4847 -0.3074
 7961TIP3    H245375   0.156   5.151   1.842  1.7999 -2.2790 -0.2009
 7962TIP3   OH245376   3.602   5.986  10.942  0.2454 -0.3532 -0.0375
 7962TIP3    H145377   3.590   6.024  11.029 -0.2923 -0.0584 -0.2387
 7962TIP3    H245378   3.516   5.950  10.919  0.2432  0.0660 -0.6821
 7963TIP3   OH245379   6.010   3.991   0.116 -0.1260 -0.3480  0.0889
 7963TIP3    H145380   6.003   4.080   0.081 -1.3047  0.1261  1.5172
 7963TIP3    H245381   5.920   3.964   0.133  0.3044 -1.3423  0.8405
 7964TIP3   OH245382   0.850   6.144  15.322  0.2659  0.2705  0.1871
 7964TIP3    H145383   0.806   6.079  15.376  1.1351 -0.5011 -0.0170
 7964TIP3    H245384   0.920   6.096  15.278 -0.1949  0.9551 -1.3614
 7965TIP3   OH245385   2.256   0.744   3.320  0.0520  0.3266 -0.0368
 7965TIP3    H145386   2.337   0.742   3.371  0.2769 -0.6447 -0.4172
 7965TIP3    H245387   2.271   0.682   3.248 -0.8105  0.5682 -0.4352
 7966TIP3   OH245388   0.063   4.935   0.241  0.4312  0.0449  0.3741
 7966TIP3    H145389   0.000   4.991   0.195 -1.0963 -1.3616  0.6709
 7966TIP3    H245390   0.147   4.978   0.229 -0.5297  1.7700 -0.3891
 7967TIP3   OH245391   1.633   0.595  13.818 -0.3359  0.8965 -0.6103
 7967TIP3    H145392   1.693   0.533  13.776 -0.5098  0.4759 -0.2390
 7967TIP3    H245393   1.547   0.554  13.810 -0.6088  1.6149 -1.3589
 7968TIP3   OH245394   2.741   3.188  16.001  0.2727  0.2747 -0.1229
 7968TIP3    H145395   2.706   3.229  16.081  3.8143  2.4744  0.3837
 7968TIP3    H245396   2.802   3.121  16.034  0.1165 -0.2922 -0.9882
 7969TIP3   OH245397   1.127   5.017  11.233 -0.0042  0.2476 -0.1817
 7969TIP3    H145398   1.168   5.012  11.319 -1.2974  0.7879  0.4732
 7969TIP3    H245399   1.169   5.093  11.191 -2.4287  2.6665  1.6316
 7970TIP3   OH245400   5.559   2.102   2.906 -0.1880  0.3682 -0.0228
 7970TIP3    H145401   5.509   2.021   2.897 -0.0671  0.2835  0.0836
 7970TIP3    H245402   5.551   2.144   2.820  0.5753 -0.2216 -0.3864
 7971TIP3   OH245403   1.737   2.389  13.238  0.6379 -0.0355 -0.0904
 7971TIP3    H145404   1.760   2.478  13.210 -1.5304  0.4311 -0.5493
 7971TIP3    H245405   1.720   2.342  13.157  0.5845 -0.5193  0.2012
 7972TIP3   OH245406   2.276   0.360  16.825  0.0104  0.3237  0.2844
 7972TIP3    H145407   2.205   0.324  16.772 -1.1459  1.7797  0.8176
 7972TIP3    H245408   2.355   0.344  16.773 -1.0252  1.1199 -1.5652
 7973TIP3   OH245409   2.875   6.111   2.353  0.0178  0.2553  0.1680
 7973TIP3    H145410   2.863   6.195   2.307 -1.4762 -0.3328 -0.5646
 7973TIP3    H245411   2.889   6.136   2.444 -1.6510  1.2775  0.1657
 7974TIP3   OH245412   5.552   0.904  12.592 -0.7330  0.0043  0.3259
 7974TIP3    H145413   5.562   0.816  12.555  1.7690  0.9943 -1.4581
 7974TIP3    H245414   5.483   0.944  12.539  0.0649  0.0436 -0.7071
 7975TIP3   OH245415   5.065   1.449   1.185  0.2005 -0.3303 -0.1659
 7975TIP3    H145416   5.069   1.389   1.259  0.0470  0.5093  0.5276
 7975TIP3    H245417   5.153   1.447   1.148  0.5571  0.0221  0.6548
 7976TIP3   OH245418   4.236   3.186   1.104 -0.0332  0.5239 -0.3717
 7976TIP3    H145419   4.323   3.218   1.079 -0.4230  0.1582 -2.3208
 7976TIP3    H245420   4.220   3.113   1.044 -2.7410  2.2476 -1.8334
 7977TIP3   OH245421   0.297   2.638  12.021 -0.3000  0.4981 -0.5838
 7977TIP3    H145422   0.318   2.658  12.112 -0.8489  0.0925 -0.3641
 7977TIP3    H245423   0.285   2.543  12.019  1.6038  0.2574 -1.4837
 7978TIP3   OH245424   6.308   1.636   0.820  0.3321  0.1612  0.3259
 7978TIP3    H145425   6.322   1.541   0.824  0.9556  0.2271 -0.3156
 7978TIP3    H245426   6.312   1.657   0.727 -0.2565  0.7522  0.4323
 7979TIP3   OH245427   0.400   3.398  15.845 -0.2510  0.1851 -0.1281
 7979TIP3    H145428   0.405   3.406  15.750  0.4809 -0.7195 -0.1756
 7979TIP3    H245429   0.306   3.399  15.864 -0.4247 -0.3050 -0.9289
 7980TIP3   OH245430   5.085   1.753   6.160  0.0473  0.7914  0.2539
 7980TIP3    H145431   5.103   1.846   6.150 -1.3120  1.1303  0.8554
 7980TIP3    H245432   5.163   1.717   6.203 -0.3337  2.0545  2.0439
 7981TIP3   OH245433   3.438   6.453   1.359  0.1163 -0.7716  0.5174
 7981TIP3    H145434   3.394   6.531   1.393  0.2501 -0.5819  0.2591
 7981TIP3    H245435   3.370   6.404   1.314  0.5003  0.3652 -1.3536
 7982TIP3   OH245436   0.361   3.731  11.841  0.5371 -0.0124  0.2141
 7982TIP3    H145437   0.416   3.688  11.907  0.5101 -0.6998 -0.2029
 7982TIP3    H245438   0.407   3.812  11.820  1.6755 -0.8318 -0.5174
 7983TIP3   OH245439   1.451   2.768   3.845 -0.3118 -0.3859  0.2232
 7983TIP3    H145440   1.535   2.768   3.800 -0.3079  0.1863  0.2284
 7983TIP3    H245441   1.460   2.702   3.914 -0.5147 -1.6872 -0.9695
 7984TIP3   OH245442   3.999   2.400  16.986 -0.2050  0.4530 -1.2090
 7984TIP3    H145443   4.014   2.482  16.941 -1.7922  0.5769 -1.5702
 7984TIP3    H245444   3.907   2.404  17.013 -0.1969 -1.0327 -0.8942
 7985TIP3   OH245445   0.448   5.659  12.155  0.4763  0.3636  0.1716
 7985TIP3    H145446   0.459   5.582  12.100  0.5121  1.2913 -1.1567
 7985TIP3    H245447   0.532   5.669  12.200  0.1894 -0.8448  1.0086
 7986TIP3   OH245448   4.509   6.102  11.442 -0.1717  0.8003  0.0638
 7986TIP3    H145449   4.523   6.115  11.536  1.2801  1.3381 -0.2140
 7986TIP3    H245450   4.421   6.066  11.435  0.3228 -0.8070  1.7688
 7987TIP3   OH245451   1.321   2.931  17.065  0.1576 -0.3716  0.2210
 7987TIP3    H145452   1.386   2.968  17.124  1.3771 -2.5077  0.2856
 7987TIP3    H245453   1.372   2.892  16.995 -1.2299  0.8857 -1.5216
 7988TIP3   OH245454   4.558   2.474  15.778 -0.0128 -0.7826 -0.0372
 7988TIP3    H145455   4.649   2.456  15.753 -0.3077 -1.8538 -0.3582
 7988TIP3    H245456   4.506   2.424  15.715 -0.8882  1.8273 -1.4840
 7989TIP3   OH245457   1.550   2.912   5.169  0.2382  0.0529  0.0434
 7989TIP3    H145458   1.608   2.853   5.216 -1.2432 -0.5946  1.0887
 7989TIP3    H245459   1.471   2.861   5.152 -0.4401  1.2298 -0.4500
 7990TIP3   OH245460   1.790   0.283   1.522 -0.2357 -0.0609  0.1031
 7990TIP3    H145461   1.792   0.247   1.611 -1.1846 -1.7312 -0.5238
 7990TIP3    H245462   1.827   0.214   1.468 -0.5812  0.5559 -0.9329
 7991TIP3   OH245463   3.872   1.676   1.436 -0.2916  0.1572  0.2334
 7991TIP3    H145464   3.961   1.703   1.413 -0.5814  0.9600  0.0166
 7991TIP3    H245465   3.856   1.716   1.521 -1.5110  2.5584 -1.0656
 7992TIP3   OH245466   2.815   4.318   0.670 -0.5034  0.0014  0.0432
 7992TIP3    H145467   2.840   4.373   0.744 -0.7974  0.3315 -0.1028
 7992TIP3    H245468   2.723   4.342   0.653 -0.6019 -0.4633 -0.0778
 7993TIP3   OH245469   1.279   3.116  12.470  0.4496  0.3015  0.3794
 7993TIP3    H145470   1.259   3.032  12.430  1.1128  0.4942 -0.3703
 7993TIP3    H245471   1.214   3.126  12.540 -1.3279  0.3837 -1.2376
 7994TIP3   OH245472   6.353   6.346   0.726 -0.1348  0.2117  0.2977
 7994TIP3    H145473   6.319   6.303   0.648  0.3184  0.1742  0.1186
 7994TIP3    H245474   6.276   6.361   0.781 -0.6427  1.3740 -0.7057
 7995TIP3   OH245475   5.862   4.418   0.388  0.1290 -0.5810  0.0575
 7995TIP3    H145476   5.870   4.328   0.418 -0.2171 -0.6827 -0.1461
 7995TIP3    H245477   5.775   4.422   0.349  0.0873 -0.1210  0.1948
 7996TIP3   OH245478   1.155   3.143  12.753 -0.7439  0.4772  0.0760
 7996TIP3    H145479   1.090   3.204  12.788  0.4026  1.0753  1.1916
 7996TIP3    H245480   1.213   3.125  12.827 -1.4386 -2.4601 -0.0439
 7997TIP3   OH245481   0.765   3.894   1.830  0.2816 -0.2691 -0.0604
 7997TIP3    H145482   0.826   3.966   1.846  1.1754 -0.2750 -2.9877
 7997TIP3    H245483   0.811   3.816   1.861  1.0283 -0.0450 -0.5841
 7998TIP3   OH245484   3.707   0.835   0.025 -0.1810  0.0440  0.4332
 7998TIP3    H145485   3.761   0.787  -0.038  0.9479  0.9096  0.7339
 7998TIP3    H245486   3.763   0.907   0.055 -2.4278  2.5896 -1.2549
 7999TIP3   OH245487   5.777   6.050  14.147 -0.3812  0.0153 -0.5214
 7999TIP3    H145488   5.822   5.998  14.214 -1.2085  0.1465  0.1351
 7999TIP3    H245489   5.759   5.988  14.077 -1.4152 -0.5950  0.2828
 8000TIP3   OH245490   6.310   4.856   4.148  0.7128  0.4840 -0.3556
 8000TIP3    H145491   6.244   4.786   4.150 -0.4936  1.6121  0.3651
 8000TIP3    H245492   6.350   4.853   4.235  0.6883  0.6623 -0.3388
 8001TIP3   OH245493   0.849   2.996   3.273  0.0530 -0.1537  0.3259
 8001TIP3    H145494   0.816   3.025   3.188  1.6697 -1.5390 -0.8006
 8001TIP3    H245495   0.817   3.062   3.334 -1.4573  0.6683 -1.2832
 8002TIP3   OH245496   3.627   3.804  13.528  0.4088  0.3874 -0.3441
 8002TIP3    H145497   3.692   3.860  13.485  1.9865 -0.3312  1.0600
 8002TIP3    H245498   3.642   3.717  13.491 -0.4396  0.3969 -0.7365
 8003TIP3   OH245499   1.762   3.054   2.002  0.2450 -0.2917  0.4386
 8003TIP3    H145500   1.669   3.055   2.025  0.4847 -0.3976  1.4335
 8003TIP3    H245501   1.801   3.122   2.057  0.0086  3.0703 -3.2442
 8004TIP3   OH245502   0.286   0.407  13.184 -0.5768 -0.2283  0.2217
 8004TIP3    H145503   0.287   0.314  13.162  2.3883 -0.3037  0.4770
 8004TIP3    H245504   0.344   0.447  13.118 -1.5077  1.3706  0.3587
 8005TIP3   OH245505   2.994   1.833   3.795  0.0478 -0.1317 -0.1777
 8005TIP3    H145506   2.916   1.797   3.838  1.5777 -1.5699  1.4763
 8005TIP3    H245507   2.984   1.927   3.802 -0.5320 -0.3207  1.9380
 8006TIP3   OH245508   5.225   4.366  12.223  0.4776  0.1423  0.0154
 8006TIP3    H145509   5.219   4.314  12.143  1.7320  0.6934 -0.4594
 8006TIP3    H245510   5.259   4.306  12.289  1.8320  0.3181 -0.5056
 8007TIP3   OH245511   5.024   2.505   2.625  0.1052  0.0457 -0.2881
 8007TIP3    H145512   5.061   2.470   2.543 -0.3023  0.3181 -0.5900
 8007TIP3    H245513   5.030   2.600   2.615 -1.6985  0.1201 -0.8187
 8008TIP3   OH245514   1.952   0.201  14.769  0.0972 -0.1740 -0.6770
 8008TIP3    H145515   1.931   0.218  14.678 -2.9936 -2.7489 -0.5728
 8008TIP3    H245516   1.869   0.215  14.815  1.5238  0.7593  1.7019
 8009TIP3   OH245517   2.872   1.575  15.455 -0.3000 -0.2685 -0.0748
 8009TIP3    H145518   2.862   1.647  15.517 -0.6877 -0.3276 -0.0643
 8009TIP3    H245519   2.939   1.604  15.394 -0.2364 -0.0256  0.1115
 8010TIP3   OH245520   4.403   5.544  16.188  0.5098 -0.3646 -0.1152
 8010TIP3    H145521   4.494   5.529  16.164  0.9673  0.6652  0.9159
 8010TIP3    H245522   4.381   5.628  16.148  0.1622 -0.3821  0.0350
 8011TIP3   OH245523   2.995   2.128   6.087 -0.2649  0.4769  0.0555
 8011TIP3    H145524   3.088   2.142   6.074 -0.3184 -1.0687 -2.1723
 8011TIP3    H245525   2.989   2.048   6.140 -0.3411  0.1926 -0.3813
 8012TIP3   OH245526   4.470   2.828   1.299 -0.2789  0.3235 -0.0394
 8012TIP3    H145527   4.381   2.860   1.312  0.3804  1.9943  0.6189
 8012TIP3    H245528   4.524   2.888   1.352  1.0659 -1.6639  0.8852
 8013TIP3   OH245529   5.006   4.275  11.501  0.1805 -0.1663 -0.2547
 8013TIP3    H145530   5.057   4.225  11.565 -1.1651  1.2076  1.9660
 8013TIP3    H245531   5.057   4.354  11.486  0.0596 -0.0784 -0.1985
 8014TIP3   OH245532   6.268   5.218   2.109  0.6876 -0.3881  0.0059
 8014TIP3    H145533   6.329   5.181   2.045 -1.2245 -1.0585 -1.4627
 8014TIP3    H245534   6.218   5.283   2.060  0.3096  0.2539  1.2339
 8015TIP3   OH245535   2.069   1.827   0.724  0.1897  0.5086  1.1985
 8015TIP3    H145536   2.115   1.808   0.805  1.5295  0.6468  0.4792
 8015TIP3    H245537   2.135   1.866   0.667 -0.7030  0.3150  0.0050
 8016TIP3   OH245538   0.369   0.360   6.229  0.1951 -0.1028 -0.0940
 8016TIP3    H145539   0.273   0.367   6.232  0.1936  0.6436 -1.3783
 8016TIP3    H245540   0.391   0.375   6.137  1.3944 -2.5285 -0.2225
 8017TIP3   OH245541   5.589   3.759  12.328  0.5491  0.3277 -0.0597
 8017TIP3    H145542   5.589   3.670  12.362  1.1734  0.4713  0.3217
 8017TIP3    H245543   5.650   3.758  12.255 -1.7773 -0.2950 -2.0415
 8018TIP3   OH245544   2.811   5.976   5.148  0.4856 -0.2838  0.3372
 8018TIP3    H145545   2.734   6.012   5.103 -0.7593 -2.3416  0.7595
 8018TIP3    H245546   2.883   5.988   5.086 -1.0315 -2.2742 -1.8845
 8019TIP3   OH245547   5.985   2.660   5.347 -0.3474  0.2793  0.2246
 8019TIP3    H145548   5.958   2.640   5.257  0.0536 -0.0253  0.1690
 8019TIP3    H245549   5.950   2.586   5.398 -0.3694  0.3313  0.2846
 8020TIP3   OH245550   1.427   4.964   4.447  0.1530  0.3421  0.0442
 8020TIP3    H145551   1.463   4.960   4.358  0.4335  0.4112  0.1548
 8020TIP3    H245552   1.486   5.022   4.494  1.3420 -1.5450  0.9172
 8021TIP3   OH245553   4.980   6.675  13.612 -0.3714 -0.8971  0.0629
 8021TIP3    H145554   4.990   6.705  13.702  0.0575 -3.6035  0.9547
 8021TIP3    H245555   4.889   6.644  13.606 -0.6475  0.0022 -0.6940
 8022TIP3   OH245556   5.374   2.093  15.300  0.0564 -0.4657  0.5187
 8022TIP3    H145557   5.354   2.184  15.320 -0.5679 -1.0768  2.7653
 8022TIP3    H245558   5.461   2.078  15.336  0.3683 -0.6382 -0.2858
 8023TIP3   OH245559   4.052   5.656   2.010  0.2394 -0.5438  0.3570
 8023TIP3    H145560   4.051   5.642   1.916  1.2461 -2.4738  0.6044
 8023TIP3    H245561   4.143   5.679   2.030  0.8468 -3.5160  1.2744
 8024TIP3   OH245562   4.048   6.130  15.272  0.5994 -0.1914 -0.4256
 8024TIP3    H145563   4.052   6.201  15.336 -1.6352 -0.4446  0.0123
 8024TIP3    H245564   4.032   6.051  15.324  1.5392 -0.7988 -1.0512
 8025TIP3   OH245565   4.241   4.765   2.584 -1.0246  0.0825  0.1355
 8025TIP3    H145566   4.283   4.680   2.587 -0.3628  0.4094  0.2395
 8025TIP3    H245567   4.154   4.748   2.547 -0.2095 -0.3402 -1.5919
 8026TIP3   OH245568   5.313   1.546   6.008  0.2910 -0.1545 -0.6084
 8026TIP3    H145569   5.268   1.491   6.072 -0.0520 -2.3892 -2.7268
 8026TIP3    H245570   5.403   1.551   6.040  0.1012 -1.1776  0.0988
 8027TIP3   OH245571   0.085   3.233  15.656 -0.0366  0.7193 -0.0806
 8027TIP3    H145572   0.118   3.169  15.719 -1.8825  0.5888  0.7823
 8027TIP3    H245573   0.038   3.180  15.591 -0.6543  1.1099  0.0494
 8028TIP3   OH245574   1.318   0.453   3.308 -0.3927  0.1295 -0.3927
 8028TIP3    H145575   1.377   0.388   3.347 -0.4303  0.1323 -0.3316
 8028TIP3    H245576   1.319   0.432   3.214  1.0827  1.2436 -0.6403
 8029TIP3   OH245577   5.087   0.594   2.113 -0.5541  0.1882 -0.2644
 8029TIP3    H145578   5.004   0.622   2.074 -0.3146 -0.1089 -0.9887
 8029TIP3    H245579   5.070   0.595   2.208 -1.6316 -0.6369 -0.4401
 8030TIP3   OH245580   5.041   3.039   3.998 -0.3253  0.1985  0.2393
 8030TIP3    H145581   5.077   3.119   4.038  1.5796 -0.4073 -0.2605
 8030TIP3    H245582   5.073   3.041   3.908  0.1383 -1.3858  0.3673
 8031TIP3   OH245583   2.796   1.931   5.329 -0.4265 -0.2759  0.1021
 8031TIP3    H145584   2.737   2.002   5.307 -0.1680 -0.3403 -0.7834
 8031TIP3    H245585   2.883   1.961   5.302 -0.0757 -0.2897  1.1581
 8032TIP3   OH245586   0.964   0.320  15.873  0.2353 -0.1289  0.5817
 8032TIP3    H145587   0.983   0.413  15.884 -2.1412  0.4121  0.5125
 8032TIP3    H245588   1.046   0.275  15.893  0.8958  1.8634  2.4301
 8033TIP3   OH245589   6.743   4.451  16.087  0.4163 -0.0966 -0.0876
 8033TIP3    H145590   6.705   4.532  16.053  0.5306 -0.3949 -0.9428
 8033TIP3    H245591   6.670   4.389  16.089  0.4823 -0.1750 -0.1096
 8034TIP3   OH245592   5.691   3.336  14.824 -0.3437 -0.0146  0.3109
 8034TIP3    H145593   5.699   3.240  14.822 -1.6742 -0.1227 -0.1258
 8034TIP3    H245594   5.723   3.360  14.911 -0.2459 -0.8794  0.5242
 8035TIP3   OH245595   4.421   3.096   6.083  0.2298  0.1366  0.0616
 8035TIP3    H145596   4.430   3.164   6.149  0.2903 -2.7293  3.1080
 8035TIP3    H245597   4.485   3.120   6.016 -0.7124  3.7725  0.3207
 8036TIP3   OH245598   3.031   0.805  15.141 -0.8976  0.1695  0.4280
 8036TIP3    H145599   3.126   0.795  15.136 -0.8392  0.6278  0.6815
 8036TIP3    H245600   3.017   0.899  15.150 -1.3859  0.1245  0.1470
 8037TIP3   OH245601   0.458   3.939  12.081  0.1852 -0.1873 -0.7735
 8037TIP3    H145602   0.424   4.019  12.043 -2.0497 -0.7244  0.0232
 8037TIP3    H245603   0.514   3.968  12.153  0.2778  0.6796 -1.1903
 8038TIP3   OH245604   0.687   0.096   0.184  0.3526  0.1835 -0.2621
 8038TIP3    H145605   0.598   0.079   0.153 -0.4380  1.4617  1.1998
 8038TIP3    H245606   0.744   0.067   0.113 -1.2196 -0.9519 -1.0853
 8039TIP3   OH245607   2.625   3.215   6.397  0.1744  0.5399  0.4483
 8039TIP3    H145608   2.587   3.233   6.311  0.5562  0.4712  0.2621
 8039TIP3    H245609   2.720   3.215   6.381  0.2119 -0.6466  0.6371
 8040TIP3   OH245610   6.004   4.791  12.642  0.0771  0.0949  0.2490
 8040TIP3    H145611   6.054   4.856  12.691  1.1106  0.0515 -0.7249
 8040TIP3    H245612   5.947   4.842  12.585 -0.6526  0.1425  1.0106
 8041TIP3   OH245613   2.959   0.093  16.482  0.1851 -0.0553 -0.1475
 8041TIP3    H145614   2.866   0.109  16.466  0.9397  2.2625 -2.6117
 8041TIP3    H245615   2.982   0.153  16.553 -0.4237 -1.5551  1.3735
 8042TIP3   OH245616   0.090   6.810   5.626  0.2183  0.2890 -0.2979
 8042TIP3    H145617   0.094   6.771   5.539  0.7195  1.6334 -0.8894
 8042TIP3    H245618   0.095   6.904   5.611  0.9411  0.5164  1.2262
 8043TIP3   OH245619   5.419   5.237  10.520  0.3595 -0.2532 -0.4335
 8043TIP3    H145620   5.398   5.172  10.454  2.2436 -1.0347 -0.2861
 8043TIP3    H245621   5.514   5.229  10.533  0.2642  0.9733  1.2025
 8044TIP3   OH245622   3.747   4.645   2.163  0.3275 -0.5401 -0.0966
 8044TIP3    H145623   3.718   4.621   2.251  0.6143 -0.9994 -0.1297
 8044TIP3    H245624   3.712   4.577   2.106 -0.6503  0.2573 -0.4647
 8045TIP3   OH245625   2.993   2.020   4.163  0.4551  0.1644  0.1985
 8045TIP3    H145626   3.015   1.929   4.180  1.2299  0.5741  1.5208
 8045TIP3    H245627   3.022   2.036   4.073  1.3747 -0.5840  0.3474
 8046TIP3   OH245628   3.601   0.551  11.939 -0.1364  0.6876  0.1078
 8046TIP3    H145629   3.645   0.486  11.884 -1.5235 -0.6058  0.5215
 8046TIP3    H245630   3.591   0.627  11.881  2.7198  1.0764  0.0267
 8047TIP3   OH245631   2.999   6.523  14.878  0.4211 -0.5007  0.1505
 8047TIP3    H145632   3.002   6.591  14.945 -0.2560 -0.4550  0.1372
 8047TIP3    H245633   2.921   6.544  14.826  0.0969 -1.4013  0.2692
 8048TIP3   OH245634   2.466   2.317  13.510  0.3770 -0.4887  0.1707
 8048TIP3    H145635   2.431   2.285  13.427 -0.4812 -0.2900  0.4552
 8048TIP3    H245636   2.557   2.286  13.511  0.4719 -0.2588 -0.9641
 8049TIP3   OH245637   1.274   1.466  11.910 -0.2386 -0.6518 -0.2327
 8049TIP3    H145638   1.264   1.561  11.916  0.0291 -0.6871  0.8136
 8049TIP3    H245639   1.365   1.449  11.936 -0.1125 -1.1474 -0.9614
 8050TIP3   OH245640   0.842   2.418   2.951  0.4695  0.0417  0.0750
 8050TIP3    H145641   0.791   2.422   3.032 -1.2790  0.2498 -1.0254
 8050TIP3    H245642   0.795   2.474   2.889  0.8389 -1.4371 -1.6043
 8051TIP3   OH245643   4.473   2.029  14.785  0.1582  0.3602  0.6227
 8051TIP3    H145644   4.558   1.992  14.807  0.5300  1.7134  1.5265
 8051TIP3    H245645   4.489   2.123  14.776 -1.3463  0.7167  1.4433
 8052TIP3   OH245646   0.214   4.100   2.312 -0.6006  0.4982  0.0161
 8052TIP3    H145647   0.214   4.081   2.406  0.0526 -0.2988 -0.1352
 8052TIP3    H245648   0.307   4.108   2.290 -0.8435  3.8766  0.0521
 8053TIP3   OH245649   3.383   0.906  12.489  0.3623 -0.4769  0.8117
 8053TIP3    H145650   3.373   0.821  12.446  0.5059  0.2754 -0.7386
 8053TIP3    H245651   3.475   0.928  12.476 -0.0351  0.6480 -0.2151
 8054TIP3   OH245652   5.779   4.328  13.063 -0.1446  0.6363 -0.4117
 8054TIP3    H145653   5.726   4.396  13.103 -1.0307 -1.3465  1.9356
 8054TIP3    H245654   5.813   4.277  13.137  0.1403 -1.7260 -2.0831
 8055TIP3   OH245655   1.923   5.762   3.213  0.5324 -0.4607  0.9972
 8055TIP3    H145656   1.911   5.856   3.226 -2.9359 -0.9436  1.7236
 8055TIP3    H245657   1.966   5.732   3.293  1.0068  0.3628  1.0566
 8056TIP3   OH245658   1.838   2.236  16.012  0.3227  0.1672  0.2197
 8056TIP3    H145659   1.881   2.273  16.089  0.5463  0.8534 -0.2293
 8056TIP3    H245660   1.749   2.216  16.040  0.0734  1.4608  0.3361
 8057TIP3   OH245661   3.398   4.620  15.172  0.4310  0.7456 -0.3259
 8057TIP3    H145662   3.457   4.653  15.103  1.6526 -1.9830 -0.6634
 8057TIP3    H245663   3.438   4.648  15.254  1.0756  0.7189 -0.6294
 8058TIP3   OH245664   4.986   5.519  14.124  0.3152 -0.5140  0.2870
 8058TIP3    H145665   4.923   5.446  14.119 -0.4059  0.1704 -0.9053
 8058TIP3    H245666   4.951   5.576  14.193  0.3430 -0.7930  0.5334
 8059TIP3   OH245667   3.625   2.621   5.406  0.3195 -0.0424  0.4092
 8059TIP3    H145668   3.630   2.533   5.368 -1.0647  0.5424 -1.1943
 8059TIP3    H245669   3.561   2.614   5.476  1.1813 -0.5928  1.1600
 8060TIP3   OH245670   2.040   5.528  12.477  0.2757 -0.0301 -0.7074
 8060TIP3    H145671   2.067   5.605  12.428 -1.6801  0.8768 -0.4043
 8060TIP3    H245672   1.957   5.553  12.518  1.3394 -1.0858  2.2638
 8061TIP3   OH245673   1.111   6.560  15.346 -0.2546 -0.9521 -0.3221
 8061TIP3    H145674   1.181   6.510  15.304 -1.0949 -0.7889 -1.9692
 8061TIP3    H245675   1.032   6.533  15.299 -0.6408  2.5544 -1.8554
 8062TIP3   OH245676   2.893   2.576   1.583 -1.0707 -0.2221  0.0540
 8062TIP3    H145677   2.933   2.637   1.521 -0.0395 -3.1909 -2.3395
 8062TIP3    H245678   2.799   2.586   1.569 -0.9631  1.5434  0.4548
 8063TIP3   OH245679   0.951   3.276  12.338  0.3435  0.1866 -0.1896
 8063TIP3    H145680   0.943   3.205  12.402 -1.0612  1.0104  0.5881
 8063TIP3    H245681   1.004   3.343  12.382  0.0417  0.4193 -0.1722
 8064TIP3   OH245682   1.240   4.776  12.039  0.7422  0.0466  0.2925
 8064TIP3    H145683   1.224   4.866  12.011 -0.6465  0.5121  2.4463
 8064TIP3    H245684   1.184   4.765  12.115 -0.7036 -3.3359 -1.1835
 8065TIP3   OH245685   1.657   3.941   1.559  0.7201 -0.1545 -0.3494
 8065TIP3    H145686   1.627   3.888   1.632 -0.1682  0.4213 -0.2936
 8065TIP3    H245687   1.742   3.976   1.588  0.9096 -0.8486 -0.0577
 8066TIP3   OH245688   2.826   4.849  13.137 -0.1902  0.6229  0.2760
 8066TIP3    H145689   2.852   4.925  13.085 -1.0309  1.2954  0.8392
 8066TIP3    H245690   2.895   4.839  13.202 -1.3152  2.3948  1.7569
 8067TIP3   OH245691   6.786   6.223   2.462 -0.1459 -0.0053  0.3537
 8067TIP3    H145692   6.834   6.200   2.541 -0.9762  0.0943  0.8968
 8067TIP3    H245693   6.795   6.318   2.455 -0.6614  0.0721  0.7214
 8068TIP3   OH245694   2.819   5.330  16.060  0.0641 -0.2011  0.1421
 8068TIP3    H145695   2.782   5.246  16.088 -0.1155  0.6410  2.4837
 8068TIP3    H245696   2.845   5.373  16.141  3.3698  0.5455 -1.2273
 8069TIP3   OH245697   3.962   3.296  13.131  0.0324  0.4253 -0.0121
 8069TIP3    H145698   4.041   3.340  13.100  0.3134 -0.1667 -0.1274
 8069TIP3    H245699   3.979   3.280  13.224  0.2435 -0.1356 -0.1482
 8070TIP3   OH245700   0.195   6.344   3.066 -0.6391  0.0517  0.1205
 8070TIP3    H145701   0.176   6.370   3.156 -0.8238 -0.4476  0.2287
 8070TIP3    H245702   0.139   6.399   3.012  0.0169  0.8764  0.2688
 8071TIP3   OH245703   1.214   5.350  13.211 -0.1706  0.0929  0.4629
 8071TIP3    H145704   1.146   5.351  13.278  1.2561  1.0510  1.9383
 8071TIP3    H245705   1.228   5.442  13.189 -1.2870 -0.2846 -1.8399
 8072TIP3   OH245706   3.793   4.916   1.694 -0.0062  0.5407  0.6945
 8072TIP3    H145707   3.868   4.975   1.692  0.8227 -0.5107  0.2993
 8072TIP3    H245708   3.759   4.918   1.605  0.6562 -0.3633  0.4112
 8073TIP3   OH245709   0.327   5.370  14.617  0.6614 -0.3506 -0.2843
 8073TIP3    H145710   0.372   5.302  14.668  2.5250  2.8133  2.4973
 8073TIP3    H245711   0.397   5.414  14.569 -0.3515  0.5313 -0.9567
 8074TIP3   OH245712   1.291   2.633   0.060  0.3201  0.1647  0.0418
 8074TIP3    H145713   1.382   2.614   0.082 -0.2137 -0.8261  1.4298
 8074TIP3    H245714   1.240   2.564   0.102 -1.0799  0.6750 -0.7614
 8075TIP3   OH245715   4.639   4.361   3.586  0.4850  0.5323  0.4795
 8075TIP3    H145716   4.663   4.269   3.594  0.2527  0.6272  2.4904
 8075TIP3    H245717   4.593   4.367   3.502  0.3627 -1.2074  0.4127
 8076TIP3   OH245718   5.208   1.564  12.453  0.2043  0.6276  0.4576
 8076TIP3    H145719   5.285   1.547  12.508  1.0165  3.3259  0.2510
 8076TIP3    H245720   5.170   1.644  12.490 -1.0249  0.7560 -1.0371
 8077TIP3   OH245721   1.594   5.165   0.050 -0.6184 -0.2585  0.3533
 8077TIP3    H145722   1.560   5.094  -0.005  3.1609 -2.2568  0.4491
 8077TIP3    H245723   1.621   5.232  -0.012  1.1665 -1.3887 -0.1279
 8078TIP3   OH245724   4.700   6.637  12.363  0.0162 -0.2917 -0.3660
 8078TIP3    H145725   4.751   6.565  12.402  1.7784  1.0143 -0.1879
 8078TIP3    H245726   4.656   6.678  12.437  1.8941  1.0386  0.0451
 8079TIP3   OH245727   2.020   5.644   1.334  0.1040  0.5070 -0.0274
 8079TIP3    H145728   2.078   5.601   1.398  1.9383  1.4499 -1.0084
 8079TIP3    H245729   2.071   5.645   1.253 -1.6507  0.6032 -1.1558
 8080TIP3   OH245730   6.279   5.887  17.005  0.4868 -0.4996  0.8553
 8080TIP3    H145731   6.237   5.963  17.047 -0.8063 -0.2860 -0.7557
 8080TIP3    H245732   6.353   5.925  16.958 -0.5861 -0.0975 -0.5513
 8081TIP3   OH245733   3.026   1.972   2.615  0.2996  0.3158  0.0186
 8081TIP3    H145734   3.030   1.889   2.568 -0.6787  0.4286 -0.2696
 8081TIP3    H245735   2.933   1.996   2.615  0.5656  1.3895  0.1353
 8082TIP3   OH245736   6.233   6.094  14.057 -0.1681  0.6387 -0.2679
 8082TIP3    H145737   6.182   6.065  13.981 -1.1510  0.5099  0.4298
 8082TIP3    H245738   6.276   6.014  14.089  0.5485  0.7588 -0.8933
 8083TIP3   OH245739   2.735   3.822   2.340 -0.3771 -0.1259  0.0359
 8083TIP3    H145740   2.651   3.818   2.293 -0.7441 -0.6265  0.7248
 8083TIP3    H245741   2.790   3.756   2.297 -0.7715 -0.7055  0.3999
 8084TIP3   OH245742   1.622   5.389  14.711 -0.2783  0.3883  0.2657
 8084TIP3    H145743   1.606   5.463  14.653  1.1633  0.9426  0.5406
 8084TIP3    H245744   1.637   5.429  14.797  0.7491 -0.1815  0.3688
 8085TIP3   OH245745   3.908   0.704  11.403  0.0071 -0.3580 -0.5130
 8085TIP3    H145746   3.838   0.648  11.369 -0.1904 -1.3657  1.4751
 8085TIP3    H245747   3.984   0.645  11.409  0.0312 -0.2223  0.7513
 8086TIP3   OH245748   3.949   4.666  14.976  0.0159 -0.2125  0.1328
 8086TIP3    H145749   3.942   4.600  15.045 -3.4881 -0.6184 -0.4684
 8086TIP3    H245750   3.946   4.750  15.023 -1.2911 -0.4924  0.5917
 8087TIP3   OH245751   4.173   2.694   3.778  0.4420  0.2089  0.0653
 8087TIP3    H145752   4.193   2.787   3.763 -0.1382  0.1525 -1.1201
 8087TIP3    H245753   4.080   2.686   3.757  0.5988 -0.7352 -0.2945
 8088TIP3   OH245754   2.767   4.648   1.016 -0.1976 -0.0769  0.4950
 8088TIP3    H145755   2.703   4.673   1.083 -2.8376  1.2491 -2.3854
 8088TIP3    H245756   2.728   4.678   0.933  2.0439 -3.2831 -1.8613
 8089TIP3   OH245757   1.478   2.534   4.652  0.5323  0.8989 -0.0387
 8089TIP3    H145758   1.438   2.451   4.628 -0.3427  1.8485 -1.9863
 8089TIP3    H245759   1.432   2.599   4.598  1.3009  2.6237  1.3238
 8090TIP3   OH245760   0.815   6.307   4.124  0.0137 -0.4541  0.6173
 8090TIP3    H145761   0.862   6.262   4.054 -1.3309  0.4239 -0.8681
 8090TIP3    H245762   0.744   6.248   4.148 -0.6088  0.0268 -0.0206
 8091TIP3   OH245763   0.027   2.068  11.969  0.2425 -0.5656 -0.0677
 8091TIP3    H145764   0.032   2.162  11.988  0.2612 -0.8041  1.2046
 8091TIP3    H245765   0.062   2.059  11.881 -0.6617  0.7446 -0.5822
 8092TIP3   OH245766   3.134   2.551   2.714 -0.1257 -0.5573 -0.5765
 8092TIP3    H145767   3.039   2.543   2.699 -0.3699 -2.4358  1.8142
 8092TIP3    H245768   3.167   2.588   2.632 -2.7434 -1.0990 -1.9542
 8093TIP3   OH245769   3.391   3.461   2.834  0.8902  0.4783  0.6091
 8093TIP3    H145770   3.390   3.556   2.842 -0.0130  0.4235  1.2488
 8093TIP3    H245771   3.471   3.441   2.786  1.2799  1.5347  0.8251
 8094TIP3   OH245772   0.537   5.069  14.360  0.7117  0.3489  0.5479
 8094TIP3    H145773   0.601   5.010  14.320  1.1063 -0.9515  3.0248
 8094TIP3    H245774   0.520   5.135  14.292  0.7871 -2.2005 -2.0260
 8095TIP3   OH245775   0.545   5.496  14.798 -0.2225 -0.0448 -0.6176
 8095TIP3    H145776   0.563   5.457  14.713 -0.2979  3.7874 -2.5038
 8095TIP3    H245777   0.629   5.535  14.825 -1.1719  2.2972 -0.9264
 8096TIP3   OH245778   5.578   0.478   0.941  0.5619  0.1275  0.7381
 8096TIP3    H145779   5.635   0.536   0.889 -0.2829 -0.5119 -0.9562
 8096TIP3    H245780   5.507   0.534   0.971 -0.8485 -0.1869 -1.8234
 8097TIP3   OH245781   5.832   4.539   0.672  0.5285  0.4702  0.8636
 8097TIP3    H145782   5.740   4.526   0.648  0.6782 -0.2412  0.6384
 8097TIP3    H245783   5.832   4.543   0.767  0.3927 -0.7467  0.9288
 8098TIP3   OH245784   2.511   6.587  14.201  0.1763  0.5836 -0.2657
 8098TIP3    H145785   2.424   6.626  14.214 -0.9493 -1.2176 -1.9941
 8098TIP3    H245786   2.546   6.630  14.123  0.2348  0.3532 -0.3689
 8099TIP3   OH245787   3.250   0.569   4.972 -0.3723  0.2879 -0.0197
 8099TIP3    H145788   3.322   0.534   5.025  0.4473  0.6591 -0.8801
 8099TIP3    H245789   3.194   0.615   5.035  1.5442  2.2677  0.3033
 8100TIP3   OH245790   5.956   4.387   1.175 -0.7307  0.1908 -0.2539
 8100TIP3    H145791   5.914   4.445   1.238 -0.4101 -1.6022  1.6610
 8100TIP3    H245792   5.901   4.308   1.175  0.9141 -0.9937  0.0346
 8101TIP3   OH245793   2.193   0.285   6.671  0.1961  0.0747 -0.4728
 8101TIP3    H145794   2.246   0.301   6.749  0.7434 -0.0958 -0.8003
 8101TIP3    H245795   2.232   0.206   6.631 -0.4251 -0.1634 -0.6155
 8102TIP3   OH245796   6.559   6.373  10.727 -0.1333  0.0468 -0.3978
 8102TIP3    H145797   6.607   6.330  10.656  0.7268 -0.5646  0.5417
 8102TIP3    H245798   6.519   6.301  10.775 -1.9848  0.5505 -1.1472
 8103TIP3   OH245799   6.112   6.506  17.225 -0.1612 -0.2047 -0.0775
 8103TIP3    H145800   6.051   6.486  17.296 -0.1993  0.3603  0.0509
 8103TIP3    H245801   6.087   6.446  17.155 -2.3707  1.5486 -0.8555
 8104TIP3   OH245802   1.628   5.177   2.429 -0.2634 -0.2396  0.5507
 8104TIP3    H145803   1.718   5.198   2.457  0.5798 -1.6243 -1.0035
 8104TIP3    H245804   1.639   5.140   2.341 -2.6446  1.9499 -0.6988
 8105TIP3   OH245805   0.055   0.232   4.247  0.2119 -0.3517  0.2290
 8105TIP3    H145806   0.070   0.312   4.196  0.3526 -1.0795 -0.9044
 8105TIP3    H245807   0.082   0.162   4.188 -3.0177 -1.4315 -0.0366
 8106TIP3   OH245808   2.268   2.945   4.400  0.4134  0.2636  0.0431
 8106TIP3    H145809   2.342   2.981   4.351  0.4062 -2.2129 -1.8917
 8106TIP3    H245810   2.222   3.022   4.434  1.6422  1.9776 -2.0536
 8107TIP3   OH245811   2.922   2.771   5.311  0.7057  0.5217  0.7901
 8107TIP3    H145812   2.914   2.788   5.217 -0.4600  0.0853  0.8082
 8107TIP3    H245813   3.015   2.785   5.330  0.7829  1.4829 -0.2541
 8108TIP3   OH245814   1.209   2.437  15.467  0.4832 -0.0658  0.0975
 8108TIP3    H145815   1.197   2.530  15.445  0.9621  0.1797  0.8413
 8108TIP3    H245816   1.295   2.434  15.508  1.7658 -1.3172 -2.5713
 8109TIP3   OH245817   6.437   1.050   1.688  0.5999  0.1467  0.2084
 8109TIP3    H145818   6.464   1.006   1.607  0.0063 -1.2437  0.7485
 8109TIP3    H245819   6.477   0.997   1.758  0.1521  0.6699  0.8642
 8110TIP3   OH245820   6.263   4.213  14.802 -0.6507  0.0395  0.6727
 8110TIP3    H145821   6.293   4.294  14.761 -0.5853 -0.3484 -0.0481
 8110TIP3    H245822   6.292   4.220  14.893 -1.6002  1.3183  0.8908
 8111TIP3   OH245823   0.475   3.629  16.179  0.2396 -0.0916 -0.0871
 8111TIP3    H145824   0.562   3.635  16.218  1.3517 -1.3259 -2.3409
 8111TIP3    H245825   0.420   3.594  16.250  2.3717 -2.9946  0.1862
 8112TIP3   OH245826   1.187   1.503   5.094 -0.2327 -0.3210 -0.3493
 8112TIP3    H145827   1.139   1.436   5.142 -0.9721  0.3424 -0.1499
 8112TIP3    H245828   1.182   1.475   5.002  1.9586 -2.0702  0.0312
 8113TIP3   OH245829   2.633   6.555   1.255 -0.4383 -0.5000  0.1906
 8113TIP3    H145830   2.662   6.641   1.285 -0.0135 -1.2280  1.9006
 8113TIP3    H245831   2.556   6.535   1.308 -2.4293  0.1348 -2.3056
 8114TIP3   OH245832   1.214   2.741   5.699  0.1593 -0.0006 -0.1553
 8114TIP3    H145833   1.227   2.689   5.620  0.5284  0.2133 -0.2344
 8114TIP3    H245834   1.280   2.810   5.694  1.6636 -1.2906  1.4648
 8115TIP3   OH245835   0.263   6.598  13.240 -0.7433  0.1471 -0.0018
 8115TIP3    H145836   0.357   6.585  13.251 -0.7465  1.7373  2.1939
 8115TIP3    H245837   0.225   6.511  13.249  0.4130 -0.3475  0.1854
 8116TIP3   OH245838   0.867   5.543  14.470 -0.1717  0.6992 -0.1150
 8116TIP3    H145839   0.956   5.530  14.436 -0.8050  0.3761 -1.6705
 8116TIP3    H245840   0.838   5.625  14.429 -0.9813  0.2505 -0.4376
 8117TIP3   OH245841   6.443   3.609   5.606  0.2606 -0.7873 -0.0496
 8117TIP3    H145842   6.509   3.661   5.652 -0.0042 -0.9355  0.5099
 8117TIP3    H245843   6.375   3.594   5.672  0.7410 -2.5939  0.0819
 8118TIP3   OH245844   6.406   0.550  14.673  0.4952 -0.2443 -0.3719
 8118TIP3    H145845   6.470   0.590  14.615 -0.3212  2.7005  0.6248
 8118TIP3    H245846   6.388   0.464  14.635  0.7357  1.1810 -3.8654
 8119TIP3   OH245847   3.465   2.168   2.916  0.0137  0.5261  0.6436
 8119TIP3    H145848   3.494   2.080   2.943 -1.0896 -0.1393 -0.2837
 8119TIP3    H245849   3.369   2.165   2.924  0.0269  1.9218  1.3976
 8120TIP3   OH245850   5.853   4.018  14.974 -0.2606  0.0332  0.2410
 8120TIP3    H145851   5.924   3.969  14.932 -0.9232  0.2425 -1.1250
 8120TIP3    H245852   5.859   4.106  14.938 -1.2181  0.0571  0.1222
 8121TIP3   OH245853   1.365   2.017   3.803 -0.6159  0.7815  0.3457
 8121TIP3    H145854   1.316   2.009   3.885 -1.3447 -0.5984 -0.2049
 8121TIP3    H245855   1.311   1.972   3.738  0.3048  1.2202 -0.7490
 8122TIP3   OH245856   5.725   0.620   5.138 -0.1702  0.3587 -0.2239
 8122TIP3    H145857   5.704   0.600   5.229 -1.2237 -0.4556 -0.6433
 8122TIP3    H245858   5.782   0.697   5.144  0.5934 -0.2825  1.1750
 8123TIP3   OH245859   6.255   1.298  16.505 -0.6754 -0.0717 -0.1010
 8123TIP3    H145860   6.281   1.246  16.429  0.4829 -1.2017  1.0484
 8123TIP3    H245861   6.280   1.388  16.483  0.1934 -0.4827 -0.8131
 8124TIP3   OH245862   4.968   5.870   1.816 -0.2231 -0.1253 -0.1895
 8124TIP3    H145863   4.923   5.942   1.861 -0.9705 -0.2616 -0.6978
 8124TIP3    H245864   5.061   5.886   1.830 -0.2748  2.1131 -2.0492
 8125TIP3   OH245865   1.249   6.704   5.325 -0.5098 -0.4531  0.7655
 8125TIP3    H145866   1.312   6.634   5.315  0.3203  0.0417  2.3936
 8125TIP3    H245867   1.272   6.768   5.257 -0.1212 -0.8971  0.4830
 8126TIP3   OH245868   0.597   2.782  15.353  0.3997 -0.1360  0.5772
 8126TIP3    H145869   0.669   2.751  15.407  1.0541  3.8137  2.1098
 8126TIP3    H245870   0.636   2.848  15.296 -1.4261 -0.1574 -0.7516
 8127TIP3   OH245871   3.431   3.803   2.321 -0.0896 -0.0623  0.2153
 8127TIP3    H145872   3.399   3.862   2.252  0.3415 -0.1903 -0.0926
 8127TIP3    H245873   3.508   3.847   2.356 -0.9625  0.5609  1.4066
 8128TIP3   OH245874   2.034   3.378  11.356  0.0585  0.0764 -0.1161
 8128TIP3    H145875   2.121   3.357  11.323  0.0182  0.5445 -0.5296
 8128TIP3    H245876   1.975   3.318  11.310  0.2037 -0.5462  0.4917
 8129TIP3   OH245877   0.272   5.430   2.849 -0.2349  0.0582 -0.1016
 8129TIP3    H145878   0.347   5.397   2.899  0.9955  0.0466 -1.8834
 8129TIP3    H245879   0.196   5.398   2.896  0.9069 -1.5038  0.7387
 8130TIP3   OH245880   0.642   1.085   4.189 -0.5315 -0.1144 -0.3272
 8130TIP3    H145881   0.627   1.001   4.232 -3.1230  0.5959  0.1869
 8130TIP3    H245882   0.687   1.138   4.254  1.3700 -1.1345 -0.7431
 8131TIP3   OH245883   5.959   5.821  13.330 -0.4767 -0.4085  0.3188
 8131TIP3    H145884   5.915   5.801  13.413 -2.4327 -1.2241 -0.8658
 8131TIP3    H245885   5.936   5.912  13.312 -1.0355 -0.5836  0.1173
 8132TIP3   OH245886   2.560   0.761  13.533 -0.2197  0.2769 -0.4452
 8132TIP3    H145887   2.636   0.703  13.537 -0.0528  0.5053 -0.2543
 8132TIP3    H245888   2.500   0.719  13.471  0.1891  0.2445 -0.8192
 8133TIP3   OH245889   3.766   0.654  13.535 -0.3102  0.4166 -0.0904
 8133TIP3    H145890   3.677   0.622  13.544 -0.2522 -0.0679 -1.1074
 8133TIP3    H245891   3.777   0.668  13.441  0.9598 -0.3469 -0.0750
 8134TIP3   OH245892   3.602   3.462   0.702 -0.5896 -0.3021  0.3046
 8134TIP3    H145893   3.542   3.511   0.646 -1.3896  0.5229  1.8428
 8134TIP3    H245894   3.553   3.385   0.729 -0.2742 -0.6010  0.0281
 8135TIP3   OH245895   3.524   5.716   1.025 -0.3105  0.1919 -0.2200
 8135TIP3    H145896   3.518   5.710   0.929  1.0262  0.7306 -0.3485
 8135TIP3    H245897   3.611   5.752   1.041 -0.0374 -1.1099  1.2566
 8136TIP3   OH245898   5.489   1.869   0.870 -0.2550  0.0499 -0.7247
 8136TIP3    H145899   5.555   1.922   0.826  0.2395  0.5462  0.5856
 8136TIP3    H245900   5.538   1.796   0.908 -0.7157 -0.5376 -1.2467
 8137TIP3   OH245901   5.567   2.021   5.308  0.4350 -0.1703 -0.1769
 8137TIP3    H145902   5.658   2.050   5.312  0.2132  0.3308  1.6187
 8137TIP3    H245903   5.559   1.959   5.381 -0.8142  0.2509  0.0562
 8138TIP3   OH245904   2.533   5.957   4.485 -0.2868  0.1091 -0.3475
 8138TIP3    H145905   2.546   6.037   4.434 -2.2232  0.6101 -0.0676
 8138TIP3    H245906   2.519   5.889   4.419  1.8928 -0.1383 -0.6053
 8139TIP3   OH245907   2.974   2.511  13.906  0.5045 -0.0473  0.0459
 8139TIP3    H145908   3.024   2.523  13.825  0.3272 -0.6401 -0.1602
 8139TIP3    H245909   3.039   2.481  13.970  1.0270  2.3183  0.6779
 8140TIP3   OH245910   4.588   5.184   4.883 -0.2624  0.3377 -0.2862
 8140TIP3    H145911   4.521   5.250   4.869  0.3413  1.1541  0.5971
 8140TIP3    H245912   4.606   5.187   4.977  0.4361 -0.4337 -0.3832
 8141TIP3   OH245913   6.004   1.313  11.798  0.0247  0.1674 -0.1450
 8141TIP3    H145914   6.085   1.357  11.775  0.1371 -0.4113 -0.8795
 8141TIP3    H245915   6.010   1.227  11.757 -0.5533 -0.2308  0.5710
 8142TIP3   OH245916   3.016   4.558  15.247 -0.2851 -0.3045  0.3434
 8142TIP3    H145917   3.106   4.586  15.234 -0.2206  0.1796  1.7167
 8142TIP3    H245918   3.003   4.563  15.342 -1.7009 -0.5260  0.1714
 8143TIP3   OH245919   2.922   3.888  16.255 -0.3695  0.3228 -0.2023
 8143TIP3    H145920   2.847   3.861  16.309 -0.1818 -0.3453 -0.2679
 8143TIP3    H245921   2.943   3.976  16.285 -1.1004  0.4613 -0.0901
 8144TIP3   OH245922   2.458   1.931   6.934  0.4060  0.2608  0.3637
 8144TIP3    H145923   2.526   1.898   6.994  0.5942 -0.2465 -0.1164
 8144TIP3    H245924   2.465   1.874   6.858  0.2489  0.9830 -0.1914
 8145TIP3   OH245925   4.705   2.580  11.522  0.0192 -0.4080 -0.0535
 8145TIP3    H145926   4.771   2.560  11.454 -0.3076 -0.5887 -0.3205
 8145TIP3    H245927   4.729   2.667  11.553  1.4029 -1.1560  1.0373
 8146TIP3   OH245928   2.399   3.467   0.251 -0.3046 -0.0841 -0.5988
 8146TIP3    H145929   2.397   3.562   0.256  0.0649  0.0055 -1.9057
 8146TIP3    H245930   2.457   3.448   0.177  0.4950 -1.3466  0.3112
 8147TIP3   OH245931   0.880   6.807  10.521 -1.1250 -0.6236 -0.4490
 8147TIP3    H145932   0.975   6.810  10.504 -0.9323 -0.0753  0.7389
 8147TIP3    H245933   0.868   6.726  10.571 -1.3490 -0.8876 -0.9213
 8148TIP3   OH245934   6.068   0.500   5.443 -0.4770 -0.1553  1.0678
 8148TIP3    H145935   6.008   0.536   5.509 -0.3667  0.0201  1.0728
 8148TIP3    H245936   6.142   0.468   5.495 -0.6870 -0.6139  1.0826
 8149TIP3   OH245937   1.137   2.519  12.713  0.7438  0.2854 -0.1317
 8149TIP3    H145938   1.125   2.581  12.785 -0.4061  0.2537 -0.2945
 8149TIP3    H245939   1.202   2.562  12.657  0.1208  1.2558 -0.1281
 8150TIP3   OH245940   5.079   1.310   0.691  0.5965 -0.0838  0.0177
 8150TIP3    H145941   5.019   1.283   0.621  1.4898 -0.2255 -0.7065
 8150TIP3    H245942   5.099   1.402   0.671 -0.3248  0.3237  0.9467
 8151TIP3   OH245943   6.267   6.632  11.044 -0.2773  0.5984 -0.3176
 8151TIP3    H145944   6.316   6.556  11.014 -1.3190 -1.1474  2.2247
 8151TIP3    H245945   6.280   6.697  10.975  2.8371 -0.9229 -1.2981
 8152TIP3   OH245946   4.501   1.545  11.864  0.6224 -0.2500 -0.0368
 8152TIP3    H145947   4.409   1.518  11.855  1.6118 -4.1697  0.8059
 8152TIP3    H245948   4.505   1.591  11.948 -0.1437 -2.1195  1.0436
 8153TIP3   OH245949   0.566   2.877  15.738 -0.2861  0.1851  0.2836
 8153TIP3    H145950   0.643   2.876  15.681  1.3977 -1.7594  2.4501
 8153TIP3    H245951   0.504   2.819  15.696  0.7378 -0.8310  0.1549
 8154TIP3   OH245952   0.307   1.148  11.425 -0.1198 -0.4606 -0.2093
 8154TIP3    H145953   0.216   1.135  11.450  0.0632  0.6507  1.1108
 8154TIP3    H245954   0.306   1.148  11.330 -1.4197 -0.9984 -0.2022
 8155TIP3   OH245955   4.083   2.584  11.733 -0.1543 -0.3408  0.6421
 8155TIP3    H145956   4.145   2.561  11.802  0.2113  2.7029  1.3595
 8155TIP3    H245957   4.136   2.619  11.662 -0.8466  0.1294  0.3451
 8156TIP3   OH245958   2.559   2.868  11.712 -0.7716  0.0229 -0.3428
 8156TIP3    H145959   2.511   2.788  11.733  0.0506 -0.7656 -1.3548
 8156TIP3    H245960   2.510   2.939  11.753 -1.3931 -1.0356  0.7336
 8157TIP3   OH245961   2.814   1.971  13.059  0.0104 -0.2118 -0.0742
 8157TIP3    H145962   2.818   2.060  13.026 -2.5454  0.4234  1.1880
 8157TIP3    H245963   2.878   1.969  13.131  0.3939  0.4723 -0.3998
 8158TIP3   OH245964   3.256   6.584  14.744 -0.0515 -0.1246  0.5781
 8158TIP3    H145965   3.303   6.500  14.738 -1.4046 -1.0071  1.9165
 8158TIP3    H245966   3.177   6.563  14.795 -0.0952  2.1116  1.4607
 8159TIP3   OH245967   5.689   1.859  14.679 -0.5284 -0.1911 -0.0637
 8159TIP3    H145968   5.715   1.789  14.739  0.3793 -0.4145 -0.7043
 8159TIP3    H245969   5.606   1.891  14.714  0.1192 -0.1300  1.4720
 8160TIP3   OH245970   1.293   4.311  15.881 -0.6538  0.3728 -0.3012
 8160TIP3    H145971   1.289   4.396  15.837  0.7795  0.8462  0.4432
 8160TIP3    H245972   1.290   4.247  15.810  0.6317  1.1074 -1.0420
 8161TIP3   OH245973   3.183   0.938   0.103 -0.3544 -0.0693  0.0235
 8161TIP3    H145974   3.196   0.851   0.064 -0.1782  0.1566 -0.4323
 8161TIP3    H245975   3.143   0.920   0.188  1.5875 -0.7223  0.8287
 8162TIP3   OH245976   6.737   3.102  11.989  0.3690  0.5404  0.3791
 8162TIP3    H145977   6.755   3.057  12.072  1.0756 -1.1453 -0.6481
 8162TIP3    H245978   6.716   3.031  11.929 -1.6714  1.8556 -0.5229
 8163TIP3   OH245979   0.965   0.510  14.676 -0.7180 -0.5238  0.1003
 8163TIP3    H145980   0.929   0.597  14.694  0.0804 -0.3097  0.7168
 8163TIP3    H245981   0.892   0.460  14.640 -0.4105  1.3057 -3.1921
 8164TIP3   OH245982   6.023   6.755  12.146  0.4293 -0.3404 -0.2039
 8164TIP3    H145983   6.067   6.840  12.136  0.0902 -0.3304 -1.7375
 8164TIP3    H245984   5.960   6.769  12.217  1.9604  0.0276  1.1114
 8165TIP3   OH245985   2.882   1.196  15.547  0.0492 -0.3262 -0.2904
 8165TIP3    H145986   2.964   1.206  15.498  0.6236 -1.3334  0.4322
 8165TIP3    H245987   2.911   1.169  15.635 -1.0004  0.5368  0.3323
 8166TIP3   OH245988   2.271   4.745   4.206  0.0921 -0.8953 -0.0229
 8166TIP3    H145989   2.298   4.725   4.296  1.2777 -1.0911 -0.4176
 8166TIP3    H245990   2.179   4.719   4.203  0.1015 -1.1103  1.0644
 8167TIP3   OH245991   2.548   6.023   1.839 -0.1769  0.3791 -0.0992
 8167TIP3    H145992   2.632   6.024   1.885  0.1766  1.5538 -0.7767
 8167TIP3    H245993   2.526   6.115   1.826 -1.0997  0.0688 -0.7958
 8168TIP3   OH245994   0.411   6.281   1.111  0.2078 -1.0317 -0.0527
 8168TIP3    H145995   0.397   6.368   1.073 -1.4193 -1.1103  0.3204
 8168TIP3    H245996   0.369   6.221   1.049 -2.4122 -1.1657  1.7683
 8169TIP3   OH245997   3.633   0.417  15.670 -0.7695 -0.0487  0.5887
 8169TIP3    H145998   3.725   0.428  15.649 -0.7968 -0.3862  0.2942
 8169TIP3    H245999   3.608   0.498  15.715 -0.0130 -0.4651  1.7727
 8170TIP3   OH246000   5.306   4.441   1.112 -0.6262  0.0708 -0.0979
 8170TIP3    H146001   5.391   4.429   1.068 -1.5533  1.0624 -2.2575
 8170TIP3    H246002   5.245   4.390   1.059 -1.7802  1.2643  0.0758
 8171TIP3   OH246003   1.449   0.117   0.777  0.5994  0.0865  0.1355
 8171TIP3    H146004   1.497   0.072   0.708 -0.0111 -1.3762  0.6467
 8171TIP3    H246005   1.506   0.110   0.854  0.8242  0.8277  0.0426
 8172TIP3   OH246006   0.056   4.769   3.152  0.0847  0.0769  0.0296
 8172TIP3    H146007   0.137   4.790   3.199  0.3029  1.0355 -0.7624
 8172TIP3    H246008   0.004   4.849   3.157  0.1000  0.1727 -1.3282
 8173TIP3   OH246009   3.703   5.576  17.270  0.1088  0.1186  0.1593
 8173TIP3    H146010   3.628   5.518  17.283 -1.0734  1.5486 -0.1071
 8173TIP3    H246011   3.750   5.538  17.196 -0.5007 -0.6544  0.1605
 8174TIP3   OH246012   4.516   1.611  14.329  0.2009 -0.4886 -0.4881
 8174TIP3    H146013   4.490   1.579  14.415  1.3553  0.9921  0.4353
 8174TIP3    H246014   4.568   1.539  14.292 -0.0617 -1.0226  0.1644
 8175TIP3   OH246015   4.971   3.143   2.107  0.2766  0.7411  0.6035
 8175TIP3    H146016   4.980   3.208   2.177  0.3720  0.9139  0.4323
 8175TIP3    H246017   4.877   3.136   2.093  0.1432 -0.7300  2.0789
 8176TIP3   OH246018   2.591   4.176   2.500 -0.4055 -0.2320 -0.0165
 8176TIP3    H146019   2.615   4.187   2.408 -0.3631  0.0583  0.0288
 8176TIP3    H246020   2.547   4.257   2.523  0.0228 -0.1012  0.3558
 8177TIP3   OH246021   0.516   6.631   0.307 -0.1396 -0.2287  0.0261
 8177TIP3    H146022   0.548   6.541   0.315 -0.9900 -0.4454  1.1069
 8177TIP3    H246023   0.486   6.654   0.395 -2.5292  0.1271 -0.8498
 8178TIP3   OH246024   1.234   3.286   4.137 -0.1362 -0.1902 -0.6331
 8178TIP3    H146025   1.156   3.232   4.143 -1.1628  1.2514 -0.8316
 8178TIP3    H246026   1.210   3.369   4.179  0.6391  0.9621 -2.3780
 8179TIP3   OH246027   2.560   4.045  15.353  0.4322  0.2267 -0.3560
 8179TIP3    H146028   2.582   4.059  15.260  1.3652  0.8177 -0.0580
 8179TIP3    H246029   2.584   3.954  15.369  2.2714  0.7239 -0.1669
 8180TIP3   OH246030   5.493   1.797   2.579 -0.2219 -0.0371  0.1203
 8180TIP3    H146031   5.570   1.820   2.528  1.3439 -0.8801  2.0283
 8180TIP3    H246032   5.509   1.836   2.665 -2.1196  0.0958  0.4437
 8181TIP3   OH246033   1.637   5.947   3.186  0.2050 -0.1260 -0.5192
 8181TIP3    H146034   1.720   5.974   3.224 -0.0667 -1.0792  0.7738
 8181TIP3    H246035   1.574   5.956   3.257 -1.3347  3.0618 -2.1570
 8182TIP3   OH246036   0.848   0.766  13.413  0.3647  0.5410  0.3663
 8182TIP3    H146037   0.857   0.671  13.407 -3.4505  0.0644  0.4097
 8182TIP3    H246038   0.786   0.788  13.344  0.0385  2.7913  1.3270
 8183TIP3   OH246039   6.292   3.947  11.972 -0.3590 -0.3501  0.4635
 8183TIP3    H146040   6.274   3.990  11.888 -0.2372 -0.0394  0.5947
 8183TIP3    H246041   6.346   4.009  12.019  0.4968 -0.9949  0.3384
 8184TIP3   OH246042   5.048   6.048  10.739  0.2298  0.1358 -0.3436
 8184TIP3    H146043   4.978   6.011  10.793 -0.8941  0.5916 -1.4587
 8184TIP3    H246044   5.062   6.135  10.775 -0.2000  0.2685 -0.4918
 8185TIP3   OH246045   6.818   4.190   5.383 -0.0078 -0.1909 -0.6060
 8185TIP3    H146046   6.856   4.106   5.357 -1.3390 -1.7455  2.2455
 8185TIP3    H246047   6.890   4.237   5.426 -0.5962 -2.2054  2.7573
 8186TIP3   OH246048   2.632   2.049   1.785  0.5174 -0.6819 -0.0975
 8186TIP3    H146049   2.713   2.098   1.771  0.8848 -0.9511  0.9809
 8186TIP3    H246050   2.568   2.092   1.730  1.0899  0.3747  0.0454
 8187TIP3   OH246051   3.329   5.148   5.429  0.7742  0.1803 -0.0812
 8187TIP3    H146052   3.331   5.135   5.334  1.1154  0.6287 -0.1405
 8187TIP3    H246053   3.280   5.074   5.463 -1.8193  1.4953 -0.8631
 8188TIP3   OH246054   4.919   3.833  11.762  0.0660  0.2743 -0.3481
 8188TIP3    H146055   5.002   3.835  11.714 -0.1855  1.3492 -0.7451
 8188TIP3    H246056   4.865   3.771  11.713  0.9336 -1.1306  0.4336
 8189TIP3   OH246057   0.106   3.126  14.463  0.0890 -0.0304 -0.4684
 8189TIP3    H146058   0.186   3.163  14.426  0.7822  0.5643  1.5584
 8189TIP3    H246059   0.052   3.202  14.485 -0.9964 -0.4238 -1.7201
 8190TIP3   OH246060   2.899   0.703  16.586  0.2089  0.1122 -0.2890
 8190TIP3    H146061   2.903   0.660  16.500  0.9447  0.6872 -0.5469
 8190TIP3    H246062   2.980   0.675  16.630 -1.5311 -2.5300  1.3601
 8191TIP3   OH246063   3.992   2.199  14.253  0.0030  0.2404 -0.2802
 8191TIP3    H146064   4.058   2.254  14.296 -0.8291 -0.7130  2.3371
 8191TIP3    H246065   4.043   2.141  14.196  1.1992  1.1319 -0.1410
 8192TIP3   OH246066   0.936   6.747  13.527  0.0399  0.0924  0.9040
 8192TIP3    H146067   1.006   6.703  13.575  1.0838  0.1186 -0.5440
 8192TIP3    H246068   0.973   6.764  13.440 -1.3463  1.2088  0.4968
 8193TIP3   OH246069   0.820   2.071  14.144  0.0459  0.2688  0.0043
 8193TIP3    H146070   0.788   2.155  14.114 -0.8124  0.1715  0.6221
 8193TIP3    H246071   0.763   2.007  14.102  1.0200 -0.0353 -0.8740
 8194TIP3   OH246072   0.529   2.270   2.882 -0.3914  0.7531 -0.2488
 8194TIP3    H146073   0.554   2.280   2.974 -1.6902  1.1959  0.0641
 8194TIP3    H246074   0.446   2.318   2.874 -0.7546 -0.0470 -1.4275
 8195TIP3   OH246075   6.531   1.725   1.207  0.1294 -0.2121 -0.2531
 8195TIP3    H146076   6.590   1.799   1.193 -1.1743  0.4680 -2.4396
 8195TIP3    H246077   6.571   1.653   1.157 -0.6343  0.1324 -1.3849
 8196TIP3   OH246078   4.546   5.878   6.150  0.7796 -0.3837 -0.4102
 8196TIP3    H146079   4.581   5.853   6.236 -0.4185  0.9345  0.4717
 8196TIP3    H246080   4.620   5.920   6.106  1.2828 -0.6988  0.1213
 8197TIP3   OH246081   1.667   4.670   4.801 -0.3159  0.0811  0.2771
 8197TIP3    H146082   1.747   4.702   4.843  0.9524 -0.3824 -1.7193
 8197TIP3    H246083   1.615   4.749   4.786  0.5581  0.6235  0.0115
 8198TIP3   OH246084   2.303   6.421   3.294  0.1112  0.0025  0.1795
 8198TIP3    H146085   2.292   6.329   3.316  1.5402 -0.2099  0.1044
 8198TIP3    H246086   2.264   6.469   3.367  0.9333 -0.6724  1.0746
 8199TIP3   OH246087   0.895   0.773   2.036  0.1962 -0.0642 -0.0777
 8199TIP3    H146088   0.822   0.714   2.056 -0.1695  1.0109  1.9151
 8199TIP3    H246089   0.884   0.846   2.097  1.9884  0.9291 -0.9037
 8200TIP3   OH246090   4.761   5.226   0.981 -0.3758 -0.9150 -0.2110
 8200TIP3    H146091   4.811   5.268   0.912 -1.4710 -0.0178 -0.4777
 8200TIP3    H246092   4.802   5.256   1.062  0.0372 -0.8549 -0.4434
 8201TIP3   OH246093   4.813   3.777  16.237  0.1450 -0.0094  0.5221
 8201TIP3    H146094   4.792   3.807  16.149 -2.8924 -1.9351  0.4846
 8201TIP3    H246095   4.811   3.856  16.291  0.0703  0.9082 -0.8158
 8202TIP3   OH246096   0.445   4.042   5.062 -0.6455 -0.2525  0.0862
 8202TIP3    H146097   0.350   4.048   5.072 -0.5627 -0.2986  0.9725
 8202TIP3    H246098   0.472   3.976   5.126  0.2326  1.3561  1.4289
 8203TIP3   OH246099   0.291   6.543   2.826 -0.1437 -0.7981  0.3756
 8203TIP3    H146100   0.307   6.459   2.782 -1.2709 -1.0922  0.5079
 8203TIP3    H246101   0.198   6.541   2.849 -0.1610  0.4527  0.4662
 8204TIP3   OH246102   2.705   2.536   1.013 -0.8212  0.5803  0.2272
 8204TIP3    H146103   2.767   2.545   1.085 -0.9387 -0.4661  0.4663
 8204TIP3    H246104   2.630   2.490   1.051 -0.8795  0.0057 -0.5524
 8205TIP3   OH246105   1.912   0.835   1.602  0.3024  0.2589 -0.7264
 8205TIP3    H146106   1.960   0.878   1.672 -1.3483 -1.0890  1.3061
 8205TIP3    H246107   1.820   0.853   1.621 -0.4195 -3.5416 -0.1431
 8206TIP3   OH246108   4.416   1.622  13.980  0.2940 -0.2994  0.1717
 8206TIP3    H146109   4.451   1.534  13.965  0.8129 -0.1541  0.4948
 8206TIP3    H246110   4.345   1.631  13.917  1.2261 -0.3822 -0.9189
 8207TIP3   OH246111   5.976   1.152   5.716 -0.3923  0.0290  0.4796
 8207TIP3    H146112   5.887   1.179   5.692  0.3767  1.9678 -0.2884
 8207TIP3    H246113   5.993   1.195   5.800 -0.6172 -1.3619  1.2619
 8208TIP3   OH246114   4.154   0.204  12.296 -0.4585 -0.6052 -0.3036
 8208TIP3    H146115   4.203   0.154  12.231 -0.7857 -0.7813 -0.4201
 8208TIP3    H246116   4.072   0.155  12.306 -1.0011  0.1990 -0.8069
 8209TIP3   OH246117   3.412   5.391   5.796 -0.4096 -0.0666 -0.2854
 8209TIP3    H146118   3.497   5.348   5.803 -0.6694 -0.8020 -1.5166
 8209TIP3    H246119   3.431   5.484   5.808  0.4300 -0.3249  0.4077
 8210TIP3   OH246120   5.630   5.178  10.836 -0.4999  0.4011 -0.3640
 8210TIP3    H146121   5.536   5.195  10.838 -0.6689 -0.4086 -1.3678
 8210TIP3    H246122   5.662   5.231  10.763 -0.2310  0.4251 -0.2285
 8211TIP3   OH246123   5.931   3.677  14.962  0.0171  0.7841 -0.1865
 8211TIP3    H146124   5.997   3.743  14.940  1.9808 -1.3779 -0.9214
 8211TIP3    H246125   5.863   3.689  14.896  0.4166  1.9546 -0.4069
 8212TIP3   OH246126   0.272   0.554  11.722  0.0852 -0.3864  0.1345
 8212TIP3    H146127   0.233   0.474  11.757  0.0816 -1.6760 -2.6560
 8212TIP3    H246128   0.286   0.535  11.629  1.5862  2.2908 -0.2412
 8213TIP3   OH246129   4.585   6.169  15.045 -0.1450  0.1090  0.0485
 8213TIP3    H146130   4.542   6.209  15.120  0.3176  0.0670  0.3384
 8213TIP3    H246131   4.679   6.174  15.066 -0.0679 -0.7803 -0.0890
 8214TIP3   OH246132   3.046   3.688   0.055  0.8396  0.0498  0.3152
 8214TIP3    H146133   3.078   3.771   0.020  2.7753 -0.5837  0.5678
 8214TIP3    H246134   3.019   3.638  -0.022  0.1986  0.6688  0.1231
 8215TIP3   OH246135   2.885   0.392  12.233  0.3395 -0.3862 -0.2305
 8215TIP3    H146136   2.980   0.380  12.229  0.4532  0.3084  0.3254
 8215TIP3    H246137   2.871   0.482  12.205 -0.0294 -0.0454  1.0039
 8216TIP3   OH246138   6.354   1.621  17.184  0.6758  0.1707 -0.0999
 8216TIP3    H146139   6.319   1.538  17.151 -0.0314  0.8725 -1.1803
 8216TIP3    H246140   6.289   1.651  17.248 -0.4634  1.1933 -1.6889
 8217TIP3   OH246141   4.012   4.120   1.426 -0.7650  0.1529 -0.2680
 8217TIP3    H146142   4.017   4.101   1.333 -0.4738 -1.5836  0.0726
 8217TIP3    H246143   4.102   4.108   1.458 -1.1654 -0.9067  0.5061
 8218TIP3   OH246144   1.705   6.190   5.668 -0.0893 -0.1668  0.3324
 8218TIP3    H146145   1.782   6.151   5.628 -0.4163  0.0133 -0.4720
 8218TIP3    H246146   1.717   6.284   5.659 -0.9035 -0.1576 -0.7559
 8219TIP3   OH246147   5.559   3.198  11.738  0.0654 -0.5854  0.2074
 8219TIP3    H146148   5.631   3.137  11.720  1.0701  0.7973 -0.5901
 8219TIP3    H246149   5.483   3.158  11.695  0.7030 -1.2911 -0.2868
 8220TIP3   OH246150   4.984   6.070  16.564 -0.0847  0.3413 -0.2024
 8220TIP3    H146151   5.028   6.094  16.482  0.9902  0.3489  0.3628
 8220TIP3    H246152   4.940   6.150  16.591  0.3157  0.6000 -0.3030
 8221TIP3   OH246153   4.843   5.882   5.477 -0.1288  0.2027  0.3592
 8221TIP3    H146154   4.896   5.886   5.556  1.8850  1.7468 -1.0194
 8221TIP3    H246155   4.901   5.846   5.410 -1.7688 -1.0042 -0.4743
 8222TIP3   OH246156   0.561   1.621   1.098  0.1186  0.6157 -0.2284
 8222TIP3    H146157   0.488   1.577   1.142  0.0801  0.0332 -0.8621
 8222TIP3    H246158   0.525   1.706   1.072 -0.4354  0.2201 -0.7897
 8223TIP3   OH246159   5.436   3.935  14.542 -0.0220  0.3456 -0.2061
 8223TIP3    H146160   5.341   3.923  14.550  0.1790  0.2886  2.6462
 8223TIP3    H246161   5.462   3.871  14.475 -1.9617  0.2096 -0.8652
 8224TIP3   OH246162   0.093   0.944  13.042  0.3940  0.0958  0.0589
 8224TIP3    H146163   0.145   0.962  13.121 -0.4954 -1.3358  1.0037
 8224TIP3    H246164   0.009   0.987  13.059  0.6036  0.7878 -0.6316
 8225TIP3   OH246165   4.772   1.733  10.684  0.5885  0.4886 -0.7236
 8225TIP3    H146166   4.794   1.757  10.593 -0.2229  1.4306 -0.6694
 8225TIP3    H246167   4.703   1.793  10.709  0.6720  0.0976  0.4707
 8226TIP3   OH246168   0.659   4.255   1.339 -0.4696 -0.5687  0.1576
 8226TIP3    H146169   0.572   4.291   1.352  0.9479  3.7519 -1.5081
 8226TIP3    H246170   0.714   4.302   1.402  1.3542 -0.0709 -1.7271
 8227TIP3   OH246171   5.047   2.123   0.824 -0.3810 -0.0660  0.4900
 8227TIP3    H146172   5.122   2.071   0.852  0.2949 -0.5117 -2.0378
 8227TIP3    H246173   4.972   2.079   0.864  0.2854 -2.3559 -0.7034
 8228TIP3   OH246174   1.878   2.288   2.688 -0.6279  0.9504  0.6133
 8228TIP3    H146175   1.898   2.358   2.626 -0.3191  1.2221  1.0118
 8228TIP3    H246176   1.830   2.332   2.759 -1.1025  0.6186  0.4956
 8229TIP3   OH246177   4.466   3.824  13.489 -0.1025 -0.2434  0.4372
 8229TIP3    H146178   4.440   3.853  13.576 -0.4182 -1.1789  0.6646
 8229TIP3    H246179   4.387   3.835  13.436  0.3373  1.1617  0.0477
 8230TIP3   OH246180   4.785   4.180  16.733 -0.4939  0.8659  0.1697
 8230TIP3    H146181   4.817   4.145  16.649  0.7816  1.9228  0.2047
 8230TIP3    H246182   4.733   4.109  16.770 -1.3539  0.4841 -1.6620
 8231TIP3   OH246183   4.133   0.200  16.507  0.1750 -0.5792  0.3490
 8231TIP3    H146184   4.211   0.145  16.499  0.8561  0.4596 -0.4652
 8231TIP3    H246185   4.092   0.197  16.420 -0.2206 -0.4478  0.5283
 8232TIP3   OH246186   1.652   4.252  13.037  0.6502 -0.1131  0.2877
 8232TIP3    H146187   1.740   4.271  13.071  1.0000  0.0233 -0.6649
 8232TIP3    H246188   1.640   4.315  12.966 -0.0358 -0.4423  0.1062
 8233TIP3   OH246189   5.497   3.001   1.677  0.0694  0.0371 -0.5785
 8233TIP3    H146190   5.524   2.911   1.663 -1.0762 -0.2774 -0.7939
 8233TIP3    H246191   5.494   3.039   1.589  2.3784  0.8362 -0.3526
 8234TIP3   OH246192   1.559   3.486  12.702  0.0294 -0.4281  0.2119
 8234TIP3    H146193   1.585   3.417  12.642  0.5421 -0.5339  0.5523
 8234TIP3    H246194   1.639   3.508  12.750  0.0626  0.9583 -0.4556
 8235TIP3   OH246195   0.739   4.004   0.289  0.2820  0.3060  0.0948
 8235TIP3    H146196   0.675   3.997   0.218 -0.3702  2.8745  0.3798
 8235TIP3    H246197   0.776   3.916   0.296  0.5879  0.0245 -3.6095
 8236TIP3   OH246198   5.375   2.699   4.456  0.0041 -0.0618  0.0423
 8236TIP3    H146199   5.469   2.686   4.456 -0.0304 -0.4087 -1.4886
 8236TIP3    H246200   5.346   2.667   4.541  1.4351  1.4099  1.1073
 8237TIP3   OH246201   1.962   5.238   6.047 -0.0601  0.1333 -0.1452
 8237TIP3    H146202   1.905   5.304   6.086  0.8545 -0.1312  1.7015
 8237TIP3    H246203   2.043   5.243   6.098 -0.1489 -2.7351  0.3779
 8238TIP3   OH246204   3.847   5.970   2.728  0.1836  0.1961  0.2760
 8238TIP3    H146205   3.787   5.909   2.771  0.6067  0.3059  1.0323
 8238TIP3    H246206   3.839   6.051   2.778  1.2651  0.0909  0.6469
 8239TIP3   OH246207   6.678   2.557   4.690 -0.1656  0.3106 -0.3834
 8239TIP3    H146208   6.638   2.629   4.641 -0.4344  0.2128 -0.3086
 8239TIP3    H246209   6.772   2.564   4.670 -0.2381  0.4392 -0.6932
 8240TIP3   OH246210   2.953   5.913  12.013  0.0090 -0.5611  0.8086
 8240TIP3    H146211   3.007   5.963  12.074  1.2300 -0.8381 -0.0190
 8240TIP3    H246212   2.864   5.921  12.047  0.3804  1.0418  1.4411
 8241TIP3   OH246213   3.909   3.448  12.242 -0.0454 -0.2377  0.2485
 8241TIP3    H146214   3.877   3.516  12.183 -0.7939 -0.6136  0.2187
 8241TIP3    H246215   3.916   3.370  12.187  2.1112  0.1157 -0.0480
 8242TIP3   OH246216   5.702   6.110   4.063  0.3117 -0.5115  0.2510
 8242TIP3    H146217   5.624   6.079   4.017 -0.2202  2.2993 -0.8544
 8242TIP3    H246218   5.765   6.038   4.055 -1.7200 -2.3307  0.0957
 8243TIP3   OH246219   5.113   4.886   4.766  0.6642  0.0130  0.0649
 8243TIP3    H146220   5.183   4.925   4.818  1.4567 -1.4737  0.1402
 8243TIP3    H246221   5.036   4.891   4.822  0.5947  2.0181 -0.1701
 8244TIP3   OH246222   4.712   1.355  11.031  0.2218  0.1175  0.0082
 8244TIP3    H146223   4.794   1.355  11.079 -0.1796 -0.0162  0.6949
 8244TIP3    H246224   4.723   1.422  10.963  0.9754 -0.0628 -0.0473
 8245TIP3   OH246225   0.001   1.290   2.430  0.5588 -0.0031 -0.4175
 8245TIP3    H146226  -0.039   1.279   2.516  0.8971 -0.0648 -0.2698
 8245TIP3    H246227   0.094   1.275   2.444  0.5341 -0.6687 -0.9149
 8246TIP3   OH246228   5.019   0.765  17.081 -0.2211  0.3115  0.6886
 8246TIP3    H146229   5.043   0.837  17.140  0.2890  0.9222 -0.2453
 8246TIP3    H246230   5.101   0.719  17.065 -0.6143 -0.7077  1.5721
 8247TIP3   OH246231   1.089   2.834   7.147  0.1367  0.4012 -0.0484
 8247TIP3    H146232   1.028   2.777   7.195  0.3182  0.5995  0.4209
 8247TIP3    H246233   1.057   2.923   7.163  2.0089  0.6903  2.3078
 8248TIP3   OH246234   6.266   4.886   0.614  0.0315  0.7391 -0.1319
 8248TIP3    H146235   6.284   4.979   0.629  1.1714  0.5034  0.0046
 8248TIP3    H246236   6.199   4.885   0.546  0.2012  1.6534 -0.3206
 8249TIP3   OH246237   3.450   3.032  11.598 -0.3224 -0.1569  0.8166
 8249TIP3    H146238   3.421   2.964  11.537 -0.6188  0.5587  0.1395
 8249TIP3    H246239   3.541   3.011  11.617  0.3199  0.6009 -1.2791
 8250TIP3   OH246240   0.342   5.770   3.561 -0.3291  0.1805  0.5974
 8250TIP3    H146241   0.363   5.770   3.467 -0.2794  2.1816  0.6007
 8250TIP3    H246242   0.366   5.857   3.591 -1.6424  0.0036  2.1977
 8251TIP3   OH246243   2.032   5.851  16.709  0.4408  0.1771  0.0525
 8251TIP3    H146244   2.071   5.767  16.732 -0.5151 -0.0450  0.8707
 8251TIP3    H246245   1.948   5.828  16.669  0.2851  0.7416  0.0536
 8252TIP3   OH246246   6.477   1.176  13.501  0.5721 -0.8308  0.4880
 8252TIP3    H146247   6.530   1.176  13.421  0.2345  1.2603  0.2336
 8252TIP3    H246248   6.419   1.101  13.491  2.0861 -1.9166 -0.1875
 8253TIP3   OH246249   3.438   3.792  13.003  0.1214  0.3027 -0.0993
 8253TIP3    H146250   3.443   3.807  12.909 -1.3641  0.3078 -0.1931
 8253TIP3    H246251   3.359   3.840  13.031  0.0684 -0.4040  0.9971
 8254TIP3   OH246252   3.738   1.330   3.003 -0.2797 -0.3514 -0.1462
 8254TIP3    H146253   3.820   1.305   2.961 -0.1673 -1.0422  0.4658
 8254TIP3    H246254   3.707   1.250   3.045 -1.9035 -0.3922 -1.4000
 8255TIP3   OH246255   1.542   0.490   2.492 -0.0739  0.7406 -0.5991
 8255TIP3    H146256   1.545   0.462   2.400  1.8757 -0.2663 -0.2528
 8255TIP3    H246257   1.632   0.481   2.523 -0.6988  1.1286  1.4085
 8256TIP3   OH246258   4.925   4.425  12.130  0.5194 -1.0428  0.2430
 8256TIP3    H146259   5.003   4.468  12.094 -0.5515 -0.9983 -2.0651
 8256TIP3    H246260   4.951   4.333  12.136  0.6123 -1.1038 -0.9480
 8257TIP3   OH246261   5.133   0.900  15.722 -0.4001 -0.2893 -0.6374
 8257TIP3    H146262   5.227   0.902  15.706 -0.2273 -0.8272  0.2747
 8257TIP3    H246263   5.095   0.870  15.639  0.2918 -0.8595 -0.7493
 8258TIP3   OH246264   2.152   6.599  17.093 -0.3658  0.2759 -0.3859
 8258TIP3    H146265   2.091   6.630  17.159  0.9053 -1.8316  1.8440
 8258TIP3    H246266   2.109   6.524  17.053 -0.1432  0.0953 -0.2890
 8259TIP3   OH246267   4.101   3.212  16.155 -0.3127  0.0941 -0.0124
 8259TIP3    H146268   4.176   3.268  16.173 -0.4053 -0.6363  2.8723
 8259TIP3    H246269   4.025   3.268  16.168 -0.3249  0.1849 -0.4767
 8260TIP3   OH246270   6.672   1.604  14.261 -0.5207 -0.6260  0.4203
 8260TIP3    H146271   6.605   1.573  14.200 -1.5986 -0.4715  1.5050
 8260TIP3    H246272   6.664   1.700  14.258 -0.2106 -0.5987  0.4111
 8261TIP3   OH246273   3.557   4.356  16.260 -0.0323 -0.3163 -0.0077
 8261TIP3    H146274   3.623   4.323  16.321 -0.0134  1.0983  0.7555
 8261TIP3    H246275   3.571   4.451  16.259 -0.7644 -0.2124 -1.3620
 8262TIP3   OH246276   6.722   1.359  17.161 -0.0171 -0.1458 -0.2582
 8262TIP3    H146277   6.698   1.319  17.244  0.9830  0.6827  0.4460
 8262TIP3    H246278   6.791   1.303  17.126  0.2156  0.0270 -0.0783
 8263TIP3   OH246279   4.493   2.424   6.096 -0.0341 -0.2417 -0.0832
 8263TIP3    H146280   4.445   2.431   6.014 -2.1368  0.4976  1.1640
 8263TIP3    H246281   4.490   2.331   6.118  0.9153 -0.5095 -1.0411
 8264TIP3   OH246282   1.687   1.442   0.674 -0.4126  0.0073  0.2306
 8264TIP3    H146283   1.667   1.472   0.763 -1.6300 -1.1796  0.3718
 8264TIP3    H246284   1.602   1.443   0.629  0.1516  0.3157 -0.8347
 8265TIP3   OH246285   3.300   4.061  14.878  0.1138  0.0808  0.3014
 8265TIP3    H146286   3.382   4.110  14.879  0.1311  0.0400  1.2496
 8265TIP3    H246287   3.261   4.081  14.793  1.8086 -1.0630 -0.7718
 8266TIP3   OH246288   4.103   5.708  15.651 -0.0819  0.0612 -0.1081
 8266TIP3    H146289   4.048   5.650  15.599  1.2322 -0.4471 -0.9723
 8266TIP3    H246290   4.178   5.726  15.595  1.1106 -0.0719  1.4023
 8267TIP3   OH246291   5.654   3.395   5.687  0.3995 -0.6585  0.1261
 8267TIP3    H146292   5.662   3.413   5.593  1.1208 -0.8136  0.1517
 8267TIP3    H246293   5.561   3.376   5.700  0.3189 -0.7731 -0.5794
 8268TIP3   OH246294   4.241   2.750  13.323 -0.4476  0.2575 -0.0362
 8268TIP3    H146295   4.331   2.736  13.350  0.0361  1.5684 -0.9128
 8268TIP3    H246296   4.188   2.727  13.400  0.7239  1.1818  1.0596
 8269TIP3   OH246297   2.473   2.094  14.782  0.2112 -0.0138 -0.3835
 8269TIP3    H146298   2.496   2.135  14.699 -0.0528 -1.2610 -1.0900
 8269TIP3    H246299   2.485   2.000  14.767  0.3359 -0.2454  1.0421
 8270TIP3   OH246300   5.449   4.394   3.086  0.0070 -0.1113 -0.6410
 8270TIP3    H146301   5.429   4.334   3.014 -0.9261 -0.3291 -0.2042
 8270TIP3    H246302   5.507   4.345   3.144 -0.2429 -0.3712 -0.6119
 8271TIP3   OH246303   4.431   2.543   0.723  0.7569 -0.0873  0.3484
 8271TIP3    H146304   4.524   2.520   0.720  0.7382 -0.0934 -0.1732
 8271TIP3    H246305   4.427   2.623   0.775  1.2109  0.6965 -0.8173
 8272TIP3   OH246306   2.812   5.053   3.971 -0.4802 -0.2088  0.2306
 8272TIP3    H146307   2.875   5.029   4.039 -0.5991 -0.3332  0.2978
 8272TIP3    H246308   2.759   4.974   3.958 -0.4404 -0.1921 -0.0259
 8273TIP3   OH246309   0.948   1.045  16.901  0.2243 -0.6083 -0.2473
 8273TIP3    H146310   0.863   1.005  16.918  0.2549  0.2736  2.0843
 8273TIP3    H246311   0.930   1.139  16.901  0.7714 -0.4731 -2.3036
 8274TIP3   OH246312   0.725   5.260  13.551  0.2959  0.6653  0.5186
 8274TIP3    H146313   0.718   5.354  13.534  1.7436  0.6726 -0.1320
 8274TIP3    H246314   0.635   5.232  13.570 -0.3193  1.9499 -0.4324
 8275TIP3   OH246315   2.412   4.621  16.100  0.2317 -0.0001 -0.7060
 8275TIP3    H146316   2.488   4.669  16.134 -1.3879  1.5910  0.7816
 8275TIP3    H246317   2.400   4.656  16.011  1.5410 -0.6712 -1.1685
 8276TIP3   OH246318   0.027   2.976  15.837 -0.3316  0.1603  0.4589
 8276TIP3    H146319  -0.046   2.914  15.831 -1.1945  1.1858  0.0591
 8276TIP3    H246320  -0.002   3.042  15.900  1.1493 -0.5701  1.9377
 8277TIP3   OH246321   1.252   5.702  16.317  0.3568 -0.0689  0.0521
 8277TIP3    H146322   1.329   5.646  16.309  0.3234 -0.4679  2.1128
 8277TIP3    H246323   1.179   5.641  16.330  0.3947  0.4040  2.8313
 8278TIP3   OH246324   0.120   2.582   2.419 -0.2985  0.4222  0.4137
 8278TIP3    H146325   0.149   2.667   2.387 -0.5808  0.2829 -0.2085
 8278TIP3    H246326   0.051   2.555   2.359 -1.2930  0.4570  1.5227
 8279TIP3   OH246327   1.447   1.487  10.709  0.4883 -0.9510  0.6144
 8279TIP3    H146328   1.493   1.544  10.647 -0.8269 -1.2698 -0.6826
 8279TIP3    H246329   1.449   1.536  10.791  0.1467  0.5956 -0.2655
 8280TIP3   OH246330   2.340   5.686  15.224 -0.6214  0.1447  0.4296
 8280TIP3    H146331   2.331   5.673  15.130  0.4087  0.8430  0.2243
 8280TIP3    H246332   2.408   5.623  15.251  0.5276  1.3322  0.3510
 8281TIP3   OH246333   1.358   2.031  14.299 -0.2725 -0.4381 -0.2289
 8281TIP3    H146334   1.351   1.981  14.380 -0.2627  1.3206  0.8641
 8281TIP3    H246335   1.452   2.038  14.284 -0.2802 -1.1785 -0.6736
 8282TIP3   OH246336   2.084   5.302   3.858 -0.5962  0.5063  0.0953
 8282TIP3    H146337   2.141   5.348   3.919 -1.3186  0.4251  0.8447
 8282TIP3    H246338   2.126   5.218   3.844 -2.1379 -0.8926  3.2287
 8283TIP3   OH246339   0.380   4.336   4.770  0.6017 -0.3672  0.4680
 8283TIP3    H146340   0.289   4.345   4.799  0.5880 -0.6047  0.5008
 8283TIP3    H246341   0.396   4.241   4.771  0.2018 -0.4861 -1.5024
 8284TIP3   OH246342   5.094   5.859  16.234 -0.0960  0.5173 -0.0584
 8284TIP3    H146343   5.118   5.861  16.141  0.4896  0.3070  0.0903
 8284TIP3    H246344   5.114   5.770  16.262  0.4311  0.8014  0.4605
 8285TIP3   OH246345   3.032   2.298  11.606  0.4559 -0.5659  0.4090
 8285TIP3    H146346   3.007   2.367  11.545  2.0859 -0.4169 -0.1252
 8285TIP3    H246347   2.973   2.308  11.680 -1.8133 -0.9530 -1.2725
 8286TIP3   OH246348   3.099   3.857  13.339  0.0441 -0.3688  0.2347
 8286TIP3    H146349   3.115   3.817  13.425 -1.6684 -0.4831  0.5205
 8286TIP3    H246350   3.114   3.951  13.354 -1.5272 -0.2203  1.0127
 8287TIP3   OH246351   1.454   0.740   1.879  0.1447  0.2318  0.5294
 8287TIP3    H146352   1.432   0.683   1.953 -2.4367 -2.1818 -1.9961
 8287TIP3    H246353   1.380   0.799   1.872  0.7735  1.0075  0.3654
 8288TIP3   OH246354   3.710   0.879   2.037 -0.3395  0.2198 -0.1611
 8288TIP3    H146355   3.667   0.928   2.106  0.8123  0.6738  0.2498
 8288TIP3    H246356   3.642   0.822   2.001 -1.0282  0.2207  1.1251
 8289TIP3   OH246357   1.975   1.152   0.497 -0.1110  0.6463  0.5846
 8289TIP3    H146358   1.987   1.236   0.541  0.2494  0.9007  0.0126
 8289TIP3    H246359   1.881   1.144   0.487 -0.0948  1.5600 -0.4391
 8290TIP3   OH246360   6.529   5.187  13.601  0.3294  0.5198 -0.4771
 8290TIP3    H146361   6.450   5.202  13.653 -0.4740 -1.5868 -1.0338
 8290TIP3    H246362   6.601   5.217  13.656 -0.6356 -0.2801  1.2524
 8291TIP3   OH246363   0.410   3.777   3.940 -0.0907 -0.1793 -0.0581
 8291TIP3    H146364   0.378   3.787   3.850  3.3774  0.7944 -1.2805
 8291TIP3    H246365   0.395   3.685   3.961 -3.3044  0.1631 -0.6414
 8292TIP3   OH246366   3.091   5.785  11.252  0.3663  0.8466 -0.6438
 8292TIP3    H146367   3.019   5.722  11.240  1.6207 -0.9621  0.9365
 8292TIP3    H246368   3.051   5.870  11.238 -1.4743 -0.2676 -2.5284
 8293TIP3   OH246369   6.018   6.203  16.548  0.1351  0.8271  0.1553
 8293TIP3    H146370   6.004   6.297  16.556 -0.0484  0.7462  0.7948
 8293TIP3    H246371   6.064   6.179  16.628  1.0210  0.5321 -0.4334
 8294TIP3   OH246372   5.670   5.626   1.456  0.3789  0.0365  0.6083
 8294TIP3    H146373   5.758   5.590   1.457  0.6316  0.6240  0.0924
 8294TIP3    H246374   5.616   5.559   1.498  1.1833 -0.0226  1.5813
 8295TIP3   OH246375   6.001   1.593   6.159  0.0376  0.0034  0.4118
 8295TIP3    H146376   6.057   1.662   6.125  0.1978 -0.5674 -0.5087
 8295TIP3    H246377   5.951   1.635   6.229  1.4911  0.5477  1.1437
 8296TIP3   OH246378   1.190   5.709  12.067 -0.3647  0.3731 -0.2616
 8296TIP3    H146379   1.158   5.726  11.978 -0.2986  1.4446 -0.0982
 8296TIP3    H246380   1.213   5.796  12.100  1.0970 -0.2023  0.2448
 8297TIP3   OH246381   0.178   4.623   4.848  0.1546 -0.6572  0.2187
 8297TIP3    H146382   0.156   4.687   4.915  2.2929  1.2319 -0.8073
 8297TIP3    H246383   0.117   4.641   4.777  1.1266  0.6658 -0.2983
 8298TIP3   OH246384   1.538   5.785   0.850 -0.0163  0.5827 -0.3962
 8298TIP3    H146385   1.547   5.707   0.796 -1.8575 -1.1430  1.6810
 8298TIP3    H246386   1.547   5.753   0.940 -1.7088  2.5943  0.5339
 8299TIP3   OH246387   0.518   4.430  12.753  0.3038  0.3177  0.0254
 8299TIP3    H146388   0.548   4.521  12.757 -1.7937  0.9729  2.0114
 8299TIP3    H246389   0.503   4.406  12.844 -3.7031 -0.4443 -0.7579
 8300TIP3   OH246390   1.343   2.044   2.289  0.1204  0.3639 -0.0240
 8300TIP3    H146391   1.356   2.106   2.361 -0.4654  0.1374  0.2865
 8300TIP3    H246392   1.428   2.001   2.279  0.3404  0.7410  0.2105
 8301TIP3   OH246393   0.633   5.017  13.948 -0.0143  0.0128  0.4950
 8301TIP3    H146394   0.575   5.092  13.935  1.3213  0.9009 -0.3544
 8301TIP3    H246395   0.592   4.946  13.899 -0.7581  0.4511  0.4802
 8302TIP3   OH246396   6.138   2.411  11.808  0.2202  0.1322 -0.2401
 8302TIP3    H146397   6.229   2.383  11.819  0.2545 -0.2731 -1.4353
 8302TIP3    H246398   6.093   2.333  11.776 -0.4577  0.4538 -0.0785
 8303TIP3   OH246399   3.853   1.825   5.840  0.6692 -0.1540 -0.2325
 8303TIP3    H146400   3.876   1.845   5.930  1.7356  0.3619 -0.6118
 8303TIP3    H246401   3.757   1.825   5.839  0.6539  1.0743  0.6119
 8304TIP3   OH246402   1.246   0.113   3.533 -0.0244  0.3126  0.2336
 8304TIP3    H146403   1.263   0.052   3.461  0.4426 -0.1355  0.7163
 8304TIP3    H246404   1.325   0.167   3.538 -0.3058  0.7527  0.0166
 8305TIP3   OH246405   3.523   3.892   0.487  0.2475 -1.1072  0.2544
 8305TIP3    H146406   3.503   3.982   0.511 -0.3557 -1.6566  1.9208
 8305TIP3    H246407   3.492   3.883   0.397 -1.7632 -0.2918  0.8396
 8306TIP3   OH246408   0.010   4.584  15.101  0.5384 -0.3117  0.5639
 8306TIP3    H146409   0.029   4.503  15.148 -1.1396 -0.2979  1.3198
 8306TIP3    H246410  -0.029   4.641  15.167  0.7537  0.7287 -0.2084
 8307TIP3   OH246411   1.682   3.589   4.964  0.0074  0.2107  0.3409
 8307TIP3    H146412   1.615   3.591   4.896  0.0765 -1.2006  0.2053
 8307TIP3    H246413   1.701   3.681   4.982 -0.2941  0.6072 -1.2664
 8308TIP3   OH246414   4.727   2.918  14.762 -0.4470  0.0067 -0.1378
 8308TIP3    H146415   4.689   3.005  14.748  0.0772  0.0895 -1.0939
 8308TIP3    H246416   4.821   2.935  14.769 -0.4805 -0.3091  1.1971
 8309TIP3   OH246417   5.293   5.079   4.851 -0.4214  0.2383 -0.2431
 8309TIP3    H146418   5.245   5.159   4.874  0.9018  0.7865  0.6570
 8309TIP3    H246419   5.378   5.111   4.820  0.0733 -0.8174  0.0187
 8310TIP3   OH246420   2.359   0.307   6.144 -0.4264 -0.4763 -0.0236
 8310TIP3    H146421   2.391   0.357   6.069  0.3081 -3.0340 -1.4562
 8310TIP3    H246422   2.267   0.288   6.124 -0.1485 -1.4138 -0.4275
 8311TIP3   OH246423   1.553   6.681  13.411  0.1386 -0.0922 -0.5598
 8311TIP3    H146424   1.621   6.635  13.362  1.7430 -0.2027  1.6620
 8311TIP3    H246425   1.532   6.621  13.484 -0.8688  0.8337 -0.0709
 8312TIP3   OH246426   6.165   2.395   1.209 -0.2995  0.5412 -0.0461
 8312TIP3    H146427   6.215   2.416   1.288  0.4134  0.1511 -0.3890
 8312TIP3    H246428   6.146   2.480   1.169 -1.2768  0.7874  0.9095
 8313TIP3   OH246429   6.542   0.856   5.023  0.5968 -0.5307  0.7055
 8313TIP3    H146430   6.621   0.803   5.013 -0.6376 -2.4021  0.5637
 8313TIP3    H246431   6.483   0.800   5.074 -0.6853  0.7790  0.6665
 8314TIP3   OH246432   5.035   5.678   3.402 -0.2810  0.4335  0.1872
 8314TIP3    H146433   5.096   5.607   3.381  0.1546  0.5904  0.9175
 8314TIP3    H246434   5.074   5.756   3.361 -1.0214  0.1676 -1.0543
 8315TIP3   OH246435   0.747   0.186   2.242  0.1853  0.1295  0.6529
 8315TIP3    H146436   0.815   0.142   2.189 -0.2882 -1.8603  1.6508
 8315TIP3    H246437   0.762   0.154   2.331 -1.5054  0.3582  1.0341
 8316TIP3   OH246438   2.180   2.557  15.740  0.3151  0.3066  0.1925
 8316TIP3    H146439   2.155   2.649  15.725  0.2832  0.4961  1.3454
 8316TIP3    H246440   2.097   2.509  15.737  0.3119  0.3397 -0.2543
 8317TIP3   OH246441   5.776   4.093   0.842 -0.4034 -0.1956 -0.5129
 8317TIP3    H146442   5.743   4.025   0.783 -1.1105  1.5630 -2.1988
 8317TIP3    H246443   5.854   4.127   0.798 -0.8824  1.0761 -0.3959
 8318TIP3   OH246444   5.985   3.361  16.917  0.5558  0.1310 -0.3504
 8318TIP3    H146445   5.901   3.371  16.873  0.9399  1.6120 -0.7964
 8318TIP3    H246446   6.032   3.295  16.866 -0.2254 -0.4901 -0.2634
 8319TIP3   OH246447   0.612   3.028   1.149  0.5005  0.3697 -0.6853
 8319TIP3    H146448   0.549   2.971   1.106 -0.4813  0.2973  0.8276
 8319TIP3    H246449   0.681   2.969   1.179 -0.6423 -0.0916  1.1162
 8320TIP3   OH246450   0.571   6.596  13.720  0.4607  0.4384  0.3426
 8320TIP3    H146451   0.501   6.552  13.768  0.2376  1.2137  0.7377
 8320TIP3    H246452   0.622   6.525  13.681  0.6473 -0.2035  1.7353
 8321TIP3   OH246453   0.239   0.051   5.139  0.4387 -0.4294 -0.0144
 8321TIP3    H146454   0.267  -0.029   5.094 -0.2771 -0.1344 -1.0070
 8321TIP3    H246455   0.293   0.120   5.101  0.7213 -0.3689  0.4975
 8322TIP3   OH246456   3.511   4.155   0.538  0.3943 -0.3714  0.3621
 8322TIP3    H146457   3.459   4.179   0.615 -1.4221 -0.5622 -0.7839
 8322TIP3    H246458   3.592   4.206   0.547 -0.8394  1.4974  1.1223
 8323TIP3   OH246459   6.781   5.670  13.990 -0.5045 -0.7580  0.3206
 8323TIP3    H146460   6.819   5.723  14.060  0.3703 -1.4123  0.3418
 8323TIP3    H246461   6.710   5.724  13.956 -0.7419 -0.3050  1.5074
 8324TIP3   OH246462   2.083   2.562   4.390  0.3544 -0.2162  0.1132
 8324TIP3    H146463   2.179   2.570   4.393  0.3149 -0.0850  1.1930
 8324TIP3    H246464   2.057   2.549   4.481 -0.6692 -0.1829 -0.1669
 8325TIP3   OH246465   2.132   2.241  16.819 -0.0668  0.0482 -0.3958
 8325TIP3    H146466   2.142   2.157  16.864 -1.0074  0.5198  0.7418
 8325TIP3    H246467   2.145   2.306  16.888 -3.8961  0.7683 -0.2326
 8326TIP3   OH246468   1.343   0.892  14.890 -0.1266 -0.1340 -0.3700
 8326TIP3    H146469   1.305   0.953  14.954 -2.0395 -0.5506 -1.0753
 8326TIP3    H246470   1.354   0.944  14.810  0.9908  0.0310 -0.1212
 8327TIP3   OH246471   0.903   4.025  17.157  0.7701  0.4295  0.7224
 8327TIP3    H146472   0.906   4.014  17.062  1.1014  1.4907  0.5971
 8327TIP3    H246473   0.954   3.952  17.191  1.7445  0.7638  0.0103
 8328TIP3   OH246474   1.723   0.882  15.289 -0.5570 -0.2987 -0.3521
 8328TIP3    H146475   1.780   0.936  15.233  1.6757 -0.6870  1.4947
 8328TIP3    H246476   1.718   0.798  15.244  0.2825 -0.2363 -0.5780
 8329TIP3   OH246477   5.294   1.840  10.749  0.1322 -0.1851  0.0136
 8329TIP3    H146478   5.339   1.784  10.812 -1.6223  0.1397  1.6151
 8329TIP3    H246479   5.260   1.780  10.682  1.9277 -0.5448 -0.5885
 8330TIP3   OH246480   3.244   4.763   0.964  0.0983  0.3312  0.2912
 8330TIP3    H146481   3.220   4.711   1.040 -0.0173  0.9346  0.6731
 8330TIP3    H246482   3.322   4.720   0.929  2.5946  2.3224  3.1136
 8331TIP3   OH246483   4.586   3.014  11.590 -0.5558  0.4389 -0.0890
 8331TIP3    H146484   4.663   2.957  11.589 -1.2936 -0.5857  0.3635
 8331TIP3    H246485   4.556   3.011  11.681 -1.8478 -0.1429 -0.5373
 8332TIP3   OH246486   4.078   6.799   3.401 -0.3647  0.3686 -0.2196
 8332TIP3    H146487   4.029   6.805   3.483  1.0663 -1.3867  0.7828
 8332TIP3    H246488   4.040   6.723   3.356 -1.3130  1.4658 -1.3353
 8333TIP3   OH246489   0.604   2.045   3.974  0.2626  0.0415  0.0747
 8333TIP3    H146490   0.570   2.105   4.041  2.2183  2.3538 -0.9081
 8333TIP3    H246491   0.675   1.998   4.016  1.4372  1.4350 -0.3188
 8334TIP3   OH246492   2.881   5.140   0.156  0.3058  0.1100  0.0432
 8334TIP3    H146493   2.845   5.097   0.234  0.5614  1.3327  0.8442
 8334TIP3    H246494   2.907   5.227   0.186  0.1332  0.7088 -1.4831
 8335TIP3   OH246495   0.516   6.173   4.610 -0.4243  0.2917  0.0621
 8335TIP3    H146496   0.461   6.096   4.598 -0.2423  0.0699  0.6468
 8335TIP3    H246497   0.470   6.225   4.676  0.2100 -0.0426  0.7854
 8336TIP3   OH246498   3.459   4.101   4.071  0.1553 -0.2123 -0.1980
 8336TIP3    H146499   3.396   4.166   4.102  0.4135  0.7465 -1.6255
 8336TIP3    H246500   3.544   4.146   4.074  0.6910 -1.3128  1.1883
 8337TIP3   OH246501   4.138   6.348   1.660 -0.1897 -0.6869 -0.5116
 8337TIP3    H146502   4.166   6.292   1.587 -1.0097  1.0695 -2.2145
 8337TIP3    H246503   4.203   6.418   1.663  0.9035 -1.7359  1.6903
 8338TIP3   OH246504   5.858   6.252  11.374  0.6496  0.1543  0.4563
 8338TIP3    H146505   5.880   6.169  11.332 -1.6788 -1.8444  2.9827
 8338TIP3    H246506   5.786   6.287  11.322 -0.8566 -1.3019  1.5084
 8339TIP3   OH246507   5.195   6.694  14.451  0.1607 -0.3162  0.2225
 8339TIP3    H146508   5.197   6.787  14.473 -1.6722 -0.0303 -0.7387
 8339TIP3    H246509   5.115   6.660  14.493  0.5920 -1.3682  0.2227
 8340TIP3   OH246510   2.868   1.010   4.840 -0.3939 -0.0492  0.1567
 8340TIP3    H146511   2.862   1.005   4.935 -0.5057 -1.4304  0.0752
 8340TIP3    H246512   2.778   1.022   4.810 -0.3487  0.4792  0.2252
 8341TIP3   OH246513   4.680   5.974  17.168  0.4302 -0.8357 -0.3330
 8341TIP3    H146514   4.734   6.047  17.197  0.0680 -0.1969 -1.2198
 8341TIP3    H246515   4.640   6.005  17.086 -2.3577 -0.7559  0.9881
 8342TIP3   OH246516   0.729   2.325  14.134  0.1166 -0.3758 -0.2531
 8342TIP3    H146517   0.752   2.373  14.214 -4.6517  1.8106 -0.0433
 8342TIP3    H246518   0.764   2.378  14.063 -0.1560  0.4194  0.2027
 8343TIP3   OH246519   3.720   1.353   0.090 -0.4306 -0.0900 -0.0063
 8343TIP3    H146520   3.627   1.334   0.077 -0.0370 -2.7230  0.6055
 8343TIP3    H246521   3.762   1.322   0.010  0.1883 -1.3514  0.7833
 8344TIP3   OH246522   3.705   3.853   3.129  0.1903 -0.2167  0.5050
 8344TIP3    H146523   3.614   3.844   3.100 -0.1087  0.9020  1.0703
 8344TIP3    H246524   3.755   3.851   3.048 -0.4139  0.1113  0.1155
 8345TIP3   OH246525   6.071   3.712  10.705 -0.2294 -0.2702 -0.2792
 8345TIP3    H146526   5.986   3.720  10.748 -0.5014 -2.5968 -0.3284
 8345TIP3    H246527   6.133   3.698  10.776  0.4333  3.1519 -0.0853
 8346TIP3   OH246528   6.227   6.694   3.251  0.1312  0.1595  0.2859
 8346TIP3    H146529   6.238   6.728   3.340 -1.3583 -0.3572  0.6764
 8346TIP3    H246530   6.196   6.769   3.200  0.2126  0.2534  0.3744
 8347TIP3   OH246531   6.811   6.051   6.165 -0.4169  0.6994  0.0927
 8347TIP3    H146532   6.751   6.039   6.240 -0.5502  1.3612  0.0928
 8347TIP3    H246533   6.868   6.123   6.191 -1.3069  1.8166 -0.9642
 8348TIP3   OH246534   4.393   3.260  11.860 -0.1540 -0.3285  0.0486
 8348TIP3    H146535   4.300   3.279  11.843  0.5254  0.8843 -2.6198
 8348TIP3    H246536   4.427   3.341  11.897  0.1581 -0.2876 -0.3293
 8349TIP3   OH246537   5.662   3.433  12.816  0.2031  0.1519  0.3046
 8349TIP3    H146538   5.718   3.473  12.882 -0.6447 -0.7983  1.6484
 8349TIP3    H246539   5.720   3.373  12.768  0.6379  0.1895  0.7776
 8350TIP3   OH246540   1.441   4.975   6.003  0.1073 -0.0420  0.4154
 8350TIP3    H146541   1.381   4.933   6.065  2.1405 -1.5578  1.4377
 8350TIP3    H246542   1.455   5.063   6.038 -1.2554  0.2102  0.3351
 8351TIP3   OH246543   4.325   0.684  13.533  0.4712 -0.2548 -0.0248
 8351TIP3    H146544   4.259   0.638  13.481  0.6705 -0.9074  0.2998
 8351TIP3    H246545   4.408   0.662  13.491  0.4675  0.7322 -0.5562
 8352TIP3   OH246546   2.100   3.795   6.094  0.2576  0.3252  0.1531
 8352TIP3    H146547   2.065   3.716   6.134  1.2966 -1.1268 -1.7125
 8352TIP3    H246548   2.179   3.815   6.145  0.6851 -0.5636 -0.1640
 8353TIP3   OH246549   6.495   2.099   0.925 -0.4139  0.0700  0.2656
 8353TIP3    H146550   6.421   2.043   0.946  1.1935 -1.6534  1.5599
 8353TIP3    H246551   6.571   2.041   0.928  0.7995  1.3773 -2.9331
 8354TIP3   OH246552   2.682   0.316   1.052  0.4361 -0.2303  0.5617
 8354TIP3    H146553   2.763   0.359   1.076 -0.7812  1.9242  0.9127
 8354TIP3    H246554   2.635   0.379   0.998 -0.7975 -1.6243 -0.0534
 8355TIP3   OH246555   6.718   4.249   0.642 -0.3926 -0.3018  0.1694
 8355TIP3    H146556   6.704   4.232   0.549  0.7345 -0.6298  0.0480
 8355TIP3    H246557   6.715   4.162   0.683 -2.0064 -0.0566  0.6108
 8356TIP3   OH246558   3.566   6.155   0.301 -0.3734 -0.1303 -0.0995
 8356TIP3    H146559   3.635   6.181   0.240  0.8060 -0.3700  1.1074
 8356TIP3    H246560   3.579   6.211   0.377 -1.9497  0.2932 -0.1263
 8357TIP3   OH246561   6.188   6.540   2.301 -0.0983  0.5326 -0.0763
 8357TIP3    H146562   6.253   6.523   2.233 -0.0096  2.0419 -0.3983
 8357TIP3    H246563   6.148   6.455   2.319 -0.7408  0.2708 -2.6370
 8358TIP3   OH246564   3.735   4.866  15.423 -1.0784  0.2445 -0.5404
 8358TIP3    H146565   3.754   4.797  15.486  0.6464  0.4084 -0.8618
 8358TIP3    H246566   3.651   4.902  15.452 -0.3937  0.1997  1.5724
 8359TIP3   OH246567   2.533   0.622  13.965 -0.0996  0.2649  0.2632
 8359TIP3    H146568   2.589   0.545  13.954 -0.2130  0.1227  0.6650
 8359TIP3    H246569   2.470   0.595  14.031 -1.1838  0.1083 -0.8064
 8360TIP3   OH246570   4.121   2.851  10.450  0.3136  0.4962 -0.0625
 8360TIP3    H146571   4.203   2.806  10.473  0.4141  0.0220 -1.3015
 8360TIP3    H246572   4.137   2.942  10.475  1.8166  0.7177 -1.7160
 8361TIP3   OH246573   5.414   6.268  17.037  0.5666  0.3561  0.3822
 8361TIP3    H146574   5.448   6.203  16.975  0.3269  1.6238 -1.1102
 8361TIP3    H246575   5.478   6.339  17.034 -0.0005  0.8894  0.7916
 8362TIP3   OH246576   2.626   3.340   4.360 -0.2169  0.2504 -0.2069
 8362TIP3    H146577   2.547   3.291   4.382 -0.4406  0.4182 -0.6400
 8362TIP3    H246578   2.697   3.277   4.374 -0.3879  0.2147  0.5560
 8363TIP3   OH246579   6.366   1.276   4.656  0.0475  0.4852  0.1461
 8363TIP3    H146580   6.457   1.304   4.661 -0.7616  3.2847  0.3236
 8363TIP3    H246581   6.336   1.308   4.571 -0.5952 -1.0493 -0.2254
 8364TIP3   OH246582   0.545   5.518  15.120 -0.6149 -0.0665 -0.5116
 8364TIP3    H146583   0.530   5.601  15.074  0.0703 -0.7943 -2.1170
 8364TIP3    H246584   0.623   5.534  15.173 -0.6832  0.4304 -0.5600
 8365TIP3   OH246585   0.138   5.089   0.929  0.4341 -0.5903 -0.0111
 8365TIP3    H146586   0.165   5.067   1.019  2.3818 -1.5856 -0.8127
 8365TIP3    H246587   0.119   5.183   0.933  1.6783 -0.3662  1.1700
 8366TIP3   OH246588   1.892   4.635  12.167 -0.2157 -0.1201  0.5014
 8366TIP3    H146589   1.797   4.644  12.164 -0.0566  1.1522 -1.7804
 8366TIP3    H246590   1.912   4.563  12.108  0.2743 -0.0600  0.5829
 8367TIP3   OH246591   0.597   3.552   6.051 -0.2469 -0.6791 -0.4271
 8367TIP3    H146592   0.526   3.541   6.114  0.7047  1.3145  1.0644
 8367TIP3    H246593   0.666   3.494   6.083 -0.1893 -0.5235 -0.2652
 8368TIP3   OH246594   0.788   6.644   4.489  0.5581 -0.1661 -0.0182
 8368TIP3    H146595   0.831   6.598   4.417  0.4197 -2.2175  1.1496
 8368TIP3    H246596   0.710   6.592   4.508 -0.6420  1.6363  0.1238
 8369TIP3   OH246597   0.514   0.104   1.892  0.4797  0.0452  0.5729
 8369TIP3    H146598   0.471   0.018   1.899  0.2857  0.0228 -0.7854
 8369TIP3    H246599   0.444   0.167   1.908  0.5618 -0.0442  1.2897
 8370TIP3   OH246600   6.389   6.187  12.401 -0.3266  0.7211 -0.4163
 8370TIP3    H146601   6.418   6.160  12.488  0.0598  1.1591 -0.4060
 8370TIP3    H246602   6.449   6.258  12.377  0.4867 -0.3533 -1.6454
 8371TIP3   OH246603   1.063   0.092  17.089  0.0107  0.9176  0.4213
 8371TIP3    H146604   1.126   0.144  17.039 -0.7515  2.2361  0.8399
 8371TIP3    H246605   1.095   0.095  17.179  0.3565  0.0468  0.3449
 8372TIP3   OH246606   4.502   3.561  13.501  0.2082 -0.1675  0.3125
 8372TIP3    H146607   4.498   3.531  13.410 -1.9080  0.2270  0.2536
 8372TIP3    H246608   4.478   3.654  13.496  1.0801  0.1174  1.1814
 8373TIP3   OH246609   4.120   3.552  16.080  0.3569 -0.3468 -0.7980
 8373TIP3    H146610   4.206   3.551  16.038 -0.3043  0.3115 -2.2315
 8373TIP3    H246611   4.059   3.535  16.008 -0.9166  2.3432 -0.4102
 8374TIP3   OH246612   5.117   5.178   5.244  0.4454 -0.1574 -0.1151
 8374TIP3    H146613   5.184   5.110   5.238 -0.2462 -0.8069 -0.6312
 8374TIP3    H246614   5.101   5.204   5.153 -0.3095 -0.3093 -0.0274
 8375TIP3   OH246615   3.949   0.737   0.555  0.1818 -0.2138  0.0302
 8375TIP3    H146616   4.042   0.757   0.565  0.7157 -1.3387 -2.3036
 8375TIP3    H246617   3.928   0.764   0.465 -1.9688  0.8266  0.8129
 8376TIP3   OH246618   0.017   3.859   2.926 -0.5986  0.2708 -0.0091
 8376TIP3    H146619   0.074   3.808   2.983 -0.7097 -0.4560 -0.5444
 8376TIP3    H246620   0.020   3.814   2.842 -0.7125  1.1390 -0.4846
 8377TIP3   OH246621   5.802   3.899  16.474 -0.0864  0.3696  0.3251
 8377TIP3    H146622   5.856   3.903  16.396 -0.3000  0.3125  0.1735
 8377TIP3    H246623   5.788   3.991  16.499  1.5323  0.3428  1.3700
 8378TIP3   OH246624   4.668   4.736  14.772 -0.4671 -0.2801 -0.3765
 8378TIP3    H146625   4.612   4.667  14.806 -1.3712  0.9416  0.6560
 8378TIP3    H246626   4.612   4.813  14.768  0.7723  0.6324 -0.6392
 8379TIP3   OH246627   2.495   5.618   5.471  0.4904 -0.4811 -0.2195
 8379TIP3    H146628   2.552   5.677   5.422 -1.0230 -1.2318 -3.0094
 8379TIP3    H246629   2.413   5.666   5.481 -0.5500 -1.8214 -1.9860
 8380TIP3   OH246630   0.446   0.867  12.819 -0.3585  0.6305 -0.2306
 8380TIP3    H146631   0.488   0.938  12.771 -1.2913  0.3247 -1.5331
 8380TIP3    H246632   0.515   0.802  12.831  0.7854  2.2064  1.9418
 8381TIP3   OH246633   3.996   3.910  15.026  0.2027 -0.1048  0.3351
 8381TIP3    H146634   3.912   3.951  15.048  0.4018  0.5477 -0.1248
 8381TIP3    H246635   4.017   3.943  14.939  0.1163 -1.5737 -0.2551
 8382TIP3   OH246636   4.833   2.638  13.827 -0.3414  0.0807  0.3503
 8382TIP3    H146637   4.800   2.617  13.739 -0.9499  0.0171  0.5914
 8382TIP3    H246638   4.791   2.573  13.884 -1.1747  1.1034  0.9153
 8383TIP3   OH246639   3.429   4.751   1.974  0.1570 -0.0124  0.3301
 8383TIP3    H146640   3.507   4.755   1.918  0.6764 -0.1877  1.0371
 8383TIP3    H246641   3.357   4.735   1.913  0.5965  0.7320 -0.3964
 8384TIP3   OH246642   4.894   4.464  14.839 -0.3933 -0.4461  0.4131
 8384TIP3    H146643   4.887   4.514  14.921 -0.4045 -0.0394  0.1684
 8384TIP3    H246644   4.889   4.531  14.771  0.5870 -0.6866  0.1068
 8385TIP3   OH246645   3.031   1.151   4.680 -0.3129 -0.2415  0.2005
 8385TIP3    H146646   3.008   1.165   4.589  0.9270  1.1083  0.0748
 8385TIP3    H246647   2.965   1.090   4.713 -1.8032  0.6491 -1.1041
 8386TIP3   OH246648   2.643   2.101   6.121  0.3452 -0.1985  0.1309
 8386TIP3    H146649   2.641   2.011   6.089 -0.2868 -1.2303  2.8895
 8386TIP3    H246650   2.737   2.120   6.133  0.4442 -0.7704  0.2808
 8387TIP3   OH246651   1.903   2.554   3.585 -0.1214 -0.3392 -0.3735
 8387TIP3    H146652   1.834   2.494   3.612 -0.2808  0.4233  0.9628
 8387TIP3    H246653   1.859   2.620   3.533 -0.4850  0.3732  0.8177
 8388TIP3   OH246654   1.770   1.756  15.707 -0.2788 -0.2107 -0.2671
 8388TIP3    H146655   1.716   1.784  15.781 -0.0269 -0.5892  0.0590
 8388TIP3    H246656   1.798   1.838  15.665 -0.4496  0.0003  0.0309
 8389TIP3   OH246657   1.937   1.800   1.803  0.2034  0.5759 -0.0573
 8389TIP3    H146658   1.882   1.831   1.875 -0.5443  1.3001 -0.9164
 8389TIP3    H246659   1.987   1.728   1.840 -0.0200  1.0771  1.2381
 8390TIP3   OH246660   5.948   4.102   1.887 -0.2243  0.0959 -0.0021
 8390TIP3    H146661   5.946   4.065   1.975  0.1718  2.0905  0.8738
 8390TIP3    H246662   6.031   4.071   1.850 -0.1464 -0.3278  0.5131
 8391TIP3   OH246663   0.143   3.509  16.781  0.1231 -0.1697 -0.3417
 8391TIP3    H146664   0.106   3.597  16.775  1.1620  0.3226  0.3185
 8391TIP3    H246665   0.105   3.462  16.706  1.9952  1.7364 -2.5614
 8392TIP3   OH246666   5.975   1.021   6.006 -0.0944 -0.3319  0.0624
 8392TIP3    H146667   5.905   1.081   6.031 -0.6935 -0.6589 -0.7853
 8392TIP3    H246668   6.006   0.984   6.088  2.4927  3.5283  0.9326
 8393TIP3   OH246669   3.025   5.127  11.240 -0.7190 -0.1180  0.3951
 8393TIP3    H146670   3.079   5.199  11.209  0.7869  0.6901  4.5192
 8393TIP3    H246671   2.936   5.160  11.237 -0.4970  0.3198 -1.8314
 8394TIP3   OH246672   5.605   5.893  17.124  0.4423  0.3933 -0.7451
 8394TIP3    H146673   5.563   5.859  17.203  1.0445  0.2110 -0.5017
 8394TIP3    H246674   5.544   5.873  17.054  0.5948 -0.8190 -0.5375
 8395TIP3   OH246675   0.115   1.879  12.158  0.2565 -0.1591 -0.1031
 8395TIP3    H146676   0.122   1.937  12.082  2.1321  0.4311  0.4796
 8395TIP3    H246677   0.023   1.883  12.184 -0.7104 -1.4527 -3.1566
 8396TIP3   OH246678   5.028   1.876   2.591 -0.3540 -0.1942 -0.6415
 8396TIP3    H146679   4.973   1.879   2.513 -1.7279 -1.1393  0.2645
 8396TIP3    H246680   5.114   1.903   2.561 -0.4135 -2.3669 -2.8794
 8397TIP3   OH246681   5.265   3.306  15.277  0.0630 -0.6490  0.5406
 8397TIP3    H146682   5.337   3.331  15.335  1.9733  1.0150 -2.3905
 8397TIP3    H246683   5.294   3.222  15.239 -0.3428 -0.8470  0.6741
 8398TIP3   OH246684   4.704   3.500  14.108 -0.9168 -0.0429  0.4936
 8398TIP3    H146685   4.785   3.449  14.108  0.1694  1.6239  0.0459
 8398TIP3    H246686   4.635   3.435  14.121  0.2463 -1.8696 -1.9968
 8399TIP3   OH246687   4.449   3.403   3.541  0.1755 -0.5360 -0.2304
 8399TIP3    H146688   4.517   3.340   3.519  1.0971  0.4216 -0.1768
 8399TIP3    H246689   4.450   3.407   3.637  0.4562 -0.0762 -0.2522
 8400TIP3   OH246690   0.437   4.180   3.181 -0.3893  0.0125 -0.2118
 8400TIP3    H146691   0.394   4.098   3.206 -1.0426  0.1200 -0.9630
 8400TIP3    H246692   0.531   4.161   3.187 -0.5385 -0.7045 -0.1029
 8401TIP3   OH246693   0.411   4.365   4.427  0.3134 -0.5116 -0.1153
 8401TIP3    H146694   0.406   4.381   4.332 -2.3394 -0.2283  0.0228
 8401TIP3    H246695   0.471   4.432   4.459 -1.2749  1.5033 -1.1904
 8402TIP3   OH246696   5.860   5.228  11.468 -0.2073  0.4112  0.0411
 8402TIP3    H146697   5.839   5.208  11.377  0.5914 -0.5833  0.0615
 8402TIP3    H246698   5.775   5.240  11.510 -0.5958  0.4223 -0.7364
 8403TIP3   OH246699   2.106   4.668  17.269 -0.3091  0.1611  0.1480
 8403TIP3    H146700   2.094   4.581  17.307  4.0279 -0.1597  1.0173
 8403TIP3    H246701   2.102   4.653  17.174 -0.2214 -0.9033  0.3001
 8404TIP3   OH246702   4.549   0.565  15.456  0.1892  0.0188  0.3204
 8404TIP3    H146703   4.597   0.631  15.407  1.0646 -0.1770  0.9158
 8404TIP3    H246704   4.612   0.494  15.470 -0.0796  0.0331  1.6578
 8405TIP3   OH246705   5.207   0.632   4.664 -0.9289 -0.8718  0.3804
 8405TIP3    H146706   5.244   0.584   4.590 -2.0014  0.3659 -0.9646
 8405TIP3    H246707   5.214   0.724   4.640 -2.5154 -0.5094  1.2025
 8406TIP3   OH246708   1.925   4.431  14.351  0.1206 -0.0078 -0.3949
 8406TIP3    H146709   1.916   4.462  14.260  0.6006 -0.3068 -0.5472
 8406TIP3    H246710   1.838   4.398  14.373 -0.5005  1.7622 -0.1029
 8407TIP3   OH246711   6.572   5.720   3.889 -0.2280  0.1914  0.1446
 8407TIP3    H146712   6.614   5.725   3.975 -0.7131 -1.7112  0.4974
 8407TIP3    H246713   6.609   5.794   3.840 -0.7172  1.9110  2.3085
 8408TIP3   OH246714   1.682   1.519   5.709 -0.2180 -0.4982  0.1509
 8408TIP3    H146715   1.589   1.517   5.731 -0.1805 -0.9111  0.2773
 8408TIP3    H246716   1.702   1.430   5.682 -0.4248  0.1375 -2.2726
 8409TIP3   OH246717   6.766   3.986   4.969  0.3682 -0.5745  0.2946
 8409TIP3    H146718   6.808   3.967   4.885  0.7206 -3.3252  1.0380
 8409TIP3    H246719   6.675   3.958   4.956  0.2658 -0.3866  0.6132
 8410TIP3   OH246720   1.307   0.161   3.183 -0.2091 -0.1095 -0.0668
 8410TIP3    H146721   1.388   0.152   3.234  1.4238  0.0308 -2.5872
 8410TIP3    H246722   1.283   0.071   3.160 -1.0400 -0.1855  1.0190
 8411TIP3   OH246723   5.871   0.551  13.537 -0.4559 -0.3217  0.0245
 8411TIP3    H146724   5.928   0.517  13.606  0.8205  1.2290 -0.2331
 8411TIP3    H246725   5.910   0.520  13.456 -0.6783 -0.2765 -0.1005
 8412TIP3   OH246726   6.603   3.748  13.445  0.0011  0.8078  0.2105
 8412TIP3    H146727   6.647   3.784  13.523 -0.4572  1.2728  0.2554
 8412TIP3    H246728   6.531   3.696  13.481 -1.2221  2.3588  0.0585
 8413TIP3   OH246729   6.383   3.080  16.914 -0.0576 -0.6685  0.2233
 8413TIP3    H146730   6.377   3.166  16.873  0.8202 -0.8703 -0.3397
 8413TIP3    H246731   6.353   3.094  17.004 -0.5270  0.0839 -0.0436
 8414TIP3   OH246732   0.257   3.525   1.312 -0.1425 -0.2276  0.2043
 8414TIP3    H146733   0.222   3.490   1.230 -0.3525  0.5742 -0.0467
 8414TIP3    H246734   0.206   3.604   1.329  0.7026  0.2672  0.4843
 8415TIP3   OH246735   0.536   5.893  15.292  0.5105 -0.1099  0.1560
 8415TIP3    H146736   0.623   5.888  15.333  0.0516 -1.7994  0.9404
 8415TIP3    H246737   0.551   5.870  15.200  1.1195  1.0957 -0.0600
 8416TIP3   OH246738   5.196   5.535   2.468  0.6979 -0.0291  0.2657
 8416TIP3    H146739   5.288   5.561   2.480  0.4347  0.6746  0.7478
 8416TIP3    H246740   5.170   5.577   2.386  0.9979 -0.7580 -0.2071
 8417TIP3   OH246741   2.431   4.685  11.725 -0.2732  0.0553 -0.3011
 8417TIP3    H146742   2.367   4.614  11.721 -1.5918  1.3088 -2.2413
 8417TIP3    H246743   2.396   4.752  11.667  1.7090  1.6821  0.3321
 8418TIP3   OH246744   4.519   0.309   0.979 -0.2091  0.2391 -0.2787
 8418TIP3    H146745   4.468   0.242   0.935 -0.9394  0.2998  0.4733
 8418TIP3    H246746   4.514   0.286   1.072 -1.0126  1.7094  0.0509
 8419TIP3   OH246747   5.470   4.621   2.756 -0.1204 -0.0076 -0.4903
 8419TIP3    H146748   5.461   4.685   2.827  1.1856  0.2228 -0.5252
 8419TIP3    H246749   5.389   4.629   2.707 -0.8222  0.2014  0.6763
 8420TIP3   OH246750   1.954   4.404   0.679 -0.2523  0.2724 -0.1848
 8420TIP3    H146751   1.934   4.357   0.760 -0.5294 -0.1878 -0.5186
 8420TIP3    H246752   1.937   4.496   0.700  0.8696  0.3106  0.6553
 8421TIP3   OH246753   1.496   1.926   1.748 -0.1458 -0.0690 -0.1721
 8421TIP3    H146754   1.500   1.850   1.689  0.6866  0.8113 -1.2769
 8421TIP3    H246755   1.538   1.895   1.828 -1.6680 -1.4115  0.1361
 8422TIP3   OH246756   0.169   3.859   3.736 -0.7986  0.2244 -0.2980
 8422TIP3    H146757   0.140   3.943   3.772 -1.7790 -0.0781 -0.3663
 8422TIP3    H246758   0.192   3.878   3.645 -0.4473  0.5358 -0.1460
 8423TIP3   OH246759   2.085   2.090  12.831  0.5247  0.5580  0.0410
 8423TIP3    H146760   2.052   2.070  12.919  0.3929  0.0086 -0.1371
 8423TIP3    H246761   2.159   2.032  12.819  0.6243  0.7264 -0.1650
 8424TIP3   OH246762   2.909   6.227  12.644  1.1570  0.1855 -0.8478
 8424TIP3    H146763   2.888   6.194  12.731  2.4108 -0.2223 -0.7041
 8424TIP3    H246764   2.850   6.302  12.632  1.3364  0.5470  0.5373
 8425TIP3   OH246765   4.485   0.712  14.462 -0.0125  0.2749  0.0634
 8425TIP3    H146766   4.427   0.665  14.402  0.1660 -1.8718  1.5333
 8425TIP3    H246767   4.568   0.664  14.457 -0.0519 -0.0451  2.1291
 8426TIP3   OH246768   1.501   2.786  13.696 -0.2632 -0.2673  0.4733
 8426TIP3    H146769   1.486   2.720  13.764  0.6639 -0.0647  0.8796
 8426TIP3    H246770   1.595   2.783  13.680 -0.3203  0.4603 -0.0175
 8427TIP3   OH246771   0.237   0.128  13.711 -0.2661 -0.3872  0.0114
 8427TIP3    H146772   0.245   0.110  13.804  0.2098 -3.3974 -0.5799
 8427TIP3    H246773   0.314   0.181  13.690 -0.1073 -0.1387  1.1916
 8428TIP3   OH246774   3.400   4.570   5.581  0.4503 -0.1427  0.3410
 8428TIP3    H146775   3.331   4.503   5.578 -0.2582  0.6300 -1.3931
 8428TIP3    H246776   3.470   4.530   5.631 -0.2308 -1.9615 -0.1188
 8429TIP3   OH246777   4.949   6.274  12.232  0.2829  0.3312  0.1264
 8429TIP3    H146778   4.898   6.322  12.297 -0.6795 -1.2005  0.5188
 8429TIP3    H246779   4.957   6.186  12.267 -0.6397 -0.6576 -2.0325
 8430TIP3   OH246780   1.911   6.698   2.225 -0.6929 -0.1301  0.1513
 8430TIP3    H146781   1.908   6.625   2.286 -1.2336 -0.8364 -0.7052
 8430TIP3    H246782   2.002   6.699   2.193  0.5962  2.4555  3.5763
 8431TIP3   OH246783   1.069   0.321   0.343  0.0213  0.3662 -0.4050
 8431TIP3    H146784   1.016   0.242   0.346 -0.8982  0.9937 -0.0205
 8431TIP3    H246785   1.136   0.307   0.410  0.5200 -0.5358 -1.0751
 8432TIP3   OH246786   4.205   4.804   2.067  0.8248 -0.3417 -0.6914
 8432TIP3    H146787   4.133   4.853   2.027  0.6466 -1.0787 -1.2816
 8432TIP3    H246788   4.167   4.766   2.146  0.6598 -0.4413 -0.8180
 8433TIP3   OH246789   3.172   5.983   6.008  0.8595 -0.1117 -0.4504
 8433TIP3    H146790   3.099   5.984   6.070  1.5397 -0.7557  0.3742
 8433TIP3    H246791   3.227   5.910   6.037 -0.5871 -2.7303 -3.8823
 8434TIP3   OH246792   2.550   6.169   4.297  0.3707  0.5792  0.1300
 8434TIP3    H146793   2.532   6.206   4.211  0.6881  3.0240  1.0764
 8434TIP3    H246794   2.643   6.150   4.297  0.5864  1.5794  0.2695
 8435TIP3   OH246795   1.092   5.198   0.514 -0.3348  0.2893 -0.3375
 8435TIP3    H146796   1.094   5.288   0.548 -1.0419 -0.2339  1.1582
 8435TIP3    H246797   1.184   5.175   0.503 -0.1757  1.5172 -1.6076
 8436TIP3   OH246798   0.868   0.691  11.860  0.0251  0.5237  0.7929
 8436TIP3    H146799   0.880   0.598  11.843 -2.7885  0.5275 -1.6876
 8436TIP3    H246800   0.920   0.734  11.792  1.3287  0.7936  1.9398
 8437TIP3   OH246801   2.869   4.897  15.519 -0.4243  0.1729 -0.5211
 8437TIP3    H146802   2.939   4.831  15.521  0.9749  1.6076 -0.6146
 8437TIP3    H246803   2.852   4.911  15.426 -0.9958 -0.3313 -0.4947
 8438TIP3   OH246804   0.182   0.909   1.935  0.0146 -0.2070  0.4924
 8438TIP3    H146805   0.095   0.936   1.907  0.4425  1.0998  0.3890
 8438TIP3    H246806   0.166   0.836   1.995 -1.1102 -0.3884 -0.0191
 8439TIP3   OH246807   6.252   2.248   0.085 -0.9162 -0.6643 -0.5389
 8439TIP3    H146808   6.260   2.343   0.075  0.6650 -0.7988 -0.6757
 8439TIP3    H246809   6.237   2.215  -0.004 -4.2691 -0.3255 -0.1666
 8440TIP3   OH246810   5.205   0.118  10.503  0.3792 -0.6172  0.8645
 8440TIP3    H146811   5.112   0.126  10.482  0.3711 -1.7774  0.4327
 8440TIP3    H246812   5.247   0.181  10.445  0.1336 -2.2128 -1.1197
 8441TIP3   OH246813   5.803   2.532   4.976 -0.1409  0.6161  0.3537
 8441TIP3    H146814   5.742   2.464   4.948 -0.4266 -0.2529  2.9387
 8441TIP3    H246815   5.874   2.530   4.912 -0.3367 -1.8779  0.1866
 8442TIP3   OH246816   3.584   5.123  12.098 -0.5745 -0.6552  0.2207
 8442TIP3    H146817   3.625   5.071  12.168 -3.4381 -1.8018  1.1211
 8442TIP3    H246818   3.562   5.059  12.031 -0.5895  0.0069 -0.4050
 8443TIP3   OH246819   5.815   2.373  15.418 -0.0475  0.3505 -0.8176
 8443TIP3    H146820   5.813   2.385  15.513  0.0909  0.8650 -0.8793
 8443TIP3    H246821   5.904   2.343  15.401  0.4783  1.9732 -0.9837
 8444TIP3   OH246822   4.534   3.711  15.700  0.2751  0.0742 -0.1887
 8444TIP3    H146823   4.450   3.753  15.719 -0.1265  0.1734 -2.0948
 8444TIP3    H246824   4.556   3.664  15.780 -1.1901  0.7390  0.6156
 8445TIP3   OH246825   6.699   0.079   3.708  0.1063  0.1658  0.3686
 8445TIP3    H146826   6.680  -0.014   3.696 -2.0365  0.6407 -0.1053
 8445TIP3    H246827   6.630   0.124   3.659  1.6107  2.0068 -0.1191
 8446TIP3   OH246828   1.662   1.526  11.677 -0.2231  0.3168 -0.1764
 8446TIP3    H146829   1.737   1.474  11.705 -0.9572 -0.1813  0.9391
 8446TIP3    H246830   1.593   1.461  11.662 -0.0468  0.6455 -2.5325
 8447TIP3   OH246831   3.092   6.526   5.523  0.2321 -0.7942 -0.4699
 8447TIP3    H146832   3.008   6.481   5.511 -0.2418  0.2015 -0.9561
 8447TIP3    H246833   3.121   6.501   5.611 -0.0505 -1.9877 -0.7070
 8448TIP3   OH246834   5.917   1.227  15.157  0.3200 -0.0832 -0.9385
 8448TIP3    H146835   5.883   1.186  15.236  1.2060  1.1492  0.1098
 8448TIP3    H246836   5.906   1.321  15.173  3.2488  0.2993 -0.9922
 8449TIP3   OH246837   1.238   0.297   6.117 -0.4970 -0.3664  0.0835
 8449TIP3    H146838   1.257   0.264   6.029  2.0282 -0.8695  0.7757
 8449TIP3    H246839   1.215   0.219   6.168 -1.9713 -0.0747 -0.1114
 8450TIP3   OH246840   5.244   5.771   4.272  0.0367  0.1482 -0.2762
 8450TIP3    H146841   5.308   5.738   4.208  0.6777  1.7568 -0.4733
 8450TIP3    H246842   5.268   5.728   4.354  1.2398  0.5520 -0.3975
 8451TIP3   OH246843   5.520   4.043   3.073 -0.0923 -0.7633 -0.0972
 8451TIP3    H146844   5.507   4.017   3.164  1.3841 -1.4308 -0.0621
 8451TIP3    H246845   5.606   4.084   3.072 -0.8970  0.9710 -0.8488
 8452TIP3   OH246846   3.086   4.897   5.132 -1.0113  0.5600  0.0425
 8452TIP3    H146847   2.994   4.915   5.113 -1.5249 -1.1860  0.7800
 8452TIP3    H246848   3.134   4.944   5.063 -2.5565 -0.2655 -1.6588
 8453TIP3   OH246849   4.598   2.980   0.106  0.4370 -0.0953 -0.1014
 8453TIP3    H146850   4.634   3.026   0.030  0.0695  0.6779  0.1936
 8453TIP3    H246851   4.526   3.035   0.135 -1.3209 -1.8651 -0.9782
 8454TIP3   OH246852   1.149   6.366   4.480  0.3842  0.0631 -0.4047
 8454TIP3    H146853   1.227   6.391   4.430  0.2414  0.7862 -0.2730
 8454TIP3    H246854   1.142   6.433   4.548  0.3687 -0.7090  0.3627
 8455TIP3   OH246855   1.519   5.994  12.410  0.2165 -0.0511 -0.3676
 8455TIP3    H146856   1.511   6.047  12.331 -1.2467  0.9923  0.4507
 8455TIP3    H246857   1.440   5.940  12.411  0.7470 -0.8290 -0.1823
 8456TIP3   OH246858   2.921   4.971  16.721  0.0926  0.1460  0.2621
 8456TIP3    H146859   2.910   4.914  16.797  2.9787 -1.5215 -0.5278
 8456TIP3    H246860   3.003   5.017  16.737  1.8485 -1.8100 -2.8448
 8457TIP3   OH246861   2.031   5.157   0.059  0.2687  0.2739  0.1927
 8457TIP3    H146862   1.995   5.069   0.054  0.6590  0.0899  0.5612
 8457TIP3    H246863   2.109   5.148   0.114  0.7430  0.7059 -0.3955
 8458TIP3   OH246864   1.692   3.978  15.663 -0.5493  0.0534 -0.4471
 8458TIP3    H146865   1.724   4.066  15.682  0.5794 -0.2783 -0.7371
 8458TIP3    H246866   1.696   3.933  15.748  1.0765 -0.3759 -0.7202
 8459TIP3   OH246867   3.946   4.422   1.133 -0.5572 -0.1793  0.0263
 8459TIP3    H146868   4.011   4.377   1.080  0.3557  0.3966  0.6594
 8459TIP3    H246869   3.885   4.459   1.069  0.2102  0.0204 -0.6005
 8460TIP3   OH246870   4.968   6.005   3.851  0.0025 -0.0681 -0.2785
 8460TIP3    H146871   5.013   5.952   3.916 -1.6206 -0.5301  0.4924
 8460TIP3    H246872   4.984   5.960   3.768  0.9230 -0.2368 -0.0137
 8461TIP3   OH246873   0.673   4.444  13.109  0.4033 -0.1274 -0.1483
 8461TIP3    H146874   0.724   4.369  13.140 -0.0939 -0.2079  0.4800
 8461TIP3    H246875   0.584   4.410  13.097  0.1755  0.3572  0.1447
 8462TIP3   OH246876   5.950   1.692   4.093  0.0113 -0.7396  0.0898
 8462TIP3    H146877   5.955   1.623   4.159  0.5882  0.2732  1.1076
 8462TIP3    H246878   6.039   1.724   4.084 -0.4276  0.6152  0.4071
 8463TIP3   OH246879   3.577   5.778  17.093 -0.5767 -0.1742 -0.3890
 8463TIP3    H146880   3.538   5.794  17.179 -2.3756  0.0353 -1.2348
 8463TIP3    H246881   3.585   5.865  17.054  0.5271 -0.2393 -0.3234
 8464TIP3   OH246882   2.059   1.247  12.569 -0.4852  0.1778 -0.1255
 8464TIP3    H146883   2.016   1.167  12.599  0.0660 -0.0617  0.0435
 8464TIP3    H246884   2.123   1.217  12.505 -0.6379  0.5386 -0.4490
 8465TIP3   OH246885   0.510   5.118   4.903  0.0707 -0.1511 -0.2288
 8465TIP3    H146886   0.554   5.155   4.980 -0.1519  1.4516 -0.8679
 8465TIP3    H246887   0.548   5.031   4.894 -0.9960 -0.9921  2.6320
 8466TIP3   OH246888   5.783   5.229   3.667  0.6293  0.6722  0.0911
 8466TIP3    H146889   5.722   5.262   3.601 -0.9463  0.6212  1.4786
 8466TIP3    H246890   5.744   5.255   3.750  2.0533 -0.1722  1.0411
 8467TIP3   OH246891   2.962   0.059   2.861 -0.0667 -0.0252 -0.0529
 8467TIP3    H146892   2.956   0.026   2.951 -0.0304  1.0718  0.3603
 8467TIP3    H246893   2.882   0.028   2.819  0.8079 -2.1926 -0.2237
 8468TIP3   OH246894   0.489   6.764   3.490 -0.9940 -0.4814  0.5942
 8468TIP3    H146895   0.511   6.836   3.549 -1.8213  1.5885 -1.5109
 8468TIP3    H246896   0.560   6.702   3.500  3.0065  3.3786 -1.8932
 8469TIP3   OH246897   0.722   1.528   4.265 -0.1337 -0.1608  0.4683
 8469TIP3    H146898   0.706   1.584   4.189  2.0369 -1.1488 -0.7490
 8469TIP3    H246899   0.639   1.529   4.313 -0.5355  3.1223 -0.1382
 8470TIP3   OH246900   1.610   4.362   0.719  0.0083 -0.4675 -0.0996
 8470TIP3    H146901   1.655   4.370   0.803 -2.0159 -0.2290  0.9782
 8470TIP3    H246902   1.581   4.451   0.699 -0.2769 -0.6769 -0.6188
 8471TIP3   OH246903   6.797   5.691  13.664  0.9357  0.0652  0.2842
 8471TIP3    H146904   6.758   5.668  13.749 -0.0277  1.8798  0.3579
 8471TIP3    H246905   6.727   5.677  13.601  0.1473  3.1265  0.3903
 8472TIP3   OH246906   3.713   3.798  17.104  0.5352 -0.0922  0.0538
 8472TIP3    H146907   3.786   3.860  17.107  1.2343 -0.9210  0.4918
 8472TIP3    H246908   3.737   3.729  17.167 -1.1089  0.1540  0.9959
 8473TIP3   OH246909   1.994   5.711  14.491  0.4033  0.1090 -0.1696
 8473TIP3    H146910   1.914   5.719  14.543  0.7513  2.5481  0.0626
 8473TIP3    H246911   2.055   5.665  14.548  0.7195  2.5827  1.6198
 8474TIP3   OH246912   5.836   2.330  13.601 -0.3147  0.6215 -0.2251
 8474TIP3    H146913   5.891   2.266  13.646 -0.1674  0.9582  0.0751
 8474TIP3    H246914   5.794   2.280  13.531  1.1605  0.5719 -1.1130
 8475TIP3   OH246915   5.227   0.343   2.372  0.3307  0.0459 -0.5037
 8475TIP3    H146916   5.278   0.275   2.415 -0.6013  0.4160  1.2236
 8475TIP3    H246917   5.285   0.378   2.304  0.7432 -2.6072 -1.5847
 8476TIP3   OH246918   3.007   2.111   3.060  0.3443  0.1306  0.8360
 8476TIP3    H146919   3.027   2.033   3.113 -2.3335  0.0509  1.7768
 8476TIP3    H246920   2.948   2.079   2.992  2.3661  0.5973 -1.2087
 8477TIP3   OH246921   5.301   5.213  17.082  0.5794 -0.3110 -0.2963
 8477TIP3    H146922   5.335   5.296  17.048  2.2682 -0.8834 -0.0359
 8477TIP3    H246923   5.257   5.173  17.007 -0.3507  0.8638 -0.3939
 8478TIP3   OH246924   3.582   1.457  13.350  0.0819  0.1181 -0.1622
 8478TIP3    H146925   3.495   1.421  13.365 -0.6762  2.3832  1.1028
 8478TIP3    H246926   3.567   1.541  13.308  1.6634  0.4820 -0.0508
 8479TIP3   OH246927   5.250   2.882   6.142  0.4029  0.4618  0.0070
 8479TIP3    H146928   5.212   2.795   6.160 -0.1631  0.4459 -1.2129
 8479TIP3    H246929   5.291   2.907   6.224  0.2707 -0.8199  0.4838
 8480TIP3   OH246930   2.478   1.212   0.822 -0.4617 -0.0292 -0.8207
 8480TIP3    H146931   2.573   1.213   0.822 -0.4589  2.4413 -0.0621
 8480TIP3    H246932   2.455   1.127   0.860  1.3937 -1.3597 -2.5484
 8481TIP3   OH246933   4.010   0.478   2.812 -0.0599 -0.1024  0.5245
 8481TIP3    H146934   3.929   0.493   2.763 -0.0121 -1.9806 -0.1611
 8481TIP3    H246935   4.010   0.545   2.880 -1.3877  0.9341 -0.4730
 8482TIP3   OH246936   0.167   0.155   1.814 -0.5372 -0.2514 -0.0497
 8482TIP3    H146937   0.079   0.189   1.799 -0.4479  0.3322  0.7293
 8482TIP3    H246938   0.214   0.174   1.733 -0.9248  0.0927 -0.1920
 8483TIP3   OH246939   6.016   4.938  16.106 -0.0563  0.4251  0.6613
 8483TIP3    H146940   5.945   4.929  16.042  1.0643  0.5097 -0.6388
 8483TIP3    H246941   6.022   4.853  16.148  1.5972 -0.8252 -1.9708
 8484TIP3   OH246942   0.552   0.241  13.309 -0.4849  0.1213 -0.3868
 8484TIP3    H146943   0.543   0.331  13.341  1.5867  0.7673 -1.5646
 8484TIP3    H246944   0.621   0.203  13.364 -1.8774 -1.0287  0.6217
 8485TIP3   OH246945   0.679   1.804   5.817 -0.1196  0.7026  0.2574
 8485TIP3    H146946   0.595   1.792   5.862 -0.1663  0.3041  0.0591
 8485TIP3    H246947   0.744   1.776   5.882 -0.1219  1.2624  0.5063
 8486TIP3   OH246948   5.446   4.526   1.572  0.4470 -0.0680 -0.6078
 8486TIP3    H146949   5.432   4.437   1.539 -1.5904 -0.3735  0.9691
 8486TIP3    H246950   5.541   4.533   1.584  0.6306 -1.9665 -0.8886
 8487TIP3   OH246951   3.320   5.957   4.928 -0.0359 -0.7834 -0.3302
 8487TIP3    H146952   3.331   5.950   4.833 -0.2073 -1.9443 -0.2757
 8487TIP3    H246953   3.284   6.044   4.942  1.7367  0.1215 -1.1716
 8488TIP3   OH246954   6.668   6.101   4.490  0.3730  0.0720 -0.0152
 8488TIP3    H146955   6.605   6.099   4.418  0.7828  0.3893 -0.3849
 8488TIP3    H246956   6.620   6.139   4.564  0.3027  0.8784 -0.4670
 8489TIP3   OH246957   0.581   6.280   5.957  0.1873 -0.1039 -0.4115
 8489TIP3    H146958   0.493   6.300   5.988 -0.2299 -0.4087 -1.3976
 8489TIP3    H246959   0.596   6.189   5.983  0.6775  0.3074  0.8061
 8490TIP3   OH246960   4.838   1.507   4.116 -0.4301  0.1480 -0.2180
 8490TIP3    H146961   4.890   1.432   4.143  1.1250  1.3949  0.3248
 8490TIP3    H246962   4.859   1.519   4.023 -2.3166 -1.3607 -0.8807
 8491TIP3   OH246963   2.549   2.848  14.644  0.4903 -0.4063 -0.3750
 8491TIP3    H146964   2.552   2.803  14.560  0.2894 -0.5657 -0.2966
 8491TIP3    H246965   2.562   2.940  14.622  0.3346 -0.4356 -0.5898
 8492TIP3   OH246966   5.581   3.287   1.171 -0.1294  0.2093 -0.9696
 8492TIP3    H146967   5.643   3.220   1.141 -0.9897 -1.0369 -0.0204
 8492TIP3    H246968   5.495   3.244   1.165 -0.3197 -0.3322  3.7762
 8493TIP3   OH246969   4.256   0.781   0.651 -0.1664 -0.7408  0.1326
 8493TIP3    H146970   4.328   0.773   0.588 -0.9068 -3.1898 -0.4570
 8493TIP3    H246971   4.298   0.768   0.736  0.3940 -0.1336 -0.0419
 8494TIP3   OH246972   4.435   2.051   1.135 -0.0238 -0.2655 -0.3121
 8494TIP3    H146973   4.504   2.102   1.093  0.0233  1.3175  1.6276
 8494TIP3    H246974   4.368   2.041   1.068  1.4816 -0.6496 -1.7868
 8495TIP3   OH246975   6.772   2.846  15.300  0.6912 -0.0887 -0.2352
 8495TIP3    H146976   6.720   2.797  15.238 -1.3139 -1.6989  2.6129
 8495TIP3    H246977   6.746   2.937  15.287 -2.0644 -0.7563  0.4050
 8496TIP3   OH246978   4.985   3.697  15.154  0.3921 -0.3007 -0.4601
 8496TIP3    H146979   4.904   3.690  15.103  0.3731 -0.5386 -0.3983
 8496TIP3    H246980   4.979   3.782  15.196  0.8918  0.3627 -1.6924
 8497TIP3   OH246981   2.649   2.595   6.393 -0.7756 -0.3231  0.3024
 8497TIP3    H146982   2.562   2.588   6.353 -0.5794 -0.0932 -0.1788
 8497TIP3    H246983   2.660   2.514   6.442 -0.7969 -0.8618 -0.5778
 8498TIP3   OH246984   0.854   5.523  17.262 -0.4167  0.5788 -0.0809
 8498TIP3    H146985   0.781   5.532  17.323 -1.4957  0.4560 -1.3179
 8498TIP3    H246986   0.813   5.494  17.180  1.0897 -0.0731 -0.6266
 8499TIP3   OH246987   5.641   4.284   0.297  0.1697 -0.1790  0.0672
 8499TIP3    H146988   5.616   4.245   0.214 -0.8284 -0.5494  0.5378
 8499TIP3    H246989   5.699   4.219   0.337 -0.6142 -0.7019  0.3620
 8500TIP3   OH246990   2.082   2.199   3.373 -0.3456  0.4056 -0.5491
 8500TIP3    H146991   1.987   2.193   3.387 -0.3106  2.7924  0.9494
 8500TIP3    H246992   2.095   2.163   3.285 -2.3911 -1.6657 -0.0615
 8501TIP3   OH246993   2.388   4.035   0.980  0.0170 -0.4412  0.0581
 8501TIP3    H146994   2.358   3.953   1.018 -1.3698  0.5343  1.1478
 8501TIP3    H246995   2.311   4.072   0.937  0.5310  0.4250 -0.1414
 8502TIP3   OH246996   1.933   5.987   1.882  0.6532 -0.2659 -0.0207
 8502TIP3    H146997   1.894   6.068   1.916  0.4409 -0.1982 -0.4313
 8502TIP3    H246998   1.941   5.931   1.959 -0.1109 -0.2216  0.0954
 8503TIP3   OH246999   0.870   0.251  12.019 -0.7011  0.3750 -0.2758
 8503TIP3    H147000   0.951   0.284  12.057 -0.8454  1.1732 -0.6573
 8503TIP3    H247001   0.844   0.180  12.078  1.9673 -2.0826 -1.9483
 8504TIP3   OH247002   3.396   3.321  16.091  0.8038 -0.0128  0.4544
 8504TIP3    H147003   3.388   3.336  15.997  2.2082 -0.4694  0.2491
 8504TIP3    H247004   3.306   3.309  16.121  0.3559 -0.0260 -0.8562
 8505TIP3   OH247005   0.243   6.782   5.391  0.1627 -0.2550 -0.3360
 8505TIP3    H147006   0.210   6.828   5.314  1.4511 -0.6072 -1.1216
 8505TIP3    H247007   0.245   6.690   5.365  2.3139 -0.1841 -0.5560
 8506TIP3   OH247008   4.116   3.903   5.896 -0.5196  0.1401  0.6032
 8506TIP3    H147009   4.026   3.927   5.877  0.4130  2.1153 -1.5840
 8506TIP3    H247010   4.141   3.960   5.969 -0.4027  1.1712 -0.2182
 8507TIP3   OH247011   5.457   4.416  10.271  0.1591  0.6485  0.7152
 8507TIP3    H147012   5.397   4.485  10.242  0.2910 -0.1217 -1.4842
 8507TIP3    H247013   5.400   4.346  10.303 -0.2069 -0.4161 -2.1300
 8508TIP3   OH247014   0.986   1.519  13.316 -0.2983  0.3563  0.5150
 8508TIP3    H147015   0.964   1.612  13.308  1.5946  0.9170  1.7186
 8508TIP3    H247016   1.008   1.507  13.408 -1.0038 -1.4142  0.4810
 8509TIP3   OH247017   1.307   1.652   1.721 -0.0147  0.4909  0.0594
 8509TIP3    H147018   1.308   1.640   1.816 -2.4731  2.2991  0.3349
 8509TIP3    H247019   1.400   1.662   1.698  0.6499 -0.4204  2.1761
 8510TIP3   OH247020   1.595   3.406   3.583  0.7175 -0.4411 -0.3242
 8510TIP3    H147021   1.676   3.419   3.533  0.7169  1.1781  0.0525
 8510TIP3    H247022   1.590   3.483   3.640 -0.2975 -1.2892  0.7600
 8511TIP3   OH247023   4.254   2.242   4.015  0.0145 -0.3215  0.1301
 8511TIP3    H147024   4.167   2.261   3.979  1.0708  0.7497 -1.8892
 8511TIP3    H247025   4.299   2.326   4.017  1.5199 -1.1005 -0.2077
 8512TIP3   OH247026   4.890   5.046  16.079 -0.2353  0.0757  0.0668
 8512TIP3    H147027   4.909   5.094  16.159  0.7466 -0.0700 -0.0616
 8512TIP3    H247028   4.842   4.969  16.107 -1.3355  0.8486  0.3349
 8513TIP3   OH247029   0.872   4.112   0.710 -0.0406  0.2781 -0.0455
 8513TIP3    H147030   0.893   4.107   0.803  2.1124 -1.4184 -0.5735
 8513TIP3    H247031   0.953   4.144   0.669 -0.2139 -1.2077 -1.5863
 8514TIP3   OH247032   3.387   2.257   2.477  0.7081  0.5055  0.2945
 8514TIP3    H147033   3.308   2.272   2.529  0.0169  0.3677 -0.7038
 8514TIP3    H247034   3.459   2.267   2.539 -0.1562 -0.7641  1.5248
 8515TIP3   OH247035   1.105   6.390   0.029  0.3388  0.1488  0.3000
 8515TIP3    H147036   1.032   6.330   0.044  0.4028  0.4648  1.9712
 8515TIP3    H247037   1.069   6.458  -0.027 -0.8347  0.6144  1.5866
 8516TIP3   OH247038   2.428   3.904  11.777  0.3722 -0.1376 -0.1154
 8516TIP3    H147039   2.455   3.827  11.827  1.5756  0.2983 -0.0768
 8516TIP3    H247040   2.334   3.893  11.765  0.4736 -1.4267  0.2105
 8517TIP3   OH247041   4.393   2.192  15.644 -0.2430  0.0035  0.0338
 8517TIP3    H147042   4.355   2.196  15.732  0.9040 -0.1215  0.5395
 8517TIP3    H247043   4.433   2.106  15.639 -0.5315 -0.0914 -0.7135
 8518TIP3   OH247044   6.664   1.317   1.926 -0.4845  0.0333 -0.5297
 8518TIP3    H147045   6.617   1.259   1.985  0.8074 -1.0574 -0.5558
 8518TIP3    H247046   6.614   1.316   1.845 -1.3652  0.2595  0.0120
 8519TIP3   OH247047   2.873   3.907   3.545  0.1437 -0.1923 -0.1039
 8519TIP3    H147048   2.868   3.957   3.463  0.4049  0.8775  0.5164
 8519TIP3    H247049   2.955   3.934   3.585  0.3335 -1.2075  0.2031
 8520TIP3   OH247050   3.430   3.721  17.291  0.2117  0.0117 -0.0680
 8520TIP3    H147051   3.505   3.666  17.267  2.6497  3.7846 -1.5801
 8520TIP3    H247052   3.362   3.696  17.228  0.8139 -2.1322  0.0875
 8521TIP3   OH247053   0.191   5.520   0.726 -0.9978 -0.3806 -0.1155
 8521TIP3    H147054   0.241   5.595   0.760 -0.9834 -0.4305 -0.0286
 8521TIP3    H247055   0.243   5.489   0.652 -0.9061 -0.4244 -0.0332
 8522TIP3   OH247056   1.718   6.109   5.161 -0.0457  0.3194 -0.5778
 8522TIP3    H147057   1.804   6.138   5.130 -0.8825  1.6784 -1.6869
 8522TIP3    H247058   1.676   6.188   5.193 -0.4576 -0.5342  1.0549
 8523TIP3   OH247059   6.473   4.269   1.145  0.4723  0.2262 -0.3339
 8523TIP3    H147060   6.380   4.279   1.123 -0.0485 -0.6495  1.3993
 8523TIP3    H247061   6.493   4.178   1.122  1.1482  0.6416 -1.4803
 8524TIP3   OH247062   2.589   0.428  14.500  0.6579 -0.0745  0.8632
 8524TIP3    H147063   2.677   0.427  14.536 -0.2524  1.8415  3.2774
 8524TIP3    H247064   2.537   0.377  14.561  0.1453 -1.6177 -0.8150
 8525TIP3   OH247065   0.163   3.883  10.751 -0.0426 -0.2176 -0.1260
 8525TIP3    H147066   0.139   3.792  10.737 -2.0441  0.0231  1.4353
 8525TIP3    H247067   0.123   3.931  10.679 -0.8273 -0.3169  0.2444
 8526TIP3   OH247068   6.123   3.407  11.044  0.0597  0.2921 -0.3765
 8526TIP3    H147069   6.053   3.454  11.090 -1.6874 -1.4669 -1.1457
 8526TIP3    H247070   6.125   3.321  11.086 -0.3703 -0.7328 -2.3674
 8527TIP3   OH247071   0.014   4.100  14.529  0.2205 -0.5150  0.4449
 8527TIP3    H147072   0.004   4.164  14.459  0.7415 -1.2740 -0.3328
 8527TIP3    H247073  -0.045   4.130  14.598  1.2953  1.4117  0.5459
 8528TIP3   OH247074   2.145   0.213  14.953 -0.0454  0.0079 -0.2238
 8528TIP3    H147075   2.081   0.232  14.885 -1.5579 -1.4157  0.7791
 8528TIP3    H247076   2.140   0.289  15.011 -0.3656  0.1950 -0.4918
 8529TIP3   OH247077   3.194   1.994   0.372  0.0105  0.0156  0.4002
 8529TIP3    H147078   3.117   2.030   0.416 -1.3566 -0.4188 -1.5824
 8529TIP3    H247079   3.250   2.070   0.355 -0.2750  0.4237  1.2823
 8530TIP3   OH247080   6.715   6.753   2.597 -0.7185 -0.4105 -0.7115
 8530TIP3    H147081   6.731   6.791   2.683  0.0642  2.5316 -2.0883
 8530TIP3    H247082   6.628   6.714   2.603 -0.6763 -0.1943  1.3813
 8531TIP3   OH247083   2.968   5.433  11.383  0.1418  0.1079  0.1406
 8531TIP3    H147084   2.933   5.510  11.429 -3.5935 -0.7949 -1.0173
 8531TIP3    H247085   2.954   5.452  11.290  1.6384 -0.8547 -0.2870
 8532TIP3   OH247086   3.168   4.861   4.334  0.9780  0.0514 -0.2613
 8532TIP3    H147087   3.119   4.882   4.413  1.7113  0.6802  0.0350
 8532TIP3    H247088   3.210   4.778   4.353 -1.3173 -1.3597 -1.1479
 8533TIP3   OH247089   1.066   2.213   2.380 -0.3527 -0.3199 -0.1831
 8533TIP3    H147090   1.019   2.243   2.303 -0.8157  0.1450  0.2793
 8533TIP3    H247091   1.156   2.242   2.366 -0.5153  0.0905 -0.3746
 8534TIP3   OH247092   3.383   5.520  11.219 -0.5865  0.1611  0.2179
 8534TIP3    H147093   3.320   5.456  11.187  0.1419 -0.1510 -0.6080
 8534TIP3    H247094   3.395   5.581  11.146  1.3568 -0.7565 -0.2635
 8535TIP3   OH247095   3.665   1.658  13.123 -0.2466  0.0265  0.4247
 8535TIP3    H147096   3.687   1.717  13.052 -2.1482  0.9837  0.6192
 8535TIP3    H247097   3.720   1.687  13.196  0.4796  0.1021 -0.1501
 8536TIP3   OH247098   3.923   0.479  15.623 -0.2206  0.1858  0.2688
 8536TIP3    H147099   3.969   0.396  15.634 -1.6838 -0.3235  3.0680
 8536TIP3    H247100   3.987   0.546  15.646  0.1269 -0.3216  0.7745
 8537TIP3   OH247101   2.231   3.952   3.659  0.8084  0.1187  0.5561
 8537TIP3    H147102   2.181   4.033   3.664  0.1926 -0.2295  0.1404
 8537TIP3    H247103   2.250   3.929   3.750 -2.7366 -1.5388  0.9902
 8538TIP3   OH247104   5.411   0.088   1.850  0.2108 -0.1140 -0.2117
 8538TIP3    H147105   5.423   0.181   1.832  2.4080 -0.1678  0.8371
 8538TIP3    H247106   5.448   0.044   1.773  0.0678 -0.1467 -0.2621
 8539TIP3   OH247107   0.546   4.043   5.627  0.4313  0.0390 -0.6541
 8539TIP3    H147108   0.498   4.092   5.693  1.4118  0.5699 -0.3193
 8539TIP3    H247109   0.545   4.099   5.550 -1.6614 -1.0631 -1.4447
 8540TIP3   OH247110   6.766   0.368  11.305 -0.1494  0.2337 -0.2318
 8540TIP3    H147111   6.785   0.421  11.383 -0.0803  0.4505 -0.3942
 8540TIP3    H247112   6.796   0.280  11.327 -0.4278  0.2238  0.1107
 8541TIP3   OH247113   5.619   1.660   1.026 -0.1211 -0.3877  0.2419
 8541TIP3    H147114   5.668   1.600   0.968 -1.3616 -1.5998  0.4333
 8541TIP3    H247115   5.621   1.617   1.112 -0.9943 -0.1381  0.3882
 8542TIP3   OH247116   6.230   2.947   0.299  0.1911  0.0377  0.0809
 8542TIP3    H147117   6.197   2.871   0.347  1.4294  0.1470  1.1312
 8542TIP3    H247118   6.269   2.909   0.220 -3.3519 -0.0074 -1.7689
 8543TIP3   OH247119   3.571   2.108  14.770  0.1193 -0.5124 -0.0182
 8543TIP3    H147120   3.639   2.175  14.774  0.1126 -0.5566  1.0554
 8543TIP3    H247121   3.618   2.026  14.787  0.0863 -0.7550 -1.0717
 8544TIP3   OH247122   6.167   6.219   5.248  0.0594 -0.1802 -0.7650
 8544TIP3    H147123   6.072   6.213   5.234 -0.2484  0.1259  1.0674
 8544TIP3    H247124   6.204   6.153   5.188 -1.2671 -0.0530 -1.7518
 8545TIP3   OH247125   4.076   5.679   4.471 -0.0988 -0.6244  0.0545
 8545TIP3    H147126   4.038   5.745   4.529 -1.0174 -0.7730 -0.3758
 8545TIP3    H247127   4.167   5.707   4.460 -0.8887  1.4768 -1.3980
 8546TIP3   OH247128   1.556   4.376   3.272 -0.0666 -0.7816  0.2516
 8546TIP3    H147129   1.570   4.300   3.216  2.7977  1.2911 -2.0471
 8546TIP3    H247130   1.644   4.411   3.287 -1.0938  0.6770  3.2877
 8547TIP3   OH247131   2.877   2.579   1.225 -0.0521  0.0462 -0.4713
 8547TIP3    H147132   2.968   2.555   1.208 -0.0369 -1.2576  1.3132
 8547TIP3    H247133   2.882   2.642   1.297 -0.6078 -0.4543  0.0031
 8548TIP3   OH247134   5.864   1.297  16.209  0.1514 -0.1612 -0.2407
 8548TIP3    H147135   5.954   1.326  16.199  0.8017 -1.3313  1.9556
 8548TIP3    H247136   5.856   1.274  16.302 -1.9231 -1.6265 -0.7418
 8549TIP3   OH247137   1.664   5.022  15.146  0.1921 -0.1272  0.8891
 8549TIP3    H147138   1.649   4.935  15.108 -0.2900  0.4055 -0.1489
 8549TIP3    H247139   1.634   5.083  15.079  1.3245  0.8619  1.2601
 8550TIP3   OH247140   4.844   3.922   1.402  0.5289  0.4349  0.3951
 8550TIP3    H147141   4.763   3.880   1.433  0.2800  0.8184  0.2639
 8550TIP3    H247142   4.914   3.867   1.438  0.1979 -0.2815 -0.0564
 8551TIP3   OH247143   0.382   0.103   4.784  0.2937  0.8814 -0.3140
 8551TIP3    H147144   0.459   0.050   4.802  0.6074  1.4253 -0.0405
 8551TIP3    H247145   0.383   0.116   4.689 -0.2462 -0.2941 -0.4856
 8552TIP3   OH247146   3.324   6.123   5.810 -0.0802  0.0833 -0.0234
 8552TIP3    H147147   3.380   6.079   5.746 -0.7607  0.8408 -1.1693
 8552TIP3    H247148   3.256   6.060   5.831  0.4826 -0.3805  0.3963
 8553TIP3   OH247149   1.732   2.848  15.845  0.4781 -0.2009  0.5764
 8553TIP3    H147150   1.658   2.825  15.900  1.3140 -1.3002  1.2566
 8553TIP3    H247151   1.794   2.775  15.855  1.1310  0.1194 -0.9179
 8554TIP3   OH247152   0.335   2.233   6.212  0.2162  0.2211  0.3010
 8554TIP3    H147153   0.399   2.246   6.282 -0.4426  1.9761  0.5943
 8554TIP3    H247154   0.251   2.259   6.250 -0.4215 -0.4978 -0.5913
 8555TIP3   OH247155   0.157   4.213  16.858 -0.2653  0.0239 -0.0415
 8555TIP3    H147156   0.129   4.273  16.927  0.0482  0.1933 -0.0575
 8555TIP3    H247157   0.211   4.267  16.800 -1.8142  0.2614 -1.2969
 8556TIP3   OH247158   1.083   1.030   0.953  0.5088 -0.1608 -0.0076
 8556TIP3    H147159   1.127   0.963   1.005  0.2022 -0.2687  0.1115
 8556TIP3    H247160   0.990   1.010   0.960  0.3342  0.9079  0.9191
 8557TIP3   OH247161   2.601   4.303   4.495 -0.8094 -0.0189 -0.0709
 8557TIP3    H147162   2.544   4.242   4.447 -0.2982 -0.5735  0.0238
 8557TIP3    H247163   2.543   4.373   4.522 -1.7738 -1.3480  1.3944
 8558TIP3   OH247164   2.582   4.791   4.553  0.6341  0.2313 -0.0630
 8558TIP3    H147165   2.565   4.747   4.470 -1.4617  0.2143  0.3544
 8558TIP3    H247166   2.540   4.876   4.544  0.6394  0.3325  0.8735
 8559TIP3   OH247167   0.317   3.376   1.914  0.1161 -0.5193 -0.1460
 8559TIP3    H147168   0.296   3.469   1.904  0.6431 -0.4810 -0.9984
 8559TIP3    H247169   0.359   3.370   2.000  3.5100  0.6930 -1.6433
 8560TIP3   OH247170   1.624   3.957   2.129 -0.3639  0.4910 -0.0343
 8560TIP3    H147171   1.585   4.023   2.071  1.3175 -1.2239 -3.2176
 8560TIP3    H247172   1.695   4.004   2.173 -0.3226  1.2843 -0.9210
 8561TIP3   OH247173   1.542   1.205  12.929 -0.2336  0.1630 -0.6769
 8561TIP3    H147174   1.474   1.148  12.891  0.4371  0.2851 -2.0730
 8561TIP3    H247175   1.578   1.154  13.001  0.3145 -1.1890 -1.8735
 8562TIP3   OH247176   1.203   5.114   5.713 -0.0006 -0.3923 -0.2347
 8562TIP3    H147177   1.279   5.073   5.671  1.8831  2.0764  0.6466
 8562TIP3    H247178   1.133   5.108   5.647  1.6836 -0.3864 -2.0588
 8563TIP3   OH247179   4.146   3.473  11.100 -0.0794  0.0216  0.0925
 8563TIP3    H147180   4.099   3.392  11.080  1.5684 -0.9035 -0.1613
 8563TIP3    H247181   4.172   3.463  11.192  0.9146 -0.1691 -0.1992
 8564TIP3   OH247182   0.573   2.541   1.648 -0.0961  0.6901 -0.5959
 8564TIP3    H147183   0.490   2.588   1.643 -0.1935  0.8995  2.2698
 8564TIP3    H247184   0.634   2.595   1.598 -0.6150  3.0166  1.2195
 8565TIP3   OH247185   4.452   5.680   2.688 -0.6141 -0.2688 -0.2690
 8565TIP3    H147186   4.517   5.712   2.625 -0.6229 -1.5588 -0.9332
 8565TIP3    H247187   4.503   5.633   2.754 -0.7332  0.0169  0.0321
 8566TIP3   OH247188   5.899   4.143   0.430 -0.3809  0.1631 -0.6502
 8566TIP3    H147189   5.977   4.111   0.475 -0.6159  1.0001  0.3557
 8566TIP3    H247190   5.841   4.067   0.425 -0.8076  0.3223  1.4420
 8567TIP3   OH247191   3.902   2.679   3.737  0.1940  0.0525 -0.3696
 8567TIP3    H147192   3.847   2.698   3.661 -0.2058 -0.9384 -0.3289
 8567TIP3    H247193   3.846   2.698   3.812 -0.6902 -2.5603 -0.3183
 8568TIP3   OH247194   5.021   5.026   5.556 -0.3862  0.1586  0.6004
 8568TIP3    H147195   5.115   5.038   5.570 -0.4087 -0.1109  0.9954
 8568TIP3    H247196   4.982   5.109   5.584 -0.1618  0.7228 -0.7157
 8569TIP3   OH247197   3.917   1.332  15.562 -0.4711  0.1271 -0.1465
 8569TIP3    H147198   3.840   1.340  15.618 -0.4472  0.7731 -0.2072
 8569TIP3    H247199   3.978   1.397  15.595 -0.2218  0.0972 -0.5463
 8570TIP3   OH247200   2.633   5.975  15.947  0.4300 -0.4848 -0.1617
 8570TIP3    H147201   2.631   5.903  16.010  1.6959 -1.6624 -1.4167
 8570TIP3    H247202   2.542   5.988  15.923  0.3077 -2.8001 -1.1193
 8571TIP3   OH247203   1.882   0.111   4.877 -0.3880  0.3696  0.0283
 8571TIP3    H147204   1.924   0.125   4.792  1.4390  0.1486  0.8857
 8571TIP3    H247205   1.868   0.016   4.881 -0.4322  0.3749  0.0060
 8572TIP3   OH247206   6.819   0.985  15.013  0.0477  0.2689  0.5849
 8572TIP3    H147207   6.888   1.024  15.068  0.8135 -2.1587  1.3878
 8572TIP3    H247208   6.843   1.009  14.924  2.4771 -1.2884  0.7729
 8573TIP3   OH247209   5.744   3.719  11.397  0.1517  0.5614  0.0671
 8573TIP3    H147210   5.825   3.668  11.399 -0.6743 -0.7467  1.3401
 8573TIP3    H247211   5.705   3.705  11.483 -0.8395  2.1557 -0.1005
 8574TIP3   OH247212   1.626   1.999  14.301  0.2371 -0.3346 -0.0240
 8574TIP3    H147213   1.660   1.910  14.292 -0.2914 -0.5108 -0.3348
 8574TIP3    H247214   1.697   2.048  14.341  0.8017 -0.7233 -0.5443
 8575TIP3   OH247215   5.626   1.730  16.876 -0.0624 -0.7766 -0.1218
 8575TIP3    H147216   5.550   1.683  16.911 -1.9008  2.7457  0.7793
 8575TIP3    H247217   5.601   1.755  16.787  0.9343 -1.4995 -0.6206
 8576TIP3   OH247218   5.322   1.238  13.739  0.8163  0.5109  0.6501
 8576TIP3    H147219   5.235   1.225  13.776  1.2414 -0.4641  1.3283
 8576TIP3    H247220   5.328   1.332  13.723 -0.7456  0.4427 -0.3970
 8577TIP3   OH247221   0.337   4.222  10.542  0.0386  0.2233 -0.3584
 8577TIP3    H147222   0.400   4.168  10.495 -0.9932  0.5073 -2.1144
 8577TIP3    H247223   0.329   4.180  10.628  0.9719 -1.0736 -0.8885
 8578TIP3   OH247224   6.365   5.862  13.164 -0.2282 -0.4176 -0.6394
 8578TIP3    H147225   6.416   5.920  13.108 -1.4919  0.4909 -0.8783
 8578TIP3    H247226   6.314   5.809  13.104  1.3045 -2.1738 -0.4362
 8579TIP3   OH247227   1.551   3.108   0.647 -0.3140  0.1938 -0.3709
 8579TIP3    H147228   1.645   3.090   0.659 -0.4766 -0.5773 -0.1855
 8579TIP3    H247229   1.544   3.141   0.558 -0.2418 -2.6106 -1.4619
 8580TIP3   OH247230   0.130   2.835   5.734 -0.4237  0.4147 -0.1884
 8580TIP3    H147231   0.155   2.874   5.818  1.6469 -1.2991  0.0252
 8580TIP3    H247232   0.112   2.743   5.754 -0.5556  0.1376 -1.5164
 8581TIP3   OH247233   3.495   0.121   3.477  0.5376  0.1519  0.1590
 8581TIP3    H147234   3.442   0.200   3.491 -1.1204 -1.1094  1.0288
 8581TIP3    H247235   3.448   0.072   3.410 -0.0066 -1.5128  1.7422
 8582TIP3   OH247236   2.146   1.615  13.265  0.1921  0.0788  0.1116
 8582TIP3    H147237   2.192   1.696  13.287 -0.0790  0.3826 -0.4461
 8582TIP3    H247238   2.212   1.561  13.223  0.0920  0.4379 -0.5103
 8583TIP3   OH247239   3.002   2.688  15.062 -0.4203 -0.3654 -0.2797
 8583TIP3    H147240   3.048   2.744  15.125 -1.4356  1.1622 -0.8553
 8583TIP3    H247241   2.934   2.745  15.026  2.1129 -0.0935 -5.1035
 8584TIP3   OH247242   0.993   4.108   1.522  0.6512 -0.6914  0.0396
 8584TIP3    H147243   1.012   4.201   1.511  0.8309 -0.9055 -1.5767
 8584TIP3    H247244   1.045   4.082   1.598 -0.2734  0.7637  1.2011
 8585TIP3   OH247245   1.360   5.135   0.557 -0.1393 -0.2974  0.1485
 8585TIP3    H147246   1.444   5.104   0.525 -0.3393  0.5622 -1.2566
 8585TIP3    H247247   1.375   5.154   0.649  0.8984 -1.2156  0.1836
 8586TIP3   OH247248   1.154   5.301   4.011  0.3080  0.0554 -0.9457
 8586TIP3    H147249   1.104   5.327   4.089  1.6114 -0.1419 -0.0199
 8586TIP3    H247250   1.142   5.373   3.950  0.4451  0.8937 -0.0038
 8587TIP3   OH247251   3.355   4.822   5.681  0.5026 -0.3230 -0.1695
 8587TIP3    H147252   3.376   4.737   5.644  1.9281  0.8037 -2.0114
 8587TIP3    H247253   3.336   4.804   5.773  1.6741 -2.4945 -0.3339
 8588TIP3   OH247254   3.732   1.604   0.205 -0.1626 -0.1609  0.1480
 8588TIP3    H147255   3.711   1.519   0.167  1.1243 -0.7303  0.6700
 8588TIP3    H247256   3.771   1.583   0.290  0.4734  0.9468  0.1404
 8589TIP3   OH247257   6.691   5.554   0.240 -0.4380  0.4572  0.7458
 8589TIP3    H147258   6.660   5.547   0.330 -1.8654  1.6648  0.3716
 8589TIP3    H247259   6.786   5.545   0.247 -0.6391 -0.7634  2.2132
 8590TIP3   OH247260   5.899   5.599  13.775 -0.6062  0.2918  0.5718
 8590TIP3    H147261   5.963   5.529  13.765 -1.1671 -0.5755  2.8438
 8590TIP3    H247262   5.921   5.640  13.859 -2.7146  0.2741  1.1685
 8591TIP3   OH247263   4.351   4.365  11.796 -0.5414 -0.0911  0.1738
 8591TIP3    H147264   4.259   4.341  11.783  0.2047 -2.1459 -1.4405
 8591TIP3    H247265   4.381   4.393  11.710  0.5650 -0.1709  0.5263
 8592TIP3   OH247266   4.605   1.315   2.916 -0.4779 -0.1313 -0.0272
 8592TIP3    H147267   4.675   1.260   2.880 -1.4922 -0.9184 -0.8568
 8592TIP3    H247268   4.630   1.330   3.006  3.0342  3.3647 -1.4626
 8593TIP3   OH247269   5.361   1.709   5.583 -0.6555 -0.0870 -0.5091
 8593TIP3    H147270   5.348   1.709   5.489  0.8497  0.8172 -0.7346
 8593TIP3    H247271   5.418   1.785   5.600  1.9864 -2.2381  0.6825
 8594TIP3   OH247272   0.209   4.212  11.974  0.2416  0.0121 -0.0607
 8594TIP3    H147273   0.183   4.250  12.058  0.1144  0.1475 -0.1604
 8594TIP3    H247274   0.230   4.287  11.920 -2.5186  0.0903 -1.1065
 8595TIP3   OH247275   3.948   5.139  17.174 -0.0544  0.1019  0.3840
 8595TIP3    H147276   3.855   5.151  17.156 -0.1212 -2.6541 -1.3377
 8595TIP3    H247277   3.950   5.085  17.253  0.0695 -0.3577  0.0688
 8596TIP3   OH247278   3.955   6.567   6.606  0.5100 -0.0891  0.3885
 8596TIP3    H147279   3.958   6.659   6.582  0.4228  0.7724  3.5319
 8596TIP3    H247280   3.892   6.528   6.545 -0.4599  2.1791 -0.0755
 8597TIP3   OH247281   4.135   0.961   0.487 -0.5543  0.4310 -0.1271
 8597TIP3    H147282   4.178   0.892   0.537  1.4852  1.4991 -0.3610
 8597TIP3    H247283   4.096   1.018   0.553  1.9787  1.7413  0.2770
 8598TIP3   OH247284   2.263   4.369   1.950 -0.0908  0.0357  0.1792
 8598TIP3    H147285   2.178   4.380   1.993  0.6658  1.7303  1.2531
 8598TIP3    H247286   2.300   4.457   1.945  1.0081 -0.4966 -1.5432
 8599TIP3   OH247287   6.537   4.597  14.079  0.3419  0.1297 -0.0758
 8599TIP3    H147288   6.469   4.541  14.041  0.8706 -0.9447  0.5541
 8599TIP3    H247289   6.613   4.586  14.022  0.0537  1.2100 -0.6910
 8600TIP3   OH247290   5.006   1.725   4.469  0.4509  0.3924  0.1535
 8600TIP3    H147291   5.044   1.693   4.551 -0.1717  0.4910  0.4812
 8600TIP3    H247292   4.945   1.657   4.442  0.7661  0.2877 -0.3183
 8601TIP3   OH247293   6.495   0.748  16.428  0.7355  0.6160 -0.6839
 8601TIP3    H147294   6.519   0.836  16.399 -0.1858  0.7234 -1.1581
 8601TIP3    H247295   6.439   0.715  16.358 -2.1516  1.1580  1.2876
 8602TIP3   OH247296   2.635   4.088  15.838  0.3408 -0.3229 -0.2274
 8602TIP3    H147297   2.627   4.174  15.798  1.1538 -0.6855 -1.1982
 8602TIP3    H247298   2.693   4.040  15.779  0.4721 -1.2965  0.6866
 8603TIP3   OH247299   0.303   4.332  16.631 -0.4402  0.2036  0.0956
 8603TIP3    H147300   0.302   4.376  16.546  1.8164  0.6501  0.2598
 8603TIP3    H247301   0.287   4.402  16.695  0.5912  0.3602  0.1952
 8604TIP3   OH247302   3.293   3.179   4.151  0.1061  0.2047  0.8683
 8604TIP3    H147303   3.296   3.086   4.127 -0.2290  0.4724 -0.2352
 8604TIP3    H247304   3.383   3.200   4.176  0.6555  0.1032 -0.9432
 8605TIP3   OH247305   2.017   3.858  15.983 -0.2390 -0.1683 -0.1267
 8605TIP3    H147306   2.074   3.900  16.046 -0.4401  3.3365 -2.1604
 8605TIP3    H247307   1.980   3.782  16.030  0.8463  1.3774  3.3558
 8606TIP3   OH247308   1.675   1.652   3.396 -0.2152 -0.0842  0.3925
 8606TIP3    H147309   1.720   1.595   3.459  0.8683 -0.7813 -0.9764
 8606TIP3    H247310   1.586   1.660   3.430 -0.6537 -3.2702  0.2177
 8607TIP3   OH247311   2.543   0.919  15.866  0.3356  0.1967  0.0213
 8607TIP3    H147312   2.622   0.899  15.815  0.3572  0.0856  0.0967
 8607TIP3    H247313   2.571   0.984  15.930 -0.1349  1.8158 -1.3652
 8608TIP3   OH247314   3.495   2.718  12.349 -0.1102  0.7267 -0.4988
 8608TIP3    H147315   3.473   2.757  12.434 -2.1363  0.2132 -0.7678
 8608TIP3    H247316   3.591   2.721  12.346  0.1530 -1.6395  2.9192
 8609TIP3   OH247317   2.826   5.967  17.261  0.3065  0.0917 -0.6564
 8609TIP3    H147318   2.912   5.927  17.248 -0.1340 -1.1895  0.3062
 8609TIP3    H247319   2.814   6.024  17.185  1.0871 -1.3458 -1.8832
 8610TIP3   OH247320   4.778   5.661   5.805 -0.0286 -0.5331  0.4760
 8610TIP3    H147321   4.747   5.750   5.822 -1.3278 -0.2651 -3.0174
 8610TIP3    H247322   4.852   5.673   5.745 -0.1070 -1.8324  0.1179
 8611TIP3   OH247323   0.411   2.840   0.432  0.2535 -0.4346  0.1051
 8611TIP3    H147324   0.461   2.920   0.447  0.1228 -0.4613  0.7068
 8611TIP3    H247325   0.410   2.829   0.337  2.1553 -0.9199  0.1275
 8612TIP3   OH247326   6.479   4.391   6.265 -0.1474 -0.1332  0.2135
 8612TIP3    H147327   6.567   4.353   6.269 -0.4102 -1.0246 -1.8704
 8612TIP3    H247328   6.481   4.461   6.330  2.1385 -0.0594  0.1265
 8613TIP3   OH247329   2.263   1.346  16.360  0.2230 -0.2314 -0.1748
 8613TIP3    H147330   2.291   1.381  16.445  0.5149  1.8797 -1.0996
 8613TIP3    H247331   2.168   1.333  16.370  0.0386  1.2052  0.0915
 8614TIP3   OH247332   0.274   3.171   3.668 -0.2308 -0.4872  0.2088
 8614TIP3    H147333   0.240   3.204   3.585 -0.8394 -2.1392 -0.2069
 8614TIP3    H247334   0.242   3.233   3.734  1.0436  1.3697 -0.8676
 8615TIP3   OH247335   1.375   0.530   3.808 -0.1195  0.1969 -0.5543
 8615TIP3    H147336   1.384   0.511   3.901  2.6573  0.0774 -0.8245
 8615TIP3    H247337   1.327   0.613   3.805 -1.4610 -0.4935  0.9172
 8616TIP3   OH247338   3.604   5.944  12.996 -0.4571 -0.0084  0.0007
 8616TIP3    H147339   3.641   5.971  13.080 -0.0360 -1.6490  0.3389
 8616TIP3    H247340   3.664   5.981  12.931  0.0503 -0.0299  0.4532
 8617TIP3   OH247341   2.416   2.013   1.946  0.1038 -0.2634  0.2833
 8617TIP3    H147342   2.490   2.054   1.902 -0.5573  0.1398 -0.4667
 8617TIP3    H247343   2.452   1.934   1.986  0.5080 -1.2484 -1.9413
 8618TIP3   OH247344   2.579   4.916  12.633  0.0772 -0.1982 -0.4264
 8618TIP3    H147345   2.623   4.861  12.698  1.1706 -1.2236 -2.0037
 8618TIP3    H247346   2.507   4.956  12.681  1.1681 -0.5255  1.5537
 8619TIP3   OH247347   6.272   0.589  15.568  0.0013 -0.5635 -0.4147
 8619TIP3    H147348   6.347   0.529  15.567 -0.3655 -1.0002 -1.2124
 8619TIP3    H247349   6.196   0.533  15.576 -0.3269 -0.1783 -0.8464
 8620TIP3   OH247350   6.297   5.754   1.458  0.6891 -0.0169  0.8057
 8620TIP3    H147351   6.359   5.692   1.420  0.1010 -0.7647  1.0579
 8620TIP3    H247352   6.270   5.810   1.385  1.4856  0.1733  0.6536
 8621TIP3   OH247353   3.677   5.358   0.466  0.0773  0.3701 -0.7819
 8621TIP3    H147354   3.593   5.322   0.437  0.3431  1.0694 -2.4526
 8621TIP3    H247355   3.664   5.453   0.463  0.1220  0.4660  1.3920
 8622TIP3   OH247356   6.164   4.246  11.456  0.2164  0.3768  0.0931
 8622TIP3    H147357   6.257   4.227  11.447 -0.1308 -1.4845  0.3442
 8622TIP3    H247358   6.160   4.341  11.467  2.0484  0.5118 -0.2939
 8623TIP3   OH247359   3.918   0.115  14.674  0.4710  0.3508 -0.0158
 8623TIP3    H147360   3.862   0.058  14.621  0.0467 -0.2727  1.0782
 8623TIP3    H247361   3.859   0.183  14.707  0.4226 -0.1128  0.8628
 8624TIP3   OH247362   6.340   0.141  13.905  0.1471  0.1657  0.3675
 8624TIP3    H147363   6.424   0.144  13.949  0.4052 -0.4366 -0.0848
 8624TIP3    H247364   6.302   0.228  13.920  0.8573  0.4441  0.5491
 8625TIP3   OH247365   5.345   1.015   0.803 -0.0707  0.4944  0.3886
 8625TIP3    H147366   5.383   1.017   0.715  1.2761 -0.9921  0.9093
 8625TIP3    H247367   5.310   0.927   0.813  2.1317 -0.2476  2.2564
 8626TIP3   OH247368   6.384   6.762  13.703 -0.0156  0.5510 -0.2460
 8626TIP3    H147369   6.409   6.830  13.765 -1.2359  0.9531 -0.1759
 8626TIP3    H247370   6.294   6.739  13.727 -0.2286  0.1570 -1.3691
 8627TIP3   OH247371   2.491   5.449  15.298  0.0038 -0.0201  0.9493
 8627TIP3    H147372   2.461   5.389  15.366  2.2004 -1.8675  0.3572
 8627TIP3    H247373   2.587   5.440  15.299  0.1197  0.4606 -1.9029
 8628TIP3   OH247374   2.007   0.393   6.518 -0.2307 -0.1002 -0.2593
 8628TIP3    H147375   1.978   0.479   6.547 -0.8454 -0.3741 -0.0401
 8628TIP3    H247376   2.066   0.363   6.587  0.7740  0.5636 -0.8235
 8629TIP3   OH247377   1.488   5.369  11.779 -0.7774  0.2351  0.1283
 8629TIP3    H147378   1.472   5.280  11.746  0.5648  0.4219 -1.1145
 8629TIP3    H247379   1.481   5.424  11.701  1.4261  0.8272  0.3251
 8630TIP3   OH247380   0.326   4.208  16.343  0.3179  0.1845  0.6601
 8630TIP3    H147381   0.295   4.294  16.316 -0.7368  0.4860  2.7470
 8630TIP3    H247382   0.419   4.219  16.357  0.6069  0.4007 -1.2667
 8631TIP3   OH247383   3.504   0.176   3.770 -0.2140  0.7295 -0.1908
 8631TIP3    H147384   3.460   0.249   3.812  0.3327  0.6740  0.4968
 8631TIP3    H247385   3.529   0.209   3.684  0.8382  1.6537  0.4610
 8632TIP3   OH247386   1.349   5.801   2.818  0.2232  0.1162  0.4907
 8632TIP3    H147387   1.263   5.796   2.859 -0.6411  0.0276 -1.2990
 8632TIP3    H247388   1.333   5.842   2.733  1.6793 -1.5040 -0.5900
 8633TIP3   OH247389   5.599   3.761  10.916 -0.6517  0.4234  0.3330
 8633TIP3    H147390   5.506   3.765  10.936 -0.3936  0.1463  1.5914
 8633TIP3    H247391   5.641   3.735  10.998  0.6887  2.1339  0.2297
 8634TIP3   OH247392   5.479   4.167   4.177 -0.4175  0.0912 -0.3059
 8634TIP3    H147393   5.460   4.122   4.260 -0.0797 -0.6839 -0.6456
 8634TIP3    H247394   5.399   4.155   4.126  0.1085 -1.1735 -0.8542
 8635TIP3   OH247395   6.603   0.673  17.154 -0.1605  0.0901  1.0966
 8635TIP3    H147396   6.529   0.674  17.093 -0.7003 -2.1037  1.6832
 8635TIP3    H247397   6.564   0.648  17.238  1.0111  0.4635  1.7524
 8636TIP3   OH247398   2.496   0.609   5.819  0.0967 -0.6860  0.2043
 8636TIP3    H147399   2.478   0.694   5.779  2.1039  0.7828  2.2748
 8636TIP3    H247400   2.414   0.583   5.859 -0.3081  0.6953  0.2828
 8637TIP3   OH247401   5.182   3.893   5.887 -0.3324  0.1188  0.1498
 8637TIP3    H147402   5.159   3.901   5.794 -0.8996  0.3507  0.3067
 8637TIP3    H247403   5.278   3.885   5.887 -0.4609 -1.6225 -0.5568
 8638TIP3   OH247404   2.416   0.938   1.270  0.3198 -0.4462 -0.6001
 8638TIP3    H147405   2.478   0.957   1.340  0.8152  0.1673 -1.1958
 8638TIP3    H247406   2.427   0.845   1.253 -0.8673 -0.9304  1.1462
 8639TIP3   OH247407   5.423   0.834   4.748 -0.0172  0.0711  0.1422
 8639TIP3    H147408   5.519   0.827   4.745 -0.1054 -0.8817 -0.8471
 8639TIP3    H247409   5.397   0.852   4.658 -0.7799  0.2677  0.3974
 8640TIP3   OH247410   6.045   3.955  10.579 -0.0213 -0.1716 -0.4661
 8640TIP3    H147411   6.062   3.874  10.627 -2.6188  0.7268  2.1133
 8640TIP3    H247412   5.982   3.931  10.512 -2.8916  0.1123  1.9997
 8641TIP3   OH247413   0.310   0.588   5.324  0.0789 -0.2836  0.1384
 8641TIP3    H147414   0.328   0.667   5.273  0.5632 -0.5333 -0.0868
 8641TIP3    H247415   0.378   0.526   5.296 -0.4182 -0.8465  0.1617
 8642TIP3   OH247416   1.823   3.609   3.114 -0.1859 -0.5798 -0.5389
 8642TIP3    H147417   1.915   3.633   3.115 -0.8368  2.5351 -3.6574
 8642TIP3    H247418   1.784   3.661   3.184  0.0859 -0.0747 -0.7557
 8643TIP3   OH247419   5.411   5.753  12.380 -0.2814  0.6217 -0.1766
 8643TIP3    H147420   5.435   5.805  12.303  0.2197 -0.3439 -0.6813
 8643TIP3    H247421   5.489   5.699  12.397 -0.8443 -0.0603  0.2556
 8644TIP3   OH247422   1.399   0.895   0.460  0.3968  0.1239 -0.4572
 8644TIP3    H147423   1.412   0.816   0.513 -0.5993 -1.0099 -1.8739
 8644TIP3    H247424   1.468   0.891   0.394 -0.0993  0.0454 -0.9759
 8645TIP3   OH247425   1.064   1.078  16.650 -0.5852  0.3094  0.2615
 8645TIP3    H147426   1.098   1.047  16.566 -1.5616 -1.4376  0.4688
 8645TIP3    H247427   0.973   1.101  16.632 -1.2409 -1.4630  1.1053
 8646TIP3   OH247428   3.187   4.937   5.499 -0.0866  0.1001 -0.1334
 8646TIP3    H147429   3.241   4.880   5.554 -0.4388  1.5086  1.6848
 8646TIP3    H247430   3.132   4.876   5.449 -0.1354 -1.1705  1.4429
 8647TIP3   OH247431   1.395   6.663   4.426  0.0394 -0.1383 -0.0356
 8647TIP3    H147432   1.382   6.633   4.515 -1.0456  1.2069  0.2727
 8647TIP3    H247433   1.354   6.595   4.371  0.4652 -0.8245  0.4876
 8648TIP3   OH247434   5.669   1.919   4.302 -0.3332  0.3488 -0.2703
 8648TIP3    H147435   5.674   1.835   4.347 -2.4179  1.2355  1.7083
 8648TIP3    H247436   5.619   1.902   4.223 -2.0583  0.0266  0.8788
 8649TIP3   OH247437   5.261   0.032   4.354  0.2219  0.2722 -0.3375
 8649TIP3    H147438   5.274  -0.041   4.292 -3.9138  0.0082 -1.0447
 8649TIP3    H247439   5.276   0.110   4.301  3.2460  0.0073  0.0556
 8650TIP3   OH247440   1.312   4.061   1.543  0.8416 -0.7129  0.3581
 8650TIP3    H147441   1.280   4.035   1.456 -0.1927  0.6521  0.3208
 8650TIP3    H247442   1.262   4.008   1.604 -0.8930  0.7711  0.2555
 8651TIP3   OH247443   1.177   4.136   5.330  0.2206 -0.0867 -0.2514
 8651TIP3    H147444   1.232   4.153   5.405  1.9852 -1.5489 -1.1663
 8651TIP3    H247445   1.090   4.167   5.355  0.9846  0.2299  2.0317
 8652TIP3   OH247446   2.539   1.518   4.461 -0.4536  0.0564 -0.6178
 8652TIP3    H147447   2.593   1.516   4.382 -0.7333 -0.5155 -0.8027
 8652TIP3    H247448   2.567   1.441   4.511  0.3094  0.8828  0.2423
 8653TIP3   OH247449   2.753   4.322  11.761 -0.2076 -0.0755  0.1866
 8653TIP3    H147450   2.743   4.233  11.727  0.9064 -0.1821  0.1137
 8653TIP3    H247451   2.826   4.316  11.823 -0.7236  0.5990  0.8663
 8654TIP3   OH247452   2.200   3.095   5.000 -0.0656 -0.0355  0.4558
 8654TIP3    H147453   2.246   3.070   5.080  1.5746  0.9352 -0.1652
 8654TIP3    H247454   2.137   3.162   5.028  0.1217 -0.0944  1.0163
 8655TIP3   OH247455   1.864   4.770  11.094  0.3401 -0.2376  0.6008
 8655TIP3    H147456   1.892   4.833  11.160 -0.6897  1.7740 -0.8391
 8655TIP3    H247457   1.773   4.794  11.075  0.4588 -1.1097 -1.1625
 8656TIP3   OH247458   0.091   3.204  15.995 -0.1460  0.2757  0.0380
 8656TIP3    H147459   0.129   3.204  16.083  2.3119 -1.5716 -0.9485
 8656TIP3    H247460   0.095   3.295  15.966  0.9768  0.5607  1.0651
 8657TIP3   OH247461   0.741   0.560  16.657 -0.7733 -0.0864 -0.1679
 8657TIP3    H147462   0.661   0.531  16.614  0.4875 -0.8820 -2.0456
 8657TIP3    H247463   0.758   0.647  16.622 -0.1350 -0.4419 -0.7602
 8658TIP3   OH247464   1.063   2.930   2.098 -0.4212  0.2636 -0.0704
 8658TIP3    H147465   1.018   2.956   2.178 -1.9959 -1.1627 -0.4509
 8658TIP3    H247466   1.020   2.980   2.028  0.3595  0.8515 -0.1383
 8659TIP3   OH247467   4.988   5.739  14.563 -0.0863 -0.3050  0.3317
 8659TIP3    H147468   4.990   5.834  14.558 -1.3875 -0.2285  1.2485
 8659TIP3    H247469   5.037   5.718  14.643  1.1401 -0.4722 -0.4474
 8660TIP3   OH247470   1.720   6.565  15.489  0.3747 -0.5467  0.0044
 8660TIP3    H147471   1.677   6.587  15.571  2.3257 -2.0130  1.4593
 8660TIP3    H247472   1.715   6.469  15.483 -0.2386 -0.4212 -1.8635
 8661TIP3   OH247473   5.915   1.694  13.788  0.0186 -0.1259 -0.2012
 8661TIP3    H147474   5.915   1.730  13.699  0.1913  1.7680  0.5306
 8661TIP3    H247475   5.994   1.732  13.828 -2.4417  2.7093  2.1637
 8662TIP3   OH247476   4.607   0.001   2.938 -0.1125 -0.0041 -0.2797
 8662TIP3    H147477   4.573   0.040   2.857  0.5579  0.5429 -0.3069
 8662TIP3    H247478   4.691   0.046   2.952  0.2004 -0.7382  0.2285
 8663TIP3   OH247479   3.753   4.296   0.551 -0.2517 -0.3433  0.1272
 8663TIP3    H147480   3.835   4.299   0.600 -0.5457 -1.3848  0.6928
 8663TIP3    H247481   3.777   4.322   0.462  0.4816  0.4827  0.5640
 8664TIP3   OH247482   2.607   2.150  12.392 -0.0272  0.6442  0.1158
 8664TIP3    H147483   2.602   2.146  12.297 -1.9729 -1.0753  0.2488
 8664TIP3    H247484   2.568   2.234  12.415 -0.1019  0.7987 -0.5686
 8665TIP3   OH247485   2.973   5.634  11.841  0.1784 -0.0641  0.3538
 8665TIP3    H147486   3.035   5.705  11.856  0.2260 -0.0091 -0.0944
 8665TIP3    H247487   2.944   5.609  11.929 -0.3518  0.9665  0.4833
 8666TIP3   OH247488   5.063   0.597  12.306 -0.6443  0.5270  0.5858
 8666TIP3    H147489   5.125   0.655  12.348 -0.9392 -0.0515  1.8579
 8666TIP3    H247490   5.055   0.630  12.216  1.3195  0.7246  0.4673
 8667TIP3   OH247491   2.399   1.497   1.847  0.4040 -0.3340 -0.0721
 8667TIP3    H147492   2.389   1.571   1.787  0.7887 -1.1805 -1.2000
 8667TIP3    H247493   2.483   1.458   1.821  1.4678  0.3614  2.2133
 8668TIP3   OH247494   2.885   0.638   1.427  0.2327 -0.5233 -0.2224
 8668TIP3    H147495   2.869   0.677   1.513  0.0186  0.7735 -0.8391
 8668TIP3    H247496   2.980   0.635   1.420  0.2736  1.5072 -0.8698
 8669TIP3   OH247497   3.572   0.891   1.708  0.8473  0.2783 -0.4079
 8669TIP3    H147498   3.667   0.897   1.722  0.8613 -0.7567 -0.0764
 8669TIP3    H247499   3.562   0.898   1.613  1.2482  0.4205 -0.4433
 8670TIP3   OH247500   3.877   6.470   1.163 -0.1274 -0.1907 -0.0217
 8670TIP3    H147501   3.918   6.401   1.110 -0.9209 -0.1390 -0.7108
 8670TIP3    H247502   3.824   6.422   1.227  0.5649 -0.2464  0.5149
 8671TIP3   OH247503   0.365   0.383   1.245  0.0331 -0.8142 -0.0416
 8671TIP3    H147504   0.310   0.306   1.253 -0.9039 -0.2923 -1.2422
 8671TIP3    H247505   0.308   0.450   1.208  1.2722 -0.0500 -0.6325
 8672TIP3   OH247506   4.727   0.825   0.662  0.5116 -0.2927 -0.3306
 8672TIP3    H147507   4.781   0.867   0.595 -1.0744  2.1800 -0.1566
 8672TIP3    H247508   4.777   0.836   0.743  0.7503  0.0660 -0.5232
 8673TIP3   OH247509   1.136   0.215   2.596 -0.4702  0.5445  0.0491
 8673TIP3    H147510   1.068   0.278   2.572 -0.3652  1.3774  1.7988
 8673TIP3    H247511   1.113   0.189   2.686  0.5161 -0.5353 -0.0016
 8674TIP3   OH247512   4.378   3.828  11.738 -0.2340  0.2702 -0.2768
 8674TIP3    H147513   4.399   3.920  11.756 -0.3279  0.5688 -1.7014
 8674TIP3    H247514   4.283   3.823  11.749 -0.4315  0.6920 -1.7002
 8675TIP3   OH247515   2.449   0.429  11.398 -0.7395 -0.3137 -0.2629
 8675TIP3    H147516   2.367   0.437  11.446 -0.6014  0.1492 -0.1008
 8675TIP3    H247517   2.508   0.492  11.440 -0.1559 -0.9840 -0.0645
 8676TIP3   OH247518   4.623   0.522   1.134  0.3026 -0.2922 -0.5251
 8676TIP3    H147519   4.607   0.594   1.071  0.5706  0.7328  0.5651
 8676TIP3    H247520   4.654   0.450   1.079 -1.7805 -0.2068 -1.8886
 8677TIP3   OH247521   5.689   5.802   5.047 -0.2014 -0.1325 -0.3473
 8677TIP3    H147522   5.706   5.757   4.964  1.7968 -1.5616  0.7859
 8677TIP3    H247523   5.598   5.781   5.068 -1.1466  1.3380 -2.8008
 8678TIP3   OH247524   0.840   6.700   0.605  0.0958  0.6149 -0.2623
 8678TIP3    H147525   0.772   6.756   0.569 -0.3745  0.4100  0.2958
 8678TIP3    H247526   0.888   6.755   0.667 -0.4624  0.3711  0.4000
 8679TIP3   OH247527   6.567   2.103   5.437  0.2137 -0.5228  0.0048
 8679TIP3    H147528   6.599   2.113   5.527  1.5610  0.5907 -0.5829
 8679TIP3    H247529   6.580   2.010   5.418  0.3751 -0.6698  0.7923
 8680TIP3   OH247530   0.801   6.008  14.147 -0.1496 -0.3495 -0.5549
 8680TIP3    H147531   0.745   5.974  14.078 -0.0701 -2.9747  0.5993
 8680TIP3    H247532   0.742   6.021  14.222  0.0474  0.9564 -0.6102
 8681TIP3   OH247533   4.140   5.652   0.993 -0.5203 -0.8334  0.0426
 8681TIP3    H147534   4.127   5.621   1.082 -1.8530  0.7988  0.4478
 8681TIP3    H247535   4.231   5.632   0.973 -0.2765 -1.4039  1.6929
 8682TIP3   OH247536   1.516   2.693   5.912  0.9575 -0.4537 -0.0955
 8682TIP3    H147537   1.540   2.747   5.986 -1.5744  1.0406 -0.3015
 8682TIP3    H247538   1.567   2.727   5.839  0.9248  0.3010  0.2352
 8683TIP3   OH247539   5.751   2.333   5.729 -0.4782  0.0360 -0.9086
 8683TIP3    H147540   5.728   2.303   5.817  0.1515  1.6925 -0.1631
 8683TIP3    H247541   5.794   2.258   5.689 -0.4451 -0.6248  0.3241
 8684TIP3   OH247542   4.199   2.465   5.671  0.4425  0.1005 -0.4152
 8684TIP3    H147543   4.270   2.450   5.734  2.1658 -0.1512 -2.3624
 8684TIP3    H247544   4.170   2.377   5.645  0.0188  0.2012 -0.2866
 8685TIP3   OH247545   0.637   2.538  12.337  0.0079 -0.0963 -0.0549
 8685TIP3    H147546   0.606   2.478  12.405  1.5132 -0.8120  0.0207
 8685TIP3    H247547   0.655   2.620  12.384  1.3192 -0.6754  0.4905
 8686TIP3   OH247548   6.290   2.760   1.336 -0.1296  0.1805  0.2715
 8686TIP3    H147549   6.356   2.825   1.361  0.1294  0.4028 -0.9370
 8686TIP3    H247550   6.336   2.677   1.337 -0.0931  0.2026  0.4251
 8687TIP3   OH247551   1.879   5.786  12.644 -0.0656  0.2279 -0.2128
 8687TIP3    H147552   1.860   5.872  12.681  0.0049 -0.1263  0.6670
 8687TIP3    H247553   1.793   5.748  12.625 -0.1130  0.2571 -0.0539
 8688TIP3   OH247554   4.205   4.926  10.464  0.0441 -0.3539  0.2522
 8688TIP3    H147555   4.292   4.964  10.477  0.8232 -1.9406 -0.2114
 8688TIP3    H247556   4.221   4.833  10.453 -1.8119 -0.7915  1.0477
 8689TIP3   OH247557   3.166   4.011   3.526  0.2749  0.0898  0.3871
 8689TIP3    H147558   3.179   3.952   3.600  2.1442  2.4646  2.0111
 8689TIP3    H247559   3.247   4.004   3.475 -0.5292 -0.6388 -0.8191
 8690TIP3   OH247560   0.307   4.109   1.065  0.2567 -0.0951  0.6338
 8690TIP3    H147561   0.302   4.201   1.039  0.5584 -0.5479 -1.0521
 8690TIP3    H247562   0.258   4.063   0.997 -2.6995 -0.8813  3.1559
 8691TIP3   OH247563   0.222   0.896  15.662 -0.1826  0.4018  0.2117
 8691TIP3    H147564   0.182   0.810  15.676  0.8749 -0.0867  0.2936
 8691TIP3    H247565   0.270   0.888  15.580  0.2290  0.7949  0.4082
 8692TIP3   OH247566   6.620   4.363  15.447  0.5065 -0.2797  0.0306
 8692TIP3    H147567   6.635   4.332  15.536  0.4048  1.2527  0.5799
 8692TIP3    H247568   6.562   4.438  15.456 -1.7354 -1.7500 -1.5413
 8693TIP3   OH247569   4.721   6.443  15.634  0.4128 -0.0707 -1.0678
 8693TIP3    H147570   4.812   6.428  15.610  1.0656  1.3191  0.4511
 8693TIP3    H247571   4.716   6.422  15.727 -1.7763 -4.0509 -1.9958
 8694TIP3   OH247572   2.998   5.840   0.567 -1.4616  0.2694 -0.1640
 8694TIP3    H147573   2.967   5.768   0.512 -0.8769 -0.1094  0.0001
 8694TIP3    H247574   2.926   5.854   0.630  0.0248 -2.8905  2.3892
 8695TIP3   OH247575   4.986   3.013  15.343  0.3354 -0.2857 -0.5637
 8695TIP3    H147576   4.914   2.994  15.403  0.4210  1.6163  0.1758
 8695TIP3    H247577   5.046   3.068  15.394  1.7292 -0.8720 -1.5491
 8696TIP3   OH247578   2.192   4.953   1.035 -0.3060  0.1077  0.1649
 8696TIP3    H147579   2.141   5.007   0.974 -1.6814  0.4379  1.5974
 8696TIP3    H247580   2.262   5.011   1.066  0.4257 -0.0721 -1.0947
 8697TIP3   OH247581   0.010   0.422   3.591 -0.3438 -0.1403 -0.1691
 8697TIP3    H147582  -0.025   0.452   3.675  0.9742 -0.2413  0.4187
 8697TIP3    H247583   0.090   0.473   3.578  0.1946 -1.0956 -0.7025
 8698TIP3   OH247584   1.836   5.253   0.790 -0.0573  0.6604 -0.5301
 8698TIP3    H147585   1.930   5.249   0.807 -0.1080 -0.3022 -0.4560
 8698TIP3    H247586   1.824   5.333   0.739  0.4585  2.2307  1.7276
 8699TIP3   OH247587   3.380   1.916  12.991 -0.0170  0.7786 -0.5160
 8699TIP3    H147588   3.462   1.876  12.965 -0.2132 -0.3358  0.5287
 8699TIP3    H247589   3.405   2.002  13.027  0.6339  0.6437 -0.6477
 8700TIP3   OH247590   0.185   0.844  12.143 -0.0055 -0.0640  0.3109
 8700TIP3    H147591   0.156   0.863  12.232 -0.4396  0.8194 -0.0160
 8700TIP3    H247592   0.105   0.826  12.094  0.0100  1.8095 -0.4554
 8701TIP3   OH247593   1.604   5.791  12.212 -0.1872  0.4241 -0.1148
 8701TIP3    H147594   1.668   5.726  12.241 -0.0645 -0.1964 -1.7210
 8701TIP3    H247595   1.525   5.771  12.263  0.1290 -0.4106  0.0555
 8702TIP3   OH247596   5.827   5.551   4.342  0.5858 -0.6890  0.3070
 8702TIP3    H147597   5.884   5.612   4.389  0.4406  0.5432 -1.0902
 8702TIP3    H247598   5.880   5.520   4.268 -0.6519  0.7841 -1.2446
 8703TIP3   OH247599   1.418   3.664  16.918  1.0278  0.8385  0.4853
 8703TIP3    H147600   1.325   3.686  16.914  1.1956  1.3201 -2.0573
 8703TIP3    H247601   1.454   3.720  16.986 -0.3282  1.5200  0.6481
 8704TIP3   OH247602   6.657   5.923  17.247 -0.1686 -0.7866 -0.2830
 8704TIP3    H147603   6.626   5.979  17.318  0.2058 -1.2773  0.2712
 8704TIP3    H247604   6.608   5.841  17.259 -1.0780 -0.4165 -1.3832
 8705TIP3   OH247605   4.680   6.603  13.611 -0.6367 -0.4594  0.1731
 8705TIP3    H147606   4.658   6.670  13.547 -1.9772 -0.5253  0.5505
 8705TIP3    H247607   4.596   6.565  13.636 -0.1031 -0.6306  1.7572
 8706TIP3   OH247608   4.893   6.678   4.611  0.6783 -0.0023 -0.3459
 8706TIP3    H147609   4.957   6.735   4.654 -0.9019  0.9500  0.8294
 8706TIP3    H247610   4.808   6.717   4.633 -0.2393 -0.0981 -3.4743
 8707TIP3   OH247611   1.804   3.749   2.029  0.6534  0.1532  0.4060
 8707TIP3    H147612   1.747   3.821   2.056  1.5284  0.9060  0.2821
 8707TIP3    H247613   1.882   3.792   1.995  0.0899 -0.7717 -2.2109
 8708TIP3   OH247614   1.116   5.737   1.856 -0.2150  0.4375  0.4523
 8708TIP3    H147615   1.094   5.819   1.898 -0.4638 -0.9956  3.2202
 8708TIP3    H247616   1.032   5.693   1.842 -0.1118  0.7653 -1.2878
 8709TIP3   OH247617   3.041   6.745  13.747  0.0836  0.1775  0.2376
 8709TIP3    H147618   2.966   6.686  13.737 -0.2757  0.3297  1.8482
 8709TIP3    H247619   3.059   6.744  13.841  0.8086  1.7355  0.1236
 8710TIP3   OH247620   4.146   1.797   4.281  0.3171  0.1432 -0.0667
 8710TIP3    H147621   4.129   1.888   4.259 -0.5030  0.3000  1.1717
 8710TIP3    H247622   4.079   1.748   4.233  0.5366  0.2173 -0.4503
 8711TIP3   OH247623   4.220   1.041  12.206  0.2491 -0.4391  0.4462
 8711TIP3    H147624   4.242   1.065  12.297  0.0374 -1.8743  0.8845
 8711TIP3    H247625   4.293   0.987  12.177  0.1225 -0.3135 -0.1150
 8712TIP3   OH247626   1.767   3.935  15.922 -0.0940 -0.6282 -0.6466
 8712TIP3    H147627   1.713   3.898  15.993 -2.5883 -0.5499 -2.4232
 8712TIP3    H247628   1.856   3.910  15.944 -1.0474 -2.3110  1.5016
 8713TIP3   OH247629   1.141   4.409  11.512  0.5586 -0.4529  0.1096
 8713TIP3    H147630   1.197   4.487  11.504  0.3642 -0.3574 -0.3305
 8713TIP3    H247631   1.195   4.337  11.479  0.6381 -0.4608  0.2545
 8714TIP3   OH247632   3.197   1.227  17.071 -0.5614 -0.0169  0.0392
 8714TIP3    H147633   3.236   1.243  17.157 -0.8579 -0.0629  0.1826
 8714TIP3    H247634   3.190   1.314  17.031 -2.5154  0.2688  0.9671
 8715TIP3   OH247635   2.018   1.380   1.204 -0.1158  0.3121 -0.1956
 8715TIP3    H147636   1.932   1.394   1.244 -0.2041 -1.9352  0.4717
 8715TIP3    H247637   2.066   1.326   1.267 -0.2742 -3.3531 -3.0241
 8716TIP3   OH247638   2.269   4.699   3.117 -0.4975  0.4970 -0.1116
 8716TIP3    H147639   2.214   4.653   3.054  1.0630  0.4403 -1.4614
 8716TIP3    H247640   2.243   4.791   3.110 -1.9719  0.1806  0.8971
 8717TIP3   OH247641   0.125   4.383   1.297  0.3605 -0.4238 -0.3482
 8717TIP3    H147642   0.203   4.335   1.271  0.3724 -0.9107  0.5525
 8717TIP3    H247643   0.052   4.324   1.277  0.2926 -0.3258 -0.3873
 8718TIP3   OH247644   5.239   4.425  14.412  0.3275 -0.2010 -0.1590
 8718TIP3    H147645   5.151   4.463  14.399  0.7255  0.3817 -1.2644
 8718TIP3    H247646   5.297   4.486  14.367  1.3321 -0.4675  0.7825
 8719TIP3   OH247647   3.476   5.287   0.847 -0.3746  0.0660 -0.0532
 8719TIP3    H147648   3.540   5.228   0.808 -1.4416 -0.4459 -1.0650
 8719TIP3    H247649   3.456   5.248   0.932  1.8434  1.1015  0.9776
 8720TIP3   OH247650   1.514   2.242   5.605  0.3116  0.4508 -0.1368
 8720TIP3    H147651   1.424   2.208   5.605  0.1514  0.6444  3.5996
 8720TIP3    H247652   1.566   2.170   5.570 -1.1218 -0.2122 -0.9648
 8721TIP3   OH247653   0.072   1.734  14.442 -0.1958 -0.6475  0.5023
 8721TIP3    H147654   0.001   1.781  14.398 -0.1001 -0.0786  0.9453
 8721TIP3    H247655   0.060   1.754  14.535 -0.6458 -2.1706  0.7846
 8722TIP3   OH247656   3.413   0.393   5.869 -0.3735 -0.3744 -0.1596
 8722TIP3    H147657   3.481   0.458   5.886 -0.6602 -0.1333  0.0889
 8722TIP3    H247658   3.452   0.332   5.806 -0.0180 -0.0987 -0.2065
 8723TIP3   OH247659   5.420   3.559   5.418 -0.0932  0.2388  0.5849
 8723TIP3    H147660   5.368   3.520   5.489 -0.4595  0.7660  0.6080
 8723TIP3    H247661   5.503   3.512   5.421 -0.9904 -1.4344 -0.2284
 8724TIP3   OH247662   6.354   1.253   1.434  0.4805 -0.7483  0.0743
 8724TIP3    H147663   6.390   1.183   1.488 -2.5436 -1.4195  1.3480
 8724TIP3    H247664   6.282   1.211   1.385  0.3440  0.8689 -1.1596
 8725TIP3   OH247665   1.834   4.070   3.831 -0.1082 -0.0515  0.2487
 8725TIP3    H147666   1.847   4.074   3.926 -2.0634  0.4581  0.5132
 8725TIP3    H247667   1.740   4.060   3.820  0.1055 -0.1431 -1.6528
 8726TIP3   OH247668   3.157   3.978  16.479 -0.7672 -0.4771  0.3447
 8726TIP3    H147669   3.097   4.031  16.426 -0.6889  1.2581  1.9201
 8726TIP3    H247670   3.244   3.998  16.446 -0.7350  0.4400  0.9631
 8727TIP3   OH247671   4.204   5.312  14.249  0.0460 -0.5041 -0.0858
 8727TIP3    H147672   4.183   5.220  14.231  0.0934 -0.6945  0.8491
 8727TIP3    H247673   4.129   5.344  14.299  0.0916 -0.0659 -0.3030
 8728TIP3   OH247674   3.824   2.250  14.505  0.5474  0.0163  0.5457
 8728TIP3    H147675   3.873   2.261  14.424  1.2253  0.4218  1.0042
 8728TIP3    H247676   3.874   2.184  14.554 -1.8154 -3.0125 -0.8860
 8729TIP3   OH247677   6.522   4.875  15.763  0.3585 -0.1325 -0.1267
 8729TIP3    H147678   6.594   4.828  15.721  0.8307 -1.4157  2.0310
 8729TIP3    H247679   6.552   4.966  15.768  1.8940 -0.6711  0.8391
 8730TIP3   OH247680   3.096   4.038   3.112  0.0336 -0.3938  0.0703
 8730TIP3    H147681   3.146   4.102   3.061 -0.9130 -0.7381 -1.3165
 8730TIP3    H247682   3.064   3.975   3.047 -2.3598 -0.0793  0.8790
 8731TIP3   OH247683   0.541   4.620   2.312 -0.1724 -0.2373 -0.6589
 8731TIP3    H147684   0.520   4.568   2.389 -2.8162  2.7011  0.7212
 8731TIP3    H247685   0.637   4.620   2.308 -0.0180 -1.3026  2.0074
 8732TIP3   OH247686   0.555   2.566  12.745 -0.1629  0.3525 -0.1132
 8732TIP3    H147687   0.525   2.487  12.790 -0.6948  0.2005 -0.7322
 8732TIP3    H247688   0.590   2.621  12.815 -2.7690  0.9372  0.7994
 8733TIP3   OH247689   0.898   3.531  14.874 -0.5545 -0.1561 -0.9040
 8733TIP3    H147690   0.959   3.564  14.808 -0.0326  1.7729  0.5110
 8733TIP3    H247691   0.931   3.444  14.896  0.2893 -0.0931 -1.8896
 8734TIP3   OH247692   4.313   5.700  12.235 -0.6323  0.0121 -0.0531
 8734TIP3    H147693   4.277   5.762  12.299  0.8298  0.3165  0.4937
 8734TIP3    H247694   4.396   5.739  12.208 -0.8030 -0.5788 -1.4567
 8735TIP3   OH247695   2.508   4.153  12.319 -0.2220  0.2385 -0.0491
 8735TIP3    H147696   2.494   4.085  12.254  2.9297  1.6096 -2.3138
 8735TIP3    H247697   2.451   4.225  12.292 -0.1542  0.1924 -0.3124
 8736TIP3   OH247698   6.656   3.379   5.416 -0.6713 -0.2966 -0.3759
 8736TIP3    H147699   6.585   3.341   5.468 -0.1495  0.5397  0.9774
 8736TIP3    H247700   6.726   3.394   5.479 -0.4434  1.8323 -1.1126
 8737TIP3   OH247701   2.713   4.715  14.365 -0.5982 -0.0548  0.4709
 8737TIP3    H147702   2.666   4.704  14.282  1.7410  0.0965 -0.9575
 8737TIP3    H247703   2.715   4.628  14.404 -0.9263 -0.3186 -0.0907
 8738TIP3   OH247704   5.649   1.157   3.190  0.3716 -0.4259 -0.2494
 8738TIP3    H147705   5.656   1.152   3.285  0.7781 -0.7843 -0.2954
 8738TIP3    H247706   5.557   1.175   3.173  0.3484 -0.1037  0.2236
 8739TIP3   OH247707   3.971   0.609   1.512 -0.4910 -0.0671  0.2718
 8739TIP3    H147708   4.027   0.672   1.467 -1.2898  0.2990 -0.2203
 8739TIP3    H247709   4.002   0.523   1.481 -0.9443  0.1777 -0.8625
 8740TIP3   OH247710   3.750   2.649  15.282  0.0479  0.3756  0.3962
 8740TIP3    H147711   3.778   2.662  15.192  1.4892 -1.0009  0.6150
 8740TIP3    H247712   3.822   2.683  15.335 -0.2748  0.1055  1.0223
 8741TIP3   OH247713   0.584   4.196  13.809 -0.0655 -0.1726 -0.8206
 8741TIP3    H147714   0.515   4.137  13.841 -0.1918  0.3375 -0.1451
 8741TIP3    H247715   0.541   4.281  13.803  0.3378  0.0166 -1.0237
 8742TIP3   OH247716   0.908   0.560  15.194 -0.2215 -0.8374 -0.5743
 8742TIP3    H147717   0.996   0.526  15.178 -0.3256 -1.6999  0.6224
 8742TIP3    H247718   0.860   0.543  15.113  0.2986 -1.6755 -0.7103
 8743TIP3   OH247719   0.226   2.574  11.510  0.7487  0.0719  0.0933
 8743TIP3    H147720   0.214   2.494  11.459  1.6336  0.2709 -0.4335
 8743TIP3    H247721   0.268   2.635  11.449  1.5854  0.3982  0.9875
 8744TIP3   OH247722   5.260   0.015  13.509  0.3393  0.3495  0.3992
 8744TIP3    H147723   5.205   0.069  13.565  0.3079 -0.7547  1.4601
 8744TIP3    H247724   5.262  -0.070  13.553 -0.2489 -0.7461 -1.6244
 8745TIP3   OH247725   0.354   2.901  13.859  0.0492 -0.1502  0.2629
 8745TIP3    H147726   0.382   2.992  13.856  1.2835 -0.5001  0.9738
 8745TIP3    H247727   0.403   2.863  13.932 -0.5297 -1.3528  0.0342
 8746TIP3   OH247728   0.561   5.694  13.030 -0.3047 -0.7318  0.0446
 8746TIP3    H147729   0.542   5.663  12.941  0.7080  0.5074 -0.6112
 8746TIP3    H247730   0.536   5.786  13.029  1.3984 -0.2544  0.4988
 8747TIP3   OH247731   5.225   2.992  10.965  0.3777  0.3074 -0.8236
 8747TIP3    H147732   5.200   3.062  11.025  2.0235  1.0000 -0.9302
 8747TIP3    H247733   5.287   2.939  11.015 -1.2213 -1.3768 -0.5686
 8748TIP3   OH247734   2.786   5.869  11.747 -0.1245  0.0001 -0.4273
 8748TIP3    H147735   2.706   5.828  11.779  0.0721 -0.5758 -0.6672
 8748TIP3    H247736   2.836   5.891  11.826  0.9998 -2.6958 -0.3586
 8749TIP3   OH247737   3.424   5.959   4.672 -0.3720  0.7617 -0.6640
 8749TIP3    H147738   3.382   5.980   4.589 -2.5177 -1.1294 -0.1010
 8749TIP3    H247739   3.511   5.999   4.666 -0.0191 -0.4120 -4.3297
 8750TIP3   OH247740   6.100   6.762  13.034 -1.4583  0.0355 -0.6172
 8750TIP3    H147741   6.140   6.827  12.976  1.9097 -1.7165 -0.4259
 8750TIP3    H247742   6.142   6.776  13.118 -1.0425 -2.0161 -0.4495
 8751TIP3   OH247743   1.321   0.412   5.797  0.5630  0.3281 -0.7725
 8751TIP3    H147744   1.366   0.472   5.738 -0.4943  0.0556 -1.8677
 8751TIP3    H247745   1.384   0.397   5.868  1.7821  0.7717 -1.7444
 8752TIP3   OH247746   3.114   5.048  16.167 -0.0430  1.3003 -0.5302
 8752TIP3    H147747   3.023   5.054  16.195  0.1560  1.3069  0.1119
 8752TIP3    H247748   3.111   4.997  16.086 -0.1951 -2.1021  1.5252
 8753TIP3   OH247749   0.582   6.597  13.026 -0.1060  0.6028  0.2403
 8753TIP3    H147750   0.532   6.678  13.016 -0.8337  0.0827 -0.3616
 8753TIP3    H247751   0.653   6.605  12.961 -0.8387  0.2578 -0.6071
 8754TIP3   OH247752   1.547   5.794  11.020  0.7683  0.0085  0.5603
 8754TIP3    H147753   1.616   5.842  10.974  0.5281 -0.1754  0.0043
 8754TIP3    H247754   1.479   5.859  11.036  0.8416  0.0675  0.6345
 8755TIP3   OH247755   5.981   2.865   5.121  0.1469  0.0092  0.1909
 8755TIP3    H147756   6.021   2.920   5.054  0.0470 -0.7780 -0.5336
 8755TIP3    H247757   6.049   2.855   5.187  1.0772 -1.0898 -0.8927
 8756TIP3   OH247758   1.625   3.665  15.642  0.1766 -0.0699  0.2599
 8756TIP3    H147759   1.582   3.612  15.575  0.5938  2.1979 -1.8466
 8756TIP3    H247760   1.625   3.754  15.607  2.4930  0.7747  2.2473
 8757TIP3   OH247761   4.128   5.534  16.348 -0.1405 -0.6903  0.3432
 8757TIP3    H147762   4.073   5.464  16.380 -2.5018  0.8704 -0.1706
 8757TIP3    H247763   4.076   5.613  16.360  2.4714  0.9987  0.9529
 8758TIP3   OH247764   0.911   6.485  11.508 -0.2028  0.3894  0.4020
 8758TIP3    H147765   0.854   6.443  11.443 -0.8832  1.3768  0.3423
 8758TIP3    H247766   0.940   6.413  11.564 -1.3363 -0.1691  0.2960
 8759TIP3   OH247767   3.508   2.079   6.349  0.3566  0.2197 -0.4150
 8759TIP3    H147768   3.593   2.106   6.382 -0.4488  2.2798  0.0427
 8759TIP3    H247769   3.460   2.161   6.336 -1.4249 -0.8902 -1.0146
 8760TIP3   OH247770   5.889   5.444  15.282  0.0341  0.4112 -0.1655
 8760TIP3    H147771   5.816   5.488  15.323 -1.4169 -3.0306  1.1546
 8760TIP3    H247772   5.880   5.464  15.189 -1.4361  1.6201  0.2190
 8761TIP3   OH247773   3.321   0.643  13.002 -0.7344 -0.1214  0.3103
 8761TIP3    H147774   3.268   0.571  12.967  0.6916 -0.4666 -1.1672
 8761TIP3    H247775   3.375   0.671  12.928  0.2161  1.0879  1.4547
 8762TIP3   OH247776   1.162   1.985  15.232  0.1221 -0.8460  0.4116
 8762TIP3    H147777   1.239   2.014  15.184  1.4448  0.1186  3.0007
 8762TIP3    H247778   1.106   1.944  15.166  2.4780 -0.8457 -1.6527
 8763TIP3   OH247779   1.519   0.800  17.115  0.8042  0.6987  0.2962
 8763TIP3    H147780   1.517   0.858  17.039 -1.0158  1.9436  1.2563
 8763TIP3    H247781   1.439   0.748  17.108  0.8647  0.4874  1.0900
 8764TIP3   OH247782   2.781   1.948  13.342  0.5130  0.2303 -0.3635
 8764TIP3    H147783   2.759   1.859  13.369  2.0893  0.2990  1.2454
 8764TIP3    H247784   2.699   1.983  13.306 -0.7347 -1.0778  1.1107
 8765TIP3   OH247785   4.679   6.490  15.199 -0.1871  0.2076 -0.2273
 8765TIP3    H147786   4.651   6.528  15.116 -0.9944  0.0117 -0.0576
 8765TIP3    H247787   4.629   6.408  15.206  1.2371 -0.7033 -0.4092
 8766TIP3   OH247788   1.478   0.811   2.918  0.1373  0.1052 -0.6482
 8766TIP3    H147789   1.550   0.777   2.864  0.0363 -0.6489 -0.3208
 8766TIP3    H247790   1.498   0.903   2.930  2.3387 -0.5973  1.4531
 8767TIP3   OH247791   0.756   0.315  14.638 -0.6070  0.5037  0.0015
 8767TIP3    H147792   0.705   0.359  14.569 -0.0565  0.5810 -0.3627
 8767TIP3    H247793   0.720   0.226  14.641 -0.6865  0.5223 -0.3345
 8768TIP3   OH247794   2.415   4.080  15.990  0.2873  0.1013 -0.1950
 8768TIP3    H147795   2.382   4.170  15.987  2.1991  0.9327  2.1417
 8768TIP3    H247796   2.481   4.076  15.920  0.0739  0.4747 -0.4162
 8769TIP3   OH247797   3.068   1.465   6.509  0.9678  0.4326  0.3519
 8769TIP3    H147798   2.985   1.511   6.503  0.6811  0.0634  1.2917
 8769TIP3    H247799   3.112   1.506   6.584  1.5432  0.4957 -0.0213
 8770TIP3   OH247800   4.855   3.324   2.588  0.2294  0.3749 -0.1828
 8770TIP3    H147801   4.928   3.323   2.650  0.4088  1.7842 -0.3554
 8770TIP3    H247802   4.845   3.417   2.565  0.1263 -0.1358 -2.2256
 8771TIP3   OH247803   1.074   1.343   6.128  0.0426  0.5152  0.0500
 8771TIP3    H147804   1.064   1.390   6.211  0.0328 -0.8502  0.8399
 8771TIP3    H247805   1.164   1.363   6.100  1.0892 -1.4271  1.9241
 8772TIP3   OH247806   2.472   0.323  14.170  0.4305 -0.2283 -0.5693
 8772TIP3    H147807   2.567   0.339  14.172  0.1897  1.1832  0.4223
 8772TIP3    H247808   2.460   0.256  14.102  2.2433 -1.1634  0.0054
 8773TIP3   OH247809   4.905   6.135   3.064 -0.7834  0.0281 -0.1444
 8773TIP3    H147810   4.980   6.195   3.053 -0.7285  0.4552  2.1955
 8773TIP3    H247811   4.841   6.165   3.000 -0.4100  2.0858  0.3781
 8774TIP3   OH247812   0.605   2.977  15.991 -0.2239 -0.1013  0.1130
 8774TIP3    H147813   0.594   2.943  15.903  0.8928  2.4822 -1.0831
 8774TIP3    H247814   0.528   2.946  16.039 -0.3666 -2.3198 -1.4751
 8775TIP3   OH247815   1.405   1.469   5.773  0.0360  0.3247 -0.3433
 8775TIP3    H147816   1.368   1.527   5.840 -0.2256 -0.5151  0.2433
 8775TIP3    H247817   1.382   1.511   5.690  0.8870  1.6955  0.0894
 8776TIP3   OH247818   1.836   0.563   0.337  0.1159 -0.3428 -0.1656
 8776TIP3    H147819   1.827   0.469   0.352  1.8757 -0.3831  0.7526
 8776TIP3    H247820   1.870   0.598   0.419  0.4784  0.9403 -0.8418
 8777TIP3   OH247821   5.096   3.190  11.120 -0.5487 -0.6332 -0.3623
 8777TIP3    H147822   5.106   3.279  11.085  0.7034 -0.5560  0.1610
 8777TIP3    H247823   5.006   3.167  11.100 -0.2319 -0.1198 -2.5470
 8778TIP3   OH247824   2.726   0.963   4.491 -0.0701  0.1901  0.3917
 8778TIP3    H147825   2.635   0.990   4.479 -0.4262 -1.2951 -0.4315
 8778TIP3    H247826   2.720   0.874   4.525  1.0722 -0.0193  0.0582
 8779TIP3   OH247827   3.220   0.142   5.569  0.6439  0.1627  0.0734
 8779TIP3    H147828   3.137   0.163   5.525  1.0427 -1.2803 -1.4498
 8779TIP3    H247829   3.202   0.156   5.662 -1.6810 -1.1433 -0.1187
 8780TIP3   OH247830   1.640   6.773   4.478  0.2570  0.1220  0.3503
 8780TIP3    H147831   1.612   6.863   4.461  0.2793 -0.0726 -0.7934
 8780TIP3    H247832   1.562   6.720   4.464  0.3623 -0.0813  0.5290
 8781TIP3   OH247833   0.274   2.665  14.987 -0.5670  0.3603  0.0553
 8781TIP3    H147834   0.265   2.594  15.050 -0.6528  2.1269  2.0777
 8781TIP3    H247835   0.354   2.645  14.939  1.2240  0.5576  2.8476
 8782TIP3   OH247836   3.286   0.754   3.955 -0.3651 -0.1406 -0.1495
 8782TIP3    H147837   3.208   0.791   3.914 -0.4130 -1.5367 -1.3321
 8782TIP3    H247838   3.253   0.704   4.029 -0.4271  0.7582  0.4469
 8783TIP3   OH247839   5.021   2.413  15.318 -0.1172  0.5373  0.6143
 8783TIP3    H147840   4.980   2.340  15.272  0.7726  0.9540 -0.8709
 8783TIP3    H247841   4.965   2.488  15.299 -1.0718  0.2408  2.2013
 8784TIP3   OH247842   6.014   2.615  12.907  0.5513  0.1488  0.0084
 8784TIP3    H147843   6.015   2.648  12.997  0.3881  1.3944 -0.4358
 8784TIP3    H247844   6.090   2.655  12.866  1.2718 -1.3192 -0.0979
 8785TIP3   OH247845   4.492   6.251  10.912  0.0275  0.3565 -0.1726
 8785TIP3    H147846   4.478   6.281  11.002  1.1442  0.3486  0.0102
 8785TIP3    H247847   4.530   6.326  10.867  1.3424 -0.2540 -0.1172
 8786TIP3   OH247848   6.811   1.718   0.909  0.0736  0.4167  0.0916
 8786TIP3    H147849   6.798   1.649   0.974  0.2557  0.5666  0.2901
 8786TIP3    H247850   6.905   1.715   0.890 -0.3868 -1.4178 -2.1746
 8787TIP3   OH247851   2.923   3.704  15.466  0.4599 -0.4205  0.0007
 8787TIP3    H147852   2.954   3.636  15.526 -0.9775 -0.7813  0.3600
 8787TIP3    H247853   2.973   3.783  15.491  1.6951 -1.1797 -0.0237
 8788TIP3   OH247854   0.750   0.477  11.572  0.0678  0.4237 -0.0170
 8788TIP3    H147855   0.743   0.393  11.618 -0.4337 -1.3938 -3.2566
 8788TIP3    H247856   0.839   0.477  11.537 -0.2976  0.7387 -0.9544
 8789TIP3   OH247857   3.517   2.885   4.279  0.2162  0.0987  0.6177
 8789TIP3    H147858   3.593   2.828   4.276 -0.5639 -0.9506  0.5978
 8789TIP3    H247859   3.522   2.927   4.365  1.2372  0.6306  0.3079
 8790TIP3   OH247860   6.564   3.003  11.618 -0.2217 -0.2765  0.1951
 8790TIP3    H147861   6.576   2.992  11.523 -1.2501 -1.5058  0.1938
 8790TIP3    H247862   6.625   3.072  11.642 -0.9707  1.0782 -1.6311
 8791TIP3   OH247863   3.844   6.179   2.891 -0.4364  0.0862 -0.1952
 8791TIP3    H147864   3.874   6.268   2.874  2.6198 -0.7794  0.3896
 8791TIP3    H247865   3.856   6.168   2.985  2.3509 -2.0037 -0.7469
 8792TIP3   OH247866   2.353   3.215   0.174  0.3108  0.0433 -0.4812
 8792TIP3    H147867   2.260   3.229   0.153  0.3585 -0.5221 -1.0700
 8792TIP3    H247868   2.377   3.293   0.225 -0.3166  0.4992 -0.8688
 8793TIP3   OH247869   1.689   2.863   0.824 -0.0440 -0.3171  0.0725
 8793TIP3    H147870   1.671   2.771   0.846 -1.2582 -0.2239 -0.5081
 8793TIP3    H247871   1.696   2.864   0.729  1.2752 -0.0244  0.1656
 8794TIP3   OH247872   6.804   5.413   3.936  0.4217  0.2569 -0.6024
 8794TIP3    H147873   6.817   5.352   3.863  0.1794 -1.7656  1.0017
 8794TIP3    H247874   6.717   5.391   3.971  0.3618  1.4770  0.0654
 8795TIP3   OH247875   4.466   1.960  12.061 -0.9982 -0.1375  0.5901
 8795TIP3    H147876   4.381   1.973  12.103 -0.8481  1.3764  0.4544
 8795TIP3    H247877   4.471   2.029  11.995  0.0506 -0.6368  0.1426
 8796TIP3   OH247878   0.162   0.327   2.128  0.1811  0.2978  0.8533
 8796TIP3    H147879   0.132   0.391   2.193  1.5246  2.5251 -0.6677
 8796TIP3    H247880   0.118   0.353   2.047  0.4989 -0.9169  0.2930
 8797TIP3   OH247881   6.104   2.692   2.477 -0.0442  0.0480 -0.1828
 8797TIP3    H147882   6.165   2.625   2.447  0.6323  0.7535 -0.4144
 8797TIP3    H247883   6.023   2.645   2.497  0.4662 -0.8441 -0.2230
 8798TIP3   OH247884   6.181   4.349   2.487  0.2393  0.2312 -0.4606
 8798TIP3    H147885   6.102   4.403   2.483 -0.8926 -0.9861  3.3051
 8798TIP3    H247886   6.157   4.277   2.546  4.1673 -0.1292  0.8093
 8799TIP3   OH247887   2.006   3.162   1.513  0.0293 -1.0226 -0.1800
 8799TIP3    H147888   1.956   3.128   1.587  0.4569 -2.5526 -0.5746
 8799TIP3    H247889   1.944   3.160   1.440  0.4831 -2.3529 -0.5342
 8800TIP3   OH247890   5.688   6.420  12.762  0.0072 -0.1591 -0.5627
 8800TIP3    H147891   5.623   6.398  12.828  0.2347 -1.0375 -0.6329
 8800TIP3    H247892   5.664   6.367  12.686 -0.4104  1.0371 -1.2747
 8801TIP3   OH247893   2.206   1.171   0.157  0.0293  0.1741 -0.4019
 8801TIP3    H147894   2.152   1.215   0.092  0.2463  0.7239 -0.2082
 8801TIP3    H247895   2.264   1.115   0.106 -0.0290  0.3471 -0.6591
 8802TIP3   OH247896   3.982   5.744   0.409  0.1977  0.4316  0.9158
 8802TIP3    H147897   3.968   5.651   0.394  0.0351  0.0344  3.4814
 8802TIP3    H247898   3.894   5.780   0.421  0.2501  0.9699 -0.1668
 8803TIP3   OH247899   2.392   0.818  17.148  0.1389  0.3336 -0.2952
 8803TIP3    H147900   2.308   0.849  17.182  0.1446 -0.7237  0.7202
 8803TIP3    H247901   2.390   0.723  17.162  1.3917  0.2692 -0.4854
 8804TIP3   OH247902   2.933   1.844   5.796 -0.6018 -0.0372  0.7719
 8804TIP3    H147903   2.948   1.771   5.856 -0.4124  0.1102  0.9064
 8804TIP3    H247904   2.970   1.815   5.713  0.0073  0.1388  0.9788
 8805TIP3   OH247905   1.737   6.119   4.135 -0.4348 -0.2212 -0.4945
 8805TIP3    H147906   1.743   6.051   4.202 -1.5408 -0.4894 -0.6601
 8805TIP3    H247907   1.644   6.123   4.112 -0.0061 -0.5028 -2.3807
 8806TIP3   OH247908   4.726   0.599   5.773  0.5740 -0.0160 -0.0856
 8806TIP3    H147909   4.705   0.601   5.867 -0.6391 -0.3474 -0.3503
 8806TIP3    H247910   4.747   0.508   5.755  0.0758 -0.0929 -0.2911
 8807TIP3   OH247911   4.965   4.262   4.925 -0.2587 -0.2295  0.6380
 8807TIP3    H147912   4.938   4.210   5.001 -0.2822 -0.1019  0.7162
 8807TIP3    H247913   4.883   4.282   4.879 -0.5835  2.2510  2.1976
 8808TIP3   OH247914   4.033   5.688  12.533 -0.1476 -0.0236  0.5441
 8808TIP3    H147915   4.010   5.686  12.625 -0.2232 -0.4654  0.5136
 8808TIP3    H247916   4.117   5.734  12.530 -0.2025  0.0949  0.8160
 8809TIP3   OH247917   6.138   5.574  14.666  0.3603  0.0279 -0.5664
 8809TIP3    H147918   6.228   5.574  14.634  0.8006  2.1730  0.6203
 8809TIP3    H247919   6.126   5.487  14.705  2.3458  0.2053  0.4860
 8810TIP3   OH247920   4.115   6.597   5.527 -0.5278  0.3713  0.5111
 8810TIP3    H147921   4.046   6.533   5.544  0.2924 -0.7391 -0.3058
 8810TIP3    H247922   4.070   6.670   5.483 -1.4834  0.4206  1.5635
 8811TIP3   OH247923   3.811   1.151  16.794 -0.0603  0.3033  0.1848
 8811TIP3    H147924   3.786   1.135  16.703  0.3901  0.6261  0.0004
 8811TIP3    H247925   3.881   1.088  16.811  0.4465  0.8134  0.0346
 8812TIP3   OH247926   5.753   5.235  11.083 -0.8344 -0.4081  0.4854
 8812TIP3    H147927   5.715   5.229  10.996  0.7003 -1.0606 -0.1622
 8812TIP3    H247928   5.751   5.328  11.104 -1.1087 -0.2321 -0.2909
 8813TIP3   OH247929   2.941   0.546  13.371 -0.0403  0.5829  0.4456
 8813TIP3    H147930   2.862   0.601  13.366 -0.8765 -0.5206  1.3694
 8813TIP3    H247931   2.936   0.492  13.292 -0.3514  0.3237  0.6408
 8814TIP3   OH247932   3.229   1.783   4.668 -0.2967  0.2530 -0.1857
 8814TIP3    H147933   3.242   1.877   4.659 -0.6017  0.2102 -1.0989
 8814TIP3    H247934   3.134   1.772   4.674 -0.3230 -0.0741 -1.0949
 8815TIP3   OH247935   5.465   3.469  16.038  0.0288 -0.0479 -0.4573
 8815TIP3    H147936   5.376   3.464  16.001 -0.0949  1.1778 -0.3684
 8815TIP3    H247937   5.457   3.531  16.110  1.0908  0.5613 -0.8480
 8816TIP3   OH247938   2.348   0.061   6.582  0.1583  0.4622 -0.1410
 8816TIP3    H147939   2.368   0.076   6.489  0.1119  0.4569 -0.1522
 8816TIP3    H247940   2.433   0.064   6.625  0.1463  0.7837 -0.1393
 8817TIP3   OH247941   5.591   0.926  17.256 -0.4175  0.4344 -0.4359
 8817TIP3    H147942   5.563   0.864  17.323 -3.3121  0.2821 -1.7364
 8817TIP3    H247943   5.646   0.873  17.197  1.3916  0.3636  1.2510
 8818TIP3   OH247944   5.623   2.758   0.614  0.3616 -0.2263 -0.3240
 8818TIP3    H147945   5.625   2.806   0.532  1.3331 -1.3490 -0.9783
 8818TIP3    H247946   5.652   2.822   0.680  0.5573  0.3932 -1.0035
 8819TIP3   OH247947   1.121   2.067  13.898 -0.1125  0.0124 -0.4207
 8819TIP3    H147948   1.096   1.995  13.957 -0.0887  0.5590  0.2611
 8819TIP3    H247949   1.193   2.111  13.943  1.2899 -0.8034 -1.8067
 8820TIP3   OH247950   0.334   3.019  16.959  0.4727 -0.1273  0.2685
 8820TIP3    H147951   0.276   2.983  17.026 -0.1184 -0.9922 -0.7090
 8820TIP3    H247952   0.288   3.005  16.876  1.4708  0.3890 -0.3895
 8821TIP3   OH247953   2.594   0.431   0.325  1.1627  0.0389  0.0291
 8821TIP3    H147954   2.571   0.433   0.233  0.7787 -0.1453  0.1190
 8821TIP3    H247955   2.526   0.376   0.366  0.3899  1.4444  0.6853
 8822TIP3   OH247956   6.230   5.221   3.515  0.7561  0.5372 -0.3405
 8822TIP3    H147957   6.214   5.166   3.439  1.3743  1.4327 -1.1309
 8822TIP3    H247958   6.168   5.294   3.507 -0.1356 -0.0823  0.7566
 8823TIP3   OH247959   0.372   2.487  16.314  0.6706  0.0638 -0.2606
 8823TIP3    H147960   0.292   2.464  16.267  0.2240  1.6510 -0.3237
 8823TIP3    H247961   0.443   2.460  16.256  0.1764 -0.7873 -0.4752
 8824TIP3   OH247962   4.750   4.008  16.515  0.5775 -0.4241 -0.4673
 8824TIP3    H147963   4.822   3.946  16.511  0.8324 -0.1385 -0.3508
 8824TIP3    H247964   4.779   4.083  16.463  1.5766  0.9190  1.9203
 8825TIP3   OH247965   5.830   3.213   1.428 -0.2301  0.3200  0.2772
 8825TIP3    H147966   5.859   3.132   1.471  1.2917  0.3521 -0.6824
 8825TIP3    H247967   5.889   3.224   1.354 -1.2633  1.6169 -0.3775
 8826TIP3   OH247968   5.325   5.867  14.658 -0.2806 -0.4213  0.0440
 8826TIP3    H147969   5.390   5.803  14.629 -1.0856 -0.6222 -1.4046
 8826TIP3    H247970   5.285   5.828  14.735  2.3006  0.3645  1.8397
 8827TIP3   OH247971   0.510   6.198  10.753 -0.3582 -0.6120  0.0621
 8827TIP3    H147972   0.552   6.117  10.782  0.6947 -0.0845  0.0524
 8827TIP3    H247973   0.417   6.176  10.745 -0.5190 -1.1185  2.6482
 8828TIP3   OH247974   3.451   0.150   1.329  0.3063  0.4039  0.4756
 8828TIP3    H147975   3.372   0.204   1.334  0.8386  1.1884  0.3518
 8828TIP3    H247976   3.459   0.111   1.416 -0.1285  0.4455  0.5340
 8829TIP3   OH247977   0.112   2.787  12.524  0.2915 -0.3111 -0.2541
 8829TIP3    H147978   0.126   2.851  12.454 -1.2311  0.0340 -0.2723
 8829TIP3    H247979   0.017   2.789  12.539  0.3719 -1.7408  0.5315
 8830TIP3   OH247980   2.158   4.618  11.773  0.4931 -0.1177 -0.5131
 8830TIP3    H147981   2.072   4.578  11.773  0.2616  0.1647  3.7080
 8830TIP3    H247982   2.143   4.707  11.740 -0.8576 -0.0387  0.2887
 8831TIP3   OH247983   2.448   5.622   1.030  0.3652  0.4733 -0.2372
 8831TIP3    H147984   2.515   5.636   1.096 -0.8502 -0.7122  1.2730
 8831TIP3    H247985   2.367   5.651   1.072 -0.3590  0.0688 -1.3472
 8832TIP3   OH247986   5.610   6.547  11.364  0.0659  0.0296  0.2840
 8832TIP3    H147987   5.638   6.628  11.321  0.0199 -1.1869 -2.1511
 8832TIP3    H247988   5.652   6.549  11.450  1.8391  1.5900 -0.5981
 8833TIP3   OH247989   5.059   2.111   2.393  0.5409  0.0331  0.0443
 8833TIP3    H147990   5.102   2.143   2.473  1.4375 -1.4930  0.1827
 8833TIP3    H247991   5.131   2.100   2.331  0.0595 -0.4607 -0.4239
 8834TIP3   OH247992   4.282   5.284   6.053  0.1959  0.1161 -0.0418
 8834TIP3    H147993   4.344   5.296   6.125  0.9604  1.8584 -0.9611
 8834TIP3    H247994   4.196   5.291   6.095  0.6267 -0.1193  0.8972
 8835TIP3   OH247995   6.287   3.620  13.798 -0.2930  0.3190 -0.4273
 8835TIP3    H147996   6.383   3.629  13.799  0.1373 -3.7378 -0.0055
 8835TIP3    H247997   6.263   3.611  13.890 -0.6942 -1.8507 -0.7206
 8836TIP3   OH247998   4.001   2.135  16.977 -0.1986 -0.1199  0.2416
 8836TIP3    H147999   3.980   2.228  16.972 -0.0798 -0.0335  1.1632
 8836TIP3    H248000   4.080   2.131  17.032  1.3507 -0.5557 -1.9581
 8837TIP3   OH248001   4.456   4.542   6.091  0.6857 -0.1426  0.4713
 8837TIP3    H148002   4.475   4.575   6.179  0.8765 -0.0521  0.3969
 8837TIP3    H248003   4.515   4.468   6.080  0.9911  0.1319  0.2443
 8838TIP3   OH248004   3.444   4.609  13.050  0.5685 -0.3930  0.3110
 8838TIP3    H148005   3.516   4.554  13.017  1.7991  0.8121  0.9524
 8838TIP3    H248006   3.426   4.670  12.979  0.9675  0.0468  0.5831
 8839TIP3   OH248007   3.117   5.911  14.830  0.6082 -0.0820  0.2774
 8839TIP3    H148008   3.097   5.821  14.803 -1.7140  1.1286 -2.2652
 8839TIP3    H248009   3.125   5.959  14.748  1.4986  2.0996  1.6214
 8840TIP3   OH248010   2.965   0.628   4.646  0.3136 -0.1893  0.0532
 8840TIP3    H148011   3.032   0.680   4.691  0.2702  0.2720 -0.4217
 8840TIP3    H248012   2.888   0.685   4.644  0.3804 -0.1272 -0.8047
 8841TIP3   OH248013   0.387   6.134   4.934 -0.3421  0.0887  0.5083
 8841TIP3    H148014   0.477   6.102   4.923 -1.1231 -1.8706 -0.4496
 8841TIP3    H248015   0.363   6.107   5.023 -0.5760 -0.9192  0.1408
 8842TIP3   OH248016   0.256   5.992  15.110  0.2617  0.3601  0.0050
 8842TIP3    H148017   0.230   6.063  15.051  1.7014  1.9037  1.1919
 8842TIP3    H248018   0.328   6.028  15.161 -1.1898 -0.8276  2.9802
 8843TIP3   OH248019   6.017   1.407  15.748 -0.2331  0.2364  0.9470
 8843TIP3    H148020   5.922   1.414  15.742 -0.1780 -1.3081 -4.6124
 8843TIP3    H248021   6.049   1.490  15.713  0.4909 -0.0628  0.8942
 8844TIP3   OH248022   2.012   3.593   4.281 -0.0740  0.2680  0.2375
 8844TIP3    H148023   1.987   3.501   4.283 -0.3625  0.3550  1.0173
 8844TIP3    H248024   2.067   3.605   4.358  1.6100  0.3058 -0.9433
 8845TIP3   OH248025   3.493   6.226  12.613 -0.2137 -0.4253  0.2881
 8845TIP3    H148026   3.489   6.320  12.600  0.9101 -0.4225 -0.1320
 8845TIP3    H248027   3.427   6.191  12.554  0.5138  0.0082 -0.8121
 8846TIP3   OH248028   0.696   1.446  14.414  0.3598  0.0213 -0.3663
 8846TIP3    H148029   0.719   1.354  14.427  0.5590 -0.3021 -2.8010
 8846TIP3    H248030   0.663   1.475  14.499  0.9613 -2.0952  0.6135
 8847TIP3   OH248031   6.012   6.365   1.752  0.3487 -0.0660 -0.4761
 8847TIP3    H148032   5.921   6.336   1.742  0.3779 -0.1690 -0.4452
 8847TIP3    H248033   6.005   6.455   1.784  0.2306 -1.0278  2.3767
 8848TIP3   OH248034   6.362   1.458   3.715 -0.4751 -0.3907  0.0224
 8848TIP3    H148035   6.283   1.512   3.714  0.2741  0.7069 -0.0301
 8848TIP3    H248036   6.379   1.440   3.622  0.6381  1.3061 -0.1267
 8849TIP3   OH248037   5.271   3.107   0.397 -0.1645 -1.0480  0.7313
 8849TIP3    H148038   5.190   3.077   0.357  0.1051 -1.4617  0.4934
 8849TIP3    H248039   5.244   3.177   0.457 -0.7609 -1.5977  1.1090
 8850TIP3   OH248040   4.270   4.071  12.394  0.5349  0.1024  0.3601
 8850TIP3    H148041   4.344   4.021  12.428  1.9274  2.8433  1.4913
 8850TIP3    H248042   4.308   4.130  12.329 -0.8094  0.8749  0.2529
 8851TIP3   OH248043   0.517   3.551  17.277 -0.3143  0.7519 -0.4927
 8851TIP3    H148044   0.450   3.614  17.250 -1.4436  0.1919  0.9339
 8851TIP3    H248045   0.487   3.519  17.362  0.7678 -0.9768 -0.7375
 8852TIP3   OH248046   3.326   5.366   3.207 -0.3974  0.2159  0.2368
 8852TIP3    H148047   3.392   5.422   3.248  0.9441 -1.7208  0.7936
 8852TIP3    H248048   3.273   5.334   3.280  1.0819 -2.0554  0.3981
 8853TIP3   OH248049   0.882   5.206  14.504  0.2890  0.4294 -0.0764
 8853TIP3    H148050   0.869   5.295  14.538 -0.1176 -0.3281  1.8402
 8853TIP3    H248051   0.925   5.160  14.576 -0.4708 -1.2139 -0.6589
 8854TIP3   OH248052   6.309   4.911   1.086  0.1283 -0.1298  0.2175
 8854TIP3    H148053   6.285   4.823   1.058 -0.7548  0.3197 -0.4591
 8854TIP3    H248054   6.405   4.910   1.088  0.1117 -1.4375  1.2954
 8855TIP3   OH248055   2.638   1.910   4.576 -0.2191 -0.8614 -0.6056
 8855TIP3    H148056   2.650   1.923   4.482 -2.5435  0.5714 -0.7542
 8855TIP3    H248057   2.713   1.955   4.616 -1.3737  2.1369 -1.6607
 8856TIP3   OH248058   0.698   3.073   4.650 -0.3434  0.2736 -0.2055
 8856TIP3    H148059   0.685   3.062   4.556 -1.8634  1.3270 -0.1469
 8856TIP3    H248060   0.700   3.168   4.663  0.0330  0.1370  0.7955
 8857TIP3   OH248061   3.569   3.482  14.055 -0.1701 -0.0919 -0.5553
 8857TIP3    H148062   3.650   3.436  14.029 -0.6259 -0.9810 -0.4212
 8857TIP3    H248063   3.515   3.414  14.094 -0.6413  0.6827  0.1508
 8858TIP3   OH248064   4.369   1.006   1.426  0.6302  0.0047 -0.0943
 8858TIP3    H148065   4.405   0.939   1.484 -1.0724  2.1765  3.6134
 8858TIP3    H248066   4.444   1.062   1.405  1.1572 -0.4558  0.5447
 8859TIP3   OH248067   0.281   2.881  15.792  0.0518 -0.2112 -0.2956
 8859TIP3    H148068   0.196   2.915  15.822 -0.4174 -0.8522 -0.8687
 8859TIP3    H248069   0.320   2.843  15.870 -0.2050  0.0564 -0.0328
 8860TIP3   OH248070   0.766   5.366   4.618  0.6429  0.0643  0.1254
 8860TIP3    H148071   0.789   5.327   4.533  0.3239 -1.1519  0.5852
 8860TIP3    H248072   0.712   5.442   4.596  0.3513 -0.3873 -0.7552
 8861TIP3   OH248073   6.493   4.892  14.161  0.3454 -0.2634 -0.1004
 8861TIP3    H148074   6.495   4.804  14.124 -0.1577  0.0679 -0.9275
 8861TIP3    H248075   6.576   4.900  14.208  0.3843 -1.1829  0.0042
 8862TIP3   OH248076   5.098   1.825  12.481 -0.4422 -0.4105 -0.1713
 8862TIP3    H148077   5.033   1.856  12.417  1.6040  0.4411 -1.9090
 8862TIP3    H248078   5.181   1.862  12.450  1.2961 -3.5108  0.5792
 8863TIP3   OH248079   5.892   3.608   2.011 -0.4492  0.3459  0.0777
 8863TIP3    H148080   5.933   3.526   1.986 -1.1645  0.1264 -0.3820
 8863TIP3    H248081   5.854   3.592   2.098  3.5837  1.6340  2.2212
 8864TIP3   OH248082   5.091   0.578  16.075  0.6638 -0.5356  0.6539
 8864TIP3    H148083   5.111   0.587  16.168  0.7680 -1.6418  0.7508
 8864TIP3    H248084   5.164   0.621  16.030  0.7376 -0.2147  1.0758
 8865TIP3   OH248085   2.739   4.623   5.670 -0.2839 -0.3278 -0.1548
 8865TIP3    H148086   2.686   4.697   5.640 -0.1671  0.3878  1.3256
 8865TIP3    H248087   2.691   4.589   5.746  0.5929 -0.6341  0.2648
 8866TIP3   OH248088   6.161   4.497   6.213 -0.9200  0.0036 -0.1922
 8866TIP3    H148089   6.201   4.565   6.267 -0.6947  0.4402 -0.8918
 8866TIP3    H248090   6.235   4.458   6.166 -1.0827 -0.5256 -0.0055
 8867TIP3   OH248091   1.924   6.646  17.241  0.8476  0.4298 -0.9507
 8867TIP3    H148092   1.850   6.690  17.200  0.0550  1.0363  1.0501
 8867TIP3    H248093   1.912   6.554  17.219 -0.3664  0.5568 -0.8682
 8868TIP3   OH248094   4.051   3.593  13.488 -0.0357 -0.7827  0.0800
 8868TIP3    H148095   3.981   3.544  13.531  1.2265 -1.5079  1.3574
 8868TIP3    H248096   4.032   3.586  13.395 -2.1162 -0.2779  0.4367
 8869TIP3   OH248097   2.257   2.524   2.802  0.4116 -0.1599  0.3747
 8869TIP3    H148098   2.220   2.533   2.890 -0.6651 -1.3650  0.0593
 8869TIP3    H248099   2.199   2.577   2.747  1.2093  0.7648  0.4157
 8870TIP3   OH248100   4.242   3.267   0.628  0.1530 -0.3350 -0.2405
 8870TIP3    H148101   4.231   3.173   0.637 -2.8768  0.1497  2.1910
 8870TIP3    H248102   4.281   3.279   0.542  1.8349 -3.8607 -0.0244
 8871TIP3   OH248103   0.358   0.681   6.185 -0.0001 -0.0246  0.3428
 8871TIP3    H148104   0.265   0.671   6.206  0.1865  1.1871  1.8109
 8871TIP3    H248105   0.369   0.775   6.169  0.9727 -0.1677  0.1623
 8872TIP3   OH248106   3.521   4.470  13.773 -0.2053 -0.1261 -0.0500
 8872TIP3    H148107   3.568   4.541  13.816 -0.8409 -2.6897  5.3016
 8872TIP3    H248108   3.574   4.392  13.789 -2.2731 -1.7604 -0.8369
 8873TIP3   OH248109   3.739   3.932  11.205 -0.7643 -0.0203 -0.5027
 8873TIP3    H148110   3.755   3.945  11.298 -0.1688 -0.4599 -0.5453
 8873TIP3    H248111   3.644   3.917  11.200 -0.5502 -1.7248  0.2340
 8874TIP3   OH248112   1.377   4.398  13.753  0.3652 -0.4982 -0.4804
 8874TIP3    H148113   1.461   4.371  13.718 -0.2014 -0.1321 -2.1358
 8874TIP3    H248114   1.327   4.427  13.677 -0.7772  0.5632  0.6559
 8875TIP3   OH248115   3.615   3.496   3.179  0.9709  0.0843  0.1131
 8875TIP3    H148116   3.550   3.432   3.151  1.5945 -1.1277  1.3626
 8875TIP3    H248117   3.618   3.560   3.108 -2.5856  0.9477  0.6250
 8876TIP3   OH248118   1.508   6.728  11.812  0.2117 -1.0798  0.4553
 8876TIP3    H148119   1.423   6.713  11.854 -1.1820 -1.5815 -2.3867
 8876TIP3    H248120   1.487   6.779  11.733  2.5760 -1.0519 -0.1999
 8877TIP3   OH248121   6.599   5.567  10.375 -0.2293  0.1662  0.1400
 8877TIP3    H148122   6.511   5.550  10.407 -0.8215 -1.2084 -2.0462
 8877TIP3    H248123   6.653   5.498  10.414 -0.3725  0.2750  0.5219
 8878TIP3   OH248124   2.211   0.202   1.339  0.2476 -0.3218  0.2586
 8878TIP3    H148125   2.192   0.245   1.422  1.0440  0.3371  0.1103
 8878TIP3    H248126   2.304   0.218   1.324  0.0696 -0.2591 -0.8567
 8879TIP3   OH248127   5.130   5.390  16.554 -0.7424 -0.6733  0.6539
 8879TIP3    H148128   5.203   5.422  16.500 -0.2582  0.4537  1.9310
 8879TIP3    H248129   5.111   5.303  16.521  1.7113 -1.2896  0.8070
 8880TIP3   OH248130   5.090   0.229  13.647 -0.6047 -0.2564 -0.0156
 8880TIP3    H148131   5.095   0.313  13.693  0.2952 -0.3529  0.0680
 8880TIP3    H248132   5.086   0.254  13.554  0.1475 -0.1332 -0.0163
 8881TIP3   OH248133   6.648   5.756  11.330 -0.0256 -0.1242  0.7669
 8881TIP3    H148134   6.583   5.798  11.386 -0.4307  4.0974 -2.5822
 8881TIP3    H248135   6.598   5.696  11.275 -0.4447 -0.0442  1.0598
 8882TIP3   OH248136   5.634   1.913   1.677  0.0779 -0.3091 -0.0155
 8882TIP3    H148137   5.661   1.822   1.692 -0.3344 -0.6680 -1.3881
 8882TIP3    H248138   5.670   1.935   1.592 -2.3570 -0.1784 -1.0441
 8883TIP3   OH248139   5.806   2.402  11.989  0.5838  0.2513  0.3372
 8883TIP3    H148140   5.895   2.414  12.022  1.5190 -1.4812 -1.4438
 8883TIP3    H248141   5.774   2.323  12.031  0.1463  0.4769  0.4355
 8884TIP3   OH248142   5.570   5.707   3.774  0.0849  0.7263  0.1609
 8884TIP3    H148143   5.609   5.789   3.745  0.4488  0.4326 -0.1778
 8884TIP3    H248144   5.591   5.644   3.705 -0.8699  0.5314  0.0347
 8885TIP3   OH248145   1.179   4.433   3.736 -0.1328  0.5395 -0.5391
 8885TIP3    H148146   1.095   4.391   3.719 -0.7131  1.2715  0.4317
 8885TIP3    H248147   1.188   4.429   3.831 -0.0422  2.3000 -0.4623
 8886TIP3   OH248148   6.182   6.693  12.386 -0.5118  1.4556  0.0614
 8886TIP3    H148149   6.181   6.597  12.382 -0.3207  1.4083  1.0450
 8886TIP3    H248150   6.151   6.721  12.299 -0.4220  0.5099 -0.2841
 8887TIP3   OH248151   6.325   4.320  12.863  0.5540  0.2692  0.3582
 8887TIP3    H148152   6.234   4.332  12.889  0.2629 -0.5913 -0.2063
 8887TIP3    H248153   6.372   4.301  12.944 -0.3190 -2.2720  0.3218
 8888TIP3   OH248154   4.530   0.448  12.027 -0.2098  0.3576  0.1068
 8888TIP3    H148155   4.529   0.539  11.997 -0.7329 -0.8727 -3.8401
 8888TIP3    H248156   4.437   0.425  12.036 -0.0681  0.3763  1.6770
 8889TIP3   OH248157   1.306   3.497   3.716  0.2860  0.3514 -0.8857
 8889TIP3    H148158   1.325   3.478   3.624  1.0842  0.1364 -0.6813
 8889TIP3    H248159   1.233   3.439   3.737  1.1316 -0.7685 -0.9501
 8890TIP3   OH248160   3.950   4.944  12.584 -0.2690 -0.3325  0.6933
 8890TIP3    H148161   3.977   4.992  12.505 -0.8335 -1.7471 -0.3752
 8890TIP3    H248162   3.981   4.998  12.656  1.4333  0.3356 -0.5042
 8891TIP3   OH248163   1.086   5.870  14.312 -0.2301 -0.2207 -0.6569
 8891TIP3    H148164   1.031   5.791  14.315  0.8055 -0.9139  0.4469
 8891TIP3    H248165   1.057   5.922  14.388 -0.1605 -0.0418 -0.7516
 8892TIP3   OH248166   4.281   6.437  16.169 -0.2795  0.1898 -0.7432
 8892TIP3    H148167   4.321   6.497  16.232  0.8137  0.5758 -1.7744
 8892TIP3    H248168   4.229   6.494  16.113 -1.1334 -0.1336 -0.2824
 8893TIP3   OH248169   3.809   6.031   5.665 -0.3492  0.1173 -0.0705
 8893TIP3    H148170   3.875   5.976   5.622  1.7795  0.7755  2.1750
 8893TIP3    H248171   3.788   5.985   5.746 -2.9062 -0.2074 -0.8786
 8894TIP3   OH248172   1.334   3.745   5.397 -0.1516  0.4394  0.0619
 8894TIP3    H148173   1.424   3.724   5.375 -0.6550 -0.9728 -0.7414
 8894TIP3    H248174   1.339   3.800   5.475  1.2641 -1.9433  1.6876
 8895TIP3   OH248175   5.954   5.722   5.670 -0.1961  0.0747  0.1457
 8895TIP3    H148176   5.872   5.771   5.672  1.0144  2.0958  0.5141
 8895TIP3    H248177   5.983   5.727   5.579 -0.3737 -0.4907  0.0537
 8896TIP3   OH248178   4.579   2.313   1.067  0.0608  0.3382 -0.0969
 8896TIP3    H148179   4.516   2.304   0.996 -0.3439 -0.0565  0.3058
 8896TIP3    H248180   4.542   2.381   1.123  1.0358  1.5970 -0.9460
 8897TIP3   OH248181   5.106   4.238  13.732 -0.3365 -0.8062  0.6255
 8897TIP3    H148182   5.175   4.304  13.737 -0.0206 -1.0797 -0.0721
 8897TIP3    H248183   5.129   4.175  13.801  0.5351 -1.2966 -0.1110
 8898TIP3   OH248184   2.612   0.242  10.852  0.4383  0.0663 -0.9897
 8898TIP3    H148185   2.543   0.199  10.904  0.9077 -1.4331 -1.5695
 8898TIP3    H248186   2.649   0.307  10.911  0.6385 -1.2795  0.4180
 8899TIP3   OH248187   2.912   0.174  17.064  0.3954 -0.0317  0.0998
 8899TIP3    H148188   2.999   0.138  17.043  0.1496 -1.0338  0.7453
 8899TIP3    H248189   2.929   0.240  17.131  0.7345  0.2967 -0.3027
 8900TIP3   OH248190   5.139   3.357   4.866 -0.0352  0.4744 -0.1120
 8900TIP3    H148191   5.168   3.393   4.782  2.7454  0.3585  0.7257
 8900TIP3    H248192   5.119   3.433   4.920  0.6216  0.6293 -0.0819
 8901TIP3   OH248193   1.629   2.801   3.057 -0.4827 -0.1732  0.6454
 8901TIP3    H148194   1.625   2.727   3.119 -2.5255 -0.0394  0.7157
 8901TIP3    H248195   1.569   2.776   2.987  0.8438  0.2596 -0.6639
 8902TIP3   OH248196   5.381   2.744  12.668 -0.2491  0.1519  0.0748
 8902TIP3    H148197   5.367   2.712  12.757  1.0073  0.5301  0.4111
 8902TIP3    H248198   5.299   2.726  12.623 -0.8915 -0.0463  1.3120
 8903TIP3   OH248199   1.534   4.615   0.670  0.7540  0.3379 -0.2674
 8903TIP3    H148200   1.454   4.668   0.672 -0.0893 -0.9268  0.3471
 8903TIP3    H248201   1.571   4.630   0.583 -0.3717  0.6389 -0.6999
 8904TIP3   OH248202   6.273   6.545  16.265 -0.0737  0.6408  0.2773
 8904TIP3    H148203   6.339   6.603  16.227  0.3447 -1.0828 -1.7217
 8904TIP3    H248204   6.189   6.580  16.233  0.1607  0.3319 -0.7100
 8905TIP3   OH248205   0.104   2.437   0.182 -0.2433 -0.2682 -0.4503
 8905TIP3    H148206   0.177   2.384   0.149 -0.5039 -1.2208  0.4423
 8905TIP3    H248207   0.094   2.408   0.273  0.0364  1.8100  0.2729
 8906TIP3   OH248208   3.875   5.615   1.469 -0.7809 -0.4441 -0.5240
 8906TIP3    H148209   3.916   5.533   1.495  0.0034  0.2562  0.5259
 8906TIP3    H248210   3.836   5.648   1.550 -1.1549  0.1722 -0.9541
 8907TIP3   OH248211   5.338   5.616   6.117  0.2999  0.1318 -0.0568
 8907TIP3    H148212   5.342   5.703   6.078  0.1363 -0.9161 -2.5104
 8907TIP3    H248213   5.407   5.616   6.183  1.8907  1.3372 -1.6885
 8908TIP3   OH248214   5.277   3.555   3.416 -0.0178 -0.1628 -0.0064
 8908TIP3    H148215   5.183   3.545   3.430  0.2751 -0.1569  2.2063
 8908TIP3    H248216   5.313   3.564   3.504  1.8869  1.4678 -0.9153
 8909TIP3   OH248217   2.504   2.066   3.633 -0.6929 -0.0748  0.9215
 8909TIP3    H148218   2.540   2.154   3.643  0.2344 -0.3181 -0.1938
 8909TIP3    H248219   2.413   2.079   3.609 -0.3069  0.5969 -0.1821
 8910TIP3   OH248220   0.737   6.152   1.491 -0.1423  0.1377  0.3568
 8910TIP3    H148221   0.689   6.193   1.563  0.6860  1.0466  0.4048
 8910TIP3    H248222   0.703   6.195   1.412  1.7670  2.0489  0.5061
 8911TIP3   OH248223   1.859   0.983  12.303 -0.3871  0.0647 -0.0334
 8911TIP3    H148224   1.839   0.916  12.369  0.1755 -0.5669 -0.5047
 8911TIP3    H248225   1.953   0.994  12.307 -0.3558  0.0682 -0.6877
 8912TIP3   OH248226   1.589   2.522   3.143 -0.2122 -0.2502  0.0285
 8912TIP3    H148227   1.586   2.463   3.218  0.2200 -3.7752 -2.5473
 8912TIP3    H248228   1.503   2.513   3.101  0.7725 -1.2020 -1.8824
 8913TIP3   OH248229   4.971   5.023   4.010 -0.1251 -0.1633 -0.1625
 8913TIP3    H148230   4.964   5.049   3.918  0.5058 -1.3554 -0.5563
 8913TIP3    H248231   4.892   4.972   4.026 -0.8121  1.0362  0.2933
 8914TIP3   OH248232   4.241   6.127  11.900  0.6760 -0.6862 -0.3582
 8914TIP3    H148233   4.309   6.160  11.958  0.2129 -0.1274 -0.1172
 8914TIP3    H248234   4.212   6.045  11.941  2.9981 -2.3136 -1.8477
 8915TIP3   OH248235   3.207   2.913  16.038 -0.4312  0.3761 -0.5517
 8915TIP3    H148236   3.280   2.864  16.075 -1.4573 -0.0467  0.9385
 8915TIP3    H248237   3.247   2.989  15.996  0.8458  0.2074  0.3579
 8916TIP3   OH248238   0.264   1.253  13.386 -0.4884 -0.6064 -0.4629
 8916TIP3    H148239   0.351   1.285  13.408 -0.1018 -1.1356 -1.2141
 8916TIP3    H248240   0.208   1.285  13.457  0.1703  0.3930 -0.3887
 8917TIP3   OH248241   2.018   5.116  15.522  0.0343 -0.4986 -0.2569
 8917TIP3    H148242   2.070   5.175  15.577 -1.1671  0.4294 -0.1080
 8917TIP3    H248243   1.934   5.161  15.511  0.0757 -0.9227 -2.4273
 8918TIP3   OH248244   3.692   5.799   3.425 -0.1454  0.3261  0.8008
 8918TIP3    H148245   3.687   5.778   3.518 -1.0540  0.8146  0.8711
 8918TIP3    H248246   3.693   5.895   3.422  2.3848  0.3170  0.4153
 8919TIP3   OH248247   1.658   4.181   0.098 -0.0986  0.3638 -0.1376
 8919TIP3    H148248   1.671   4.169   0.004  1.8181  0.2887  0.1099
 8919TIP3    H248249   1.699   4.265   0.117 -0.9710  0.6452  0.5487
 8920TIP3   OH248250   4.371   2.887   3.124  0.5359 -0.3801 -0.0549
 8920TIP3    H148251   4.343   2.802   3.090  2.5974 -1.0171 -0.2297
 8920TIP3    H248252   4.414   2.930   3.049  0.0115  0.5784  0.1864
 8921TIP3   OH248253   5.332   3.087  10.645 -0.2200 -0.0019  0.7434
 8921TIP3    H148254   5.332   3.181  10.664 -0.8427  0.2686 -0.4720
 8921TIP3    H248255   5.400   3.076  10.579 -0.0768 -0.4149  0.9613
 8922TIP3   OH248256   1.146   2.833  10.398 -0.2452  0.1161 -0.2824
 8922TIP3    H148257   1.065   2.864  10.439 -0.3984 -0.4976 -0.1159
 8922TIP3    H248258   1.149   2.876  10.313 -0.6325  0.3145 -0.1943
 8923TIP3   OH248259   4.565   2.035  15.812 -0.4065  0.1090 -0.2052
 8923TIP3    H148260   4.499   1.966  15.808 -0.6828  0.4067 -0.8667
 8923TIP3    H248261   4.520   2.109  15.852 -0.3289  0.1547 -0.2020
 8924TIP3   OH248262   4.929   6.263  16.228 -0.3519 -0.8262 -0.4007
 8924TIP3    H148263   4.974   6.347  16.230 -0.1148 -0.9452 -0.6355
 8924TIP3    H248264   4.995   6.199  16.253 -0.6259 -0.9047  0.1324
 8925TIP3   OH248265   5.137   4.993  15.997 -0.3360  0.2961 -0.2956
 8925TIP3    H148266   5.051   5.007  16.035 -1.1455  1.6890 -2.5432
 8925TIP3    H248267   5.157   4.901  16.016 -1.7897  0.2578  1.2063
 8926TIP3   OH248268   5.488   1.830   1.919  0.3384  0.3061  0.7722
 8926TIP3    H148269   5.530   1.831   2.005  1.6114  0.9077  0.1561
 8926TIP3    H248270   5.554   1.866   1.859 -0.9371  0.9588 -0.2733
 8927TIP3   OH248271   4.726   2.588   1.641  0.2007 -0.2122 -0.0549
 8927TIP3    H148272   4.777   2.507   1.632 -0.3408 -0.4459 -1.0329
 8927TIP3    H248273   4.734   2.631   1.556  0.8464  0.9851  0.6045
 8928TIP3   OH248274   1.155   2.736   6.900 -0.2622 -0.1568  0.1371
 8928TIP3    H148275   1.172   2.815   6.950  2.9847 -0.7818  0.0946
 8928TIP3    H248276   1.130   2.671   6.966 -1.7599  0.5553  0.2902
 8929TIP3   OH248277   4.972   6.655   2.157 -0.2615  0.2238  0.3327
 8929TIP3    H148278   4.914   6.727   2.133  0.2631  0.4959 -0.1409
 8929TIP3    H248279   4.989   6.609   2.074 -2.1042 -1.5831  0.9187
 8930TIP3   OH248280   5.029   5.280   0.491 -0.1434 -0.0159  0.0757
 8930TIP3    H148281   5.112   5.259   0.450 -1.6185 -1.7273 -2.1326
 8930TIP3    H248282   5.016   5.373   0.475  0.1383 -0.2967 -1.8206
 8931TIP3   OH248283   2.749   5.081  13.469  0.4390 -0.0601 -0.1065
 8931TIP3    H148284   2.700   5.160  13.448  2.3943  1.5906  1.2888
 8931TIP3    H248285   2.817   5.076  13.402 -0.0361 -0.8759 -0.5263
 8932TIP3   OH248286   2.383   0.961   2.814  0.8002 -0.4103 -0.0183
 8932TIP3    H148287   2.454   0.931   2.756  0.9613  0.5117 -0.3083
 8932TIP3    H248288   2.411   0.934   2.901  1.6858  0.2567 -0.0885
 8933TIP3   OH248289   2.497   4.330  13.042 -0.0981 -0.6969 -0.0565
 8933TIP3    H148290   2.432   4.400  13.042 -1.7348 -2.2034  1.2574
 8933TIP3    H248291   2.531   4.329  12.952 -0.2140  1.6031 -0.1554
 8934TIP3   OH248292   0.978   0.630  15.701  0.1694  0.0536 -0.2267
 8934TIP3    H148293   0.926   0.637  15.621 -3.2731 -3.4153  1.5394
 8934TIP3    H248294   1.048   0.569  15.679  0.1474  0.3041 -1.0025
 8935TIP3   OH248295   3.863   3.239   4.183 -0.2796 -0.2238  0.1037
 8935TIP3    H148296   3.867   3.233   4.087 -0.7344 -2.5981  0.2189
 8935TIP3    H248297   3.950   3.269   4.208  0.3460 -1.0890 -0.9603
 8936TIP3   OH248298   2.137   2.039   1.893  0.0241  0.5344 -0.4348
 8936TIP3    H148299   2.106   1.995   1.814  0.6482  0.3511 -0.5871
 8936TIP3    H248300   2.224   2.002   1.908  0.3832  1.4026 -0.3175
 8937TIP3   OH248301   0.995   3.604   5.286 -0.5510  0.1676  0.4081
 8937TIP3    H148302   1.063   3.612   5.219  0.1410 -2.4685  0.7402
 8937TIP3    H248303   1.042   3.591   5.367 -1.3751 -3.5354  0.3930
 8938TIP3   OH248304   6.285   3.608   5.824  0.3820 -0.1238  0.2267
 8938TIP3    H148305   6.336   3.548   5.877  1.2458  0.5863  0.2115
 8938TIP3    H248306   6.196   3.573   5.827  0.2141  0.4289  2.9269
 8939TIP3   OH248307   4.551   6.355  16.332  0.0048  0.6757 -0.4020
 8939TIP3    H148308   4.611   6.293  16.373  0.2048  0.2495 -1.3267
 8939TIP3    H248309   4.476   6.302  16.305  0.1873  0.8356 -1.2190
 8940TIP3   OH248310   3.591   5.604  14.469  0.1374  0.5195  0.3090
 8940TIP3    H148311   3.671   5.606  14.416 -0.0856  0.8802 -0.0194
 8940TIP3    H248312   3.592   5.687  14.516 -0.8301  1.2379 -0.8853
 8941TIP3   OH248313   5.327   4.963  10.653  0.2318  0.4901 -0.6344
 8941TIP3    H148314   5.355   4.881  10.693  0.3744  0.6032 -0.5033
 8941TIP3    H248315   5.344   4.952  10.560  0.5501  0.4918 -0.5766
 8942TIP3   OH248316   4.361   5.750  16.006 -0.3913  0.4009 -0.3159
 8942TIP3    H148317   4.442   5.745  15.956 -0.8564  0.8241 -1.1180
 8942TIP3    H248318   4.294   5.717  15.947 -0.6856 -0.7934  0.6467
 8943TIP3   OH248319   6.715   1.012   1.876  0.2271  0.1881  0.4280
 8943TIP3    H148320   6.683   0.964   1.952  1.4211  0.0576  0.8563
 8943TIP3    H248321   6.770   1.082   1.912 -1.4673  1.8968 -0.1894
 8944TIP3   OH248322   0.136   1.474   4.711  0.4235 -0.1029 -0.5057
 8944TIP3    H148323   0.178   1.557   4.733 -1.1273  0.5279  0.1300
 8944TIP3    H248324   0.156   1.460   4.618 -0.1915  1.5077 -0.8899
 8945TIP3   OH248325   5.406   0.559  12.835  0.1557 -0.6110 -0.3559
 8945TIP3    H148326   5.336   0.499  12.860 -0.0355  0.8136  2.7404
 8945TIP3    H248327   5.393   0.573  12.741 -2.6150 -1.7779 -0.1951
 8946TIP3   OH248328   0.270   3.623   4.473 -0.0382 -0.5518  0.0516
 8946TIP3    H148329   0.216   3.568   4.530 -0.0638 -0.2966  0.2801
 8946TIP3    H248330   0.210   3.651   4.404  0.3053 -1.8503 -0.7831
 8947TIP3   OH248331   2.955   4.298  11.946 -0.8340 -0.5779  0.4576
 8947TIP3    H148332   3.014   4.367  11.977 -1.8906 -0.2102  1.6879
 8947TIP3    H248333   3.014   4.225  11.926  0.3537  0.8740 -1.4850
 8948TIP3   OH248334   4.517   5.145   0.790 -0.8550 -0.6712  0.0681
 8948TIP3    H148335   4.593   5.145   0.849  0.0212 -1.8946 -1.0103
 8948TIP3    H248336   4.489   5.236   0.786  1.1237 -0.0616 -0.2131
 8949TIP3   OH248337   2.270   6.645  16.260 -0.3782 -0.7164  0.1651
 8949TIP3    H148338   2.261   6.652  16.355 -0.4157 -0.3320  0.1310
 8949TIP3    H248339   2.308   6.558  16.246  1.1493 -0.1478  0.6331
 8950TIP3   OH248340   6.266   5.745  16.063 -0.1930  0.3742  0.3336
 8950TIP3    H148341   6.264   5.657  16.025 -2.2704  0.7695 -0.5076
 8950TIP3    H248342   6.354   5.777  16.044  0.2301 -1.1234 -0.2851
 8951TIP3   OH248343   2.931   0.486  14.491  0.0972  0.5336  0.3212
 8951TIP3    H148344   2.979   0.437  14.424  0.3799  1.5639 -0.2374
 8951TIP3    H248345   2.912   0.421  14.559 -1.7462 -0.9097 -1.5436
 8952TIP3   OH248346   2.471   3.298  12.312 -0.4838 -0.4177 -0.1249
 8952TIP3    H148347   2.433   3.360  12.375  0.8409 -0.4188  0.6871
 8952TIP3    H248348   2.396   3.251  12.276 -1.4158  0.9296  0.0285
 8953TIP3   OH248349   0.898   2.404   5.420 -0.2204  0.6815  0.2517
 8953TIP3    H148350   0.904   2.463   5.346  0.2472  0.9875  0.5310
 8953TIP3    H248351   0.815   2.428   5.463 -0.4865  0.5085 -0.1593
 8954TIP3   OH248352   6.354   3.153   3.040  0.8043 -0.4152  0.1910
 8954TIP3    H148353   6.438   3.185   3.074  1.4762 -2.2355  0.2575
 8954TIP3    H248354   6.376   3.073   2.993 -0.8069 -0.5063 -0.4259
 8955TIP3   OH248355   2.710   2.106  16.882 -0.3995  0.0304  0.0297
 8955TIP3    H148356   2.708   2.178  16.819 -1.0685 -1.2777 -1.4624
 8955TIP3    H248357   2.710   2.027  16.829 -2.9704 -1.1453  1.6607
 8956TIP3   OH248358   0.539   4.767   3.891 -0.6499 -0.2527 -0.7194
 8956TIP3    H148359   0.605   4.765   3.823  0.4279 -1.4239  0.3462
 8956TIP3    H248360   0.456   4.777   3.844  0.1014 -0.7950 -2.1647
 8957TIP3   OH248361   4.462   3.188   2.792 -0.3778 -0.2731  1.0034
 8957TIP3    H148362   4.439   3.250   2.861  0.2246  0.2508  0.7280
 8957TIP3    H248363   4.382   3.179   2.740 -0.9237 -0.8710  1.9099
 8958TIP3   OH248364   5.669   3.929   0.684 -0.0655  0.0578  0.1381
 8958TIP3    H148365   5.604   3.928   0.615  0.3597 -0.6953 -0.2593
 8958TIP3    H248366   5.668   3.840   0.719 -0.3018  0.4410  1.1249
 8959TIP3   OH248367   1.097   0.369  12.140  0.8301  0.2715  0.3031
 8959TIP3    H148368   1.050   0.452  12.154 -0.3294  0.0207 -1.8652
 8959TIP3    H248369   1.189   0.395  12.131  0.5199  1.3020 -0.0312
 8960TIP3   OH248370   1.289   2.616   6.047  0.4999  0.1587 -0.1091
 8960TIP3    H148371   1.351   2.639   5.978  1.5659 -1.1353  0.3984
 8960TIP3    H248372   1.287   2.520   6.048 -1.3863  0.1770  0.0027
 8961TIP3   OH248373   5.725   1.379  15.316  0.2187  0.4328 -0.8503
 8961TIP3    H148374   5.686   1.447  15.261 -0.3152  0.4264 -0.4847
 8961TIP3    H248375   5.666   1.304  15.307 -0.1764  0.6154  0.1691
 8962TIP3   OH248376   5.891   6.490   0.081  0.0608  0.6574  0.0897
 8962TIP3    H148377   5.856   6.434   0.012  0.6737  0.8297 -0.3609
 8962TIP3    H248378   5.841   6.466   0.159 -0.4673  0.2962 -0.3616
 8963TIP3   OH248379   3.778   3.453   1.575  0.1995  0.5541 -0.2094
 8963TIP3    H148380   3.709   3.405   1.620  2.1420 -0.5170  1.6899
 8963TIP3    H248381   3.743   3.468   1.487 -1.8651 -1.2165  0.2783
 8964TIP3   OH248382   4.191   4.701  13.809 -0.0900  0.0423  0.0243
 8964TIP3    H148383   4.159   4.733  13.725 -0.6122  1.8642  0.8962
 8964TIP3    H248384   4.114   4.661  13.850 -0.0550 -0.0240  0.0249
 8965TIP3   OH248385   5.230   1.831   5.348  0.4899  0.4409 -0.0939
 8965TIP3    H148386   5.178   1.910   5.339 -0.0249  0.3303  1.7728
 8965TIP3    H248387   5.244   1.801   5.258 -2.8579  0.3444 -0.6186
 8966TIP3   OH248388   3.107   1.107   0.974 -0.0230  0.3177 -0.5986
 8966TIP3    H148389   3.082   1.015   0.983  0.4496  0.2649  0.2319
 8966TIP3    H248390   3.119   1.120   0.880  0.3207 -0.5816 -0.6833
 8967TIP3   OH248391   6.372   5.510   6.779  0.2476 -0.1116 -0.1917
 8967TIP3    H148392   6.288   5.475   6.809  0.5955  0.5584  1.6477
 8967TIP3    H248393   6.427   5.433   6.766 -0.1079 -0.4538  0.3113
 8968TIP3   OH248394   4.175   6.082   4.622 -0.3092 -0.1428 -0.2083
 8968TIP3    H148395   4.259   6.089   4.668  0.6476  1.5794 -2.1286
 8968TIP3    H248396   4.145   6.173   4.613 -1.9575 -0.6849 -0.3185
 8969TIP3   OH248397   3.114   5.757  13.766 -0.3619 -0.1421 -0.3677
 8969TIP3    H148398   3.068   5.678  13.794  0.7705 -0.6503  0.0864
 8969TIP3    H248399   3.205   5.742  13.792  0.1155  0.7304 -1.5146
 8970TIP3   OH248400   0.451   2.823  14.554 -0.3893  0.3490 -0.5550
 8970TIP3    H148401   0.440   2.794  14.464  0.7414 -1.5838 -0.0940
 8970TIP3    H248402   0.370   2.870  14.575 -0.7565  0.5997 -2.4699
 8971TIP3   OH248403   2.052   5.967  14.415 -0.2876 -0.1358  0.2903
 8971TIP3    H148404   2.145   5.975  14.437 -0.1658  1.3875 -0.6646
 8971TIP3    H248405   2.027   5.881  14.446  1.4474 -0.5535  0.5808
 8972TIP3   OH248406   3.484   4.322   5.007  0.1127 -0.0995  0.1065
 8972TIP3    H148407   3.557   4.380   4.987  0.7645 -0.5018  1.3126
 8972TIP3    H248408   3.518   4.234   4.993 -0.6534 -0.2391 -0.9778
 8973TIP3   OH248409   0.147   2.278  12.959 -0.1998 -0.4274  0.0165
 8973TIP3    H148410   0.132   2.311  13.047  1.0336 -0.2078  0.1473
 8973TIP3    H248411   0.157   2.183  12.970 -2.1082 -0.6746 -0.1583
 8974TIP3   OH248412   3.058   6.320   0.908 -0.6106  0.2681  0.4547
 8974TIP3    H148413   3.048   6.280   0.822  0.4339  0.8021  0.0643
 8974TIP3    H248414   3.061   6.247   0.969 -0.0802 -0.1770 -0.1014
 8975TIP3   OH248415   5.762   5.516  11.150  0.2281 -0.2130  0.3796
 8975TIP3    H148416   5.765   5.574  11.227 -1.2584  0.0466  0.2631
 8975TIP3    H248417   5.668   5.499  11.137  0.3737  0.7005 -2.0865
 8976TIP3   OH248418   0.031   2.108   0.688 -0.4889  0.2391  0.3767
 8976TIP3    H148419   0.090   2.072   0.621  0.3950  0.5059  1.0055
 8976TIP3    H248420   0.087   2.120   0.765 -1.3566  0.5501  0.9612
 8977TIP3   OH248421   3.126   3.355  13.681  0.4534 -0.3962 -0.5676
 8977TIP3    H148422   3.162   3.396  13.760 -1.5043 -0.8402  0.5812
 8977TIP3    H248423   3.202   3.315  13.638  1.4409 -0.7354  1.4428
 8978TIP3   OH248424   6.439   6.606   4.154 -0.4590 -0.3481  0.0501
 8978TIP3    H148425   6.509   6.666   4.180 -1.1452  0.4846  0.0143
 8978TIP3    H248426   6.364   6.633   4.207 -1.1327 -0.3441 -0.8966
 8979TIP3   OH248427   3.719   5.482   3.565 -0.1393  0.1923  0.4183
 8979TIP3    H148428   3.668   5.546   3.614 -0.8993 -1.2134  1.5308
 8979TIP3    H248429   3.780   5.533   3.513 -1.1786  1.8241  0.7866
 8980TIP3   OH248430   5.578   0.123  11.573 -0.1320 -0.4471 -0.1171
 8980TIP3    H148431   5.653   0.155  11.523 -0.9028  0.3151 -0.7928
 8980TIP3    H248432   5.524   0.078  11.509 -1.4612  1.1203 -0.1390
 8981TIP3   OH248433   3.260   3.669  17.069 -0.3157  0.8660 -0.2201
 8981TIP3    H148434   3.193   3.668  17.001  2.2154  0.0984 -2.7943
 8981TIP3    H248435   3.325   3.732  17.038  1.5937 -0.5814  0.7298
 8982TIP3   OH248436   1.875   0.800  13.605 -0.1079  0.0700  0.2941
 8982TIP3    H148437   1.912   0.757  13.528 -0.3015 -0.8782  0.7260
 8982TIP3    H248438   1.932   0.875  13.620  0.3631 -0.1553 -0.3348
 8983TIP3   OH248439   4.178   3.740  12.693  0.0684 -0.2929  0.3322
 8983TIP3    H148440   4.100   3.792  12.675  0.8483  0.2789 -1.4373
 8983TIP3    H248441   4.169   3.662  12.638  0.0807 -0.8847  1.1604
 8984TIP3   OH248442   2.307   4.533   5.699 -0.2082 -0.2569 -0.7887
 8984TIP3    H148443   2.223   4.489   5.713  0.0088 -0.1857  0.9050
 8984TIP3    H248444   2.284   4.617   5.659 -1.2958  1.2382  2.7176
 8985TIP3   OH248445   3.441   1.230  11.640  0.2013 -0.4735 -0.6004
 8985TIP3    H148446   3.364   1.285  11.657  0.0583 -0.7129 -0.4775
 8985TIP3    H248447   3.472   1.259  11.554  0.5381  0.2825 -0.2274
 8986TIP3   OH248448   4.236   6.501  11.324  0.0054 -0.2394  0.1675
 8986TIP3    H148449   4.285   6.473  11.247 -0.8813 -0.1037 -0.4555
 8986TIP3    H248450   4.147   6.471  11.308 -0.0177 -0.9464  1.5279
 8987TIP3   OH248451   1.473   1.960   6.195 -0.2988  0.2007  0.1075
 8987TIP3    H148452   1.562   1.961   6.159 -0.5162 -2.0777 -0.5599
 8987TIP3    H248453   1.463   2.046   6.235  2.5048  0.2176  0.8931
 8988TIP3   OH248454   3.172   2.545   5.249 -0.1992 -0.1829 -0.7235
 8988TIP3    H148455   3.178   2.525   5.343  0.8763 -0.7172 -0.8958
 8988TIP3    H248456   3.079   2.532   5.228 -0.3803 -0.4278  0.1801
 8989TIP3   OH248457   3.481   6.423  14.996  0.2064 -0.5400 -0.0110
 8989TIP3    H148458   3.424   6.352  14.966  2.0396 -2.0650 -0.0240
 8989TIP3    H248459   3.563   6.409  14.948  0.8241  1.1800  0.5121
 8990TIP3   OH248460   3.103   5.144   1.947 -0.4677 -0.2114 -0.6631
 8990TIP3    H148461   3.014   5.107   1.946 -0.8290  0.6203 -0.1471
 8990TIP3    H248462   3.089   5.238   1.960  0.4982 -0.0943 -0.4637
 8991TIP3   OH248463   5.963   4.380   1.859 -0.0556 -0.3548 -0.5754
 8991TIP3    H148464   5.958   4.285   1.865 -1.5824 -0.2637 -0.2965
 8991TIP3    H248465   5.933   4.411   1.945 -2.9469  0.4545 -1.8422
 8992TIP3   OH248466   5.080   0.844   4.282  0.0481  0.0354  0.2035
 8992TIP3    H148467   4.993   0.812   4.303 -0.6513  1.2122 -0.8731
 8992TIP3    H248468   5.117   0.776   4.224 -0.0151 -0.6238  0.9298
 8993TIP3   OH248469   5.185   0.159   5.786 -0.2039  0.6454  0.0871
 8993TIP3    H148470   5.171   0.171   5.692  2.2808  1.7838 -0.1907
 8993TIP3    H248471   5.114   0.207   5.827 -0.1011  1.9490 -1.2066
 8994TIP3   OH248472   2.698   2.366   0.593  0.1850  0.2206  0.0841
 8994TIP3    H148473   2.737   2.439   0.544 -0.3689  0.2986 -0.2441
 8994TIP3    H248474   2.769   2.334   0.649  0.8046  0.1860 -0.7120
 8995TIP3   OH248475   4.356   3.399  10.497 -0.0278 -0.1534  0.2080
 8995TIP3    H148476   4.340   3.491  10.519  0.1825  0.2676 -1.3190
 8995TIP3    H248477   4.448   3.397  10.468 -0.0610 -0.8187  0.1436
 8996TIP3   OH248478   0.806   0.618  17.086  0.5991  0.0844  0.2079
 8996TIP3    H148479   0.712   0.629  17.101  0.6597 -0.1948  0.7756
 8996TIP3    H248480   0.842   0.597  17.171  1.1165 -0.2597 -0.0937
 8997TIP3   OH248481   5.861   3.809  12.512  0.2231 -1.1898 -0.0516
 8997TIP3    H148482   5.883   3.823  12.604  0.7922  1.4259 -0.5641
 8997TIP3    H248483   5.775   3.767  12.515 -0.5420  0.4279  1.6389
 8998TIP3   OH248484   5.270   2.342  14.810  0.1610  0.3337  0.2484
 8998TIP3    H148485   5.277   2.435  14.832  0.9084  1.0485 -2.8435
 8998TIP3    H248486   5.238   2.341  14.720  2.3799 -2.3622 -0.5686
 8999TIP3   OH248487   3.819   1.795   1.701  0.1272 -0.6762  0.5609
 8999TIP3    H148488   3.893   1.853   1.719  0.7253 -1.0804 -0.6006
 8999TIP3    H248489   3.745   1.837   1.745  0.5312  1.0309 -0.3530
 9000TIP3   OH248490   1.801   2.054  15.627  0.2060 -0.1422  0.1154
 9000TIP3    H148491   1.788   2.072  15.534 -1.1658 -0.8049  0.1665
 9000TIP3    H248492   1.724   2.092  15.670  1.3902  1.1607  1.1030
 9001TIP3   OH248493   1.772   3.562   5.802 -0.2570 -0.5549 -0.0363
 9001TIP3    H148494   1.861   3.568   5.769 -0.9659  2.6967 -1.6581
 9001TIP3    H248495   1.781   3.544   5.895  2.0460 -1.5709 -0.4431
 9002TIP3   OH248496   3.287   3.375  17.075  0.5165 -0.6482  0.7896
 9002TIP3    H148497   3.370   3.339  17.105  0.9946 -0.5403 -0.4015
 9002TIP3    H248498   3.288   3.467  17.102  0.9705 -0.5359  0.3806
 9003TIP3   OH248499   0.609   4.272   2.668 -0.1008  0.1084  0.5849
 9003TIP3    H148500   0.693   4.316   2.675 -0.3360  0.9202 -1.3178
 9003TIP3    H248501   0.599   4.224   2.750  1.4322  1.3666  1.5096
 9004TIP3   OH248502   3.602   2.263  16.559  0.5538  0.3364  0.4135
 9004TIP3    H148503   3.695   2.277  16.579  0.7614  0.5525 -0.6663
 9004TIP3    H248504   3.587   2.171  16.580  2.1370 -0.9362 -3.4512
 9005TIP3   OH248505   3.955   6.638  14.371 -0.9185  0.1785  0.2835
 9005TIP3    H148506   3.911   6.699  14.430 -0.3110  0.5698  0.3347
 9005TIP3    H248507   3.995   6.573  14.429 -1.4005 -0.1630  0.2390
 9006TIP3   OH248508   4.531   0.440   5.034  0.0606  0.5731 -0.8403
 9006TIP3    H148509   4.441   0.443   5.068  0.2837  2.5476 -0.4216
 9006TIP3    H248510   4.520   0.452   4.939 -0.0259  1.9986 -0.6509
 9007TIP3   OH248511   0.603   2.966  17.004  0.0648 -0.5659  0.2225
 9007TIP3    H148512   0.508   2.977  16.997 -0.1386 -1.8250  0.9687
 9007TIP3    H248513   0.639   3.023  16.935 -1.1694  0.9710  0.8146
 9008TIP3   OH248514   1.054   5.213  15.883  0.5678 -0.5633  0.4111
 9008TIP3    H148515   1.035   5.305  15.865 -1.2240 -0.3531  3.0869
 9008TIP3    H248516   1.006   5.164  15.817  1.6205  0.3947 -1.0941
 9009TIP3   OH248517   0.568   3.664   4.151  0.0509 -0.2742  0.1213
 9009TIP3    H148518   0.525   3.735   4.103 -0.5766 -0.5207  0.3234
 9009TIP3    H248519   0.657   3.696   4.166 -0.1632  0.3724  0.0080
 9010TIP3   OH248520   2.214   1.194  13.227  0.0060 -0.5783  0.9137
 9010TIP3    H148521   2.234   1.129  13.295  0.3428 -2.5358 -1.0176
 9010TIP3    H248522   2.120   1.211  13.239  0.3819  0.2580  2.8424
 9011TIP3   OH248523   0.819   4.436  11.284 -0.9659 -0.0033 -0.1717
 9011TIP3    H148524   0.746   4.496  11.269 -0.5595  0.3010 -0.9285
 9011TIP3    H248525   0.788   4.352  11.251 -1.3470 -0.1083  0.4325
 9012TIP3   OH248526   2.309   6.579  11.669 -0.1073  0.2066  1.7278
 9012TIP3    H148527   2.268   6.650  11.718  0.4570  1.1087  0.9303
 9012TIP3    H248528   2.403   6.593  11.681  0.0278  0.2347  0.6936
 9013TIP3   OH248529   0.185   1.177   4.057 -0.4377  0.2749 -0.5586
 9013TIP3    H148530   0.172   1.250   3.997 -1.2551 -0.6167 -1.4891
 9013TIP3    H248531   0.170   1.099   4.004  3.3130 -0.7092 -0.3083
 9014TIP3   OH248532   6.509   3.337  12.363  0.1075 -0.1793 -0.4128
 9014TIP3    H148533   6.485   3.274  12.296 -0.1751  2.1473 -2.5864
 9014TIP3    H248534   6.526   3.418  12.315  0.9446  1.2841  2.2260
 9015TIP3   OH248535   1.153   3.210   0.526  0.1673  0.4551 -0.1642
 9015TIP3    H148536   1.206   3.212   0.446 -0.1234  0.2464 -0.3626
 9015TIP3    H248537   1.063   3.214   0.494 -0.1593 -3.8441 -0.0779
 9016TIP3   OH248538   3.872   2.847  16.862 -0.2472  0.2109 -0.0142
 9016TIP3    H148539   3.917   2.809  16.786  0.5151  0.2746  0.4070
 9016TIP3    H248540   3.782   2.813  16.855  0.1418 -0.7859 -0.2536
 9017TIP3   OH248541   0.842   5.976  16.912 -0.1982 -0.5982 -0.2941
 9017TIP3    H148542   0.876   5.975  16.823  1.2420 -0.5933  0.2423
 9017TIP3    H248543   0.770   5.912  16.911 -1.8664  1.2383 -2.0783
 9018TIP3   OH248544   1.382   1.133  11.883  0.0994  0.3472  0.1088
 9018TIP3    H148545   1.290   1.116  11.864 -0.1775  1.2330  0.6746
 9018TIP3    H248546   1.382   1.208  11.942  1.2967  1.8878 -1.7867
 9019TIP3   OH248547   3.006   2.784   0.767  0.0797  0.3723 -0.2001
 9019TIP3    H148548   3.022   2.796   0.860  0.8890 -0.8441 -0.1524
 9019TIP3    H248549   2.929   2.727   0.762  0.0580  0.4062 -0.2604
 9020TIP3   OH248550   0.491   1.377   0.227 -0.2290 -0.2771 -0.1724
 9020TIP3    H148551   0.421   1.439   0.205 -0.3411 -0.8348 -1.4048
 9020TIP3    H248552   0.567   1.408   0.178 -0.2389 -1.0142 -0.6573
 9021TIP3   OH248553   6.238   5.864  15.612 -0.3120 -0.4543  0.5237
 9021TIP3    H148554   6.191   5.788  15.646  0.3481 -1.4427 -0.7255
 9021TIP3    H248555   6.323   5.861  15.657  0.1821 -1.1862 -0.4308
 9022TIP3   OH248556   3.837   2.566   5.995 -0.5428  0.0575  0.3227
 9022TIP3    H148557   3.763   2.508   5.980 -0.7354  0.8435 -1.9203
 9022TIP3    H248558   3.822   2.639   5.935  2.2721  0.0143 -0.4761
 9023TIP3   OH248559   3.589   1.736  16.686  0.0141 -0.5205  0.0669
 9023TIP3    H148560   3.511   1.680  16.690 -0.2389 -0.0944  1.6789
 9023TIP3    H248561   3.662   1.675  16.696 -0.1147 -0.8940 -1.1909
 9024TIP3   OH248562   3.769   4.309  13.106 -0.4919 -0.0214 -0.1335
 9024TIP3    H148563   3.862   4.286  13.103 -0.6859 -0.7512 -1.4479
 9024TIP3    H248564   3.746   4.308  13.198  0.6375 -0.5679  0.1462
 9025TIP3   OH248565   4.745   0.103  12.594 -0.3332 -0.3857 -0.1727
 9025TIP3    H148566   4.697   0.022  12.611 -1.5780  0.7289  1.7403
 9025TIP3    H248567   4.711   0.166  12.657  0.4603  1.7252 -1.7554
 9026TIP3   OH248568   0.504   2.237   5.112 -0.2224  0.0793 -0.0891
 9026TIP3    H148569   0.463   2.167   5.162 -0.6492 -0.6044 -1.3640
 9026TIP3    H248570   0.493   2.315   5.166  0.7664 -0.9272  1.6081
 9027TIP3   OH248571   4.902   1.893  13.907  0.8881 -0.1420  0.0218
 9027TIP3    H148572   4.987   1.928  13.934  1.1576 -0.2918 -0.6119
 9027TIP3    H248573   4.854   1.969  13.875  0.9351 -0.1211 -0.0002
 9028TIP3   OH248574   4.708   1.312   2.371  0.6695  0.0142 -0.0280
 9028TIP3    H148575   4.655   1.255   2.427 -0.5404  0.3058 -0.8717
 9028TIP3    H248576   4.668   1.306   2.285  2.3808 -0.2265 -0.8286
 9029TIP3   OH248577   4.021   6.490  12.558  0.2342  0.9357  0.3716
 9029TIP3    H148578   3.994   6.520  12.472  1.0620  1.4180  0.2710
 9029TIP3    H248579   4.099   6.437  12.541  0.5081  1.1847  0.8375
 9030TIP3   OH248580   3.979   6.691  11.732  0.2459 -0.2157  0.2368
 9030TIP3    H148581   3.948   6.653  11.650  2.6349 -1.8189  0.0150
 9030TIP3    H248582   3.937   6.639  11.800  0.8513 -1.0643 -0.0302
 9031TIP3   OH248583   5.326   2.537   2.802  0.1522 -0.8449  0.1266
 9031TIP3    H148584   5.321   2.499   2.890 -1.0669 -2.6826 -0.7015
 9031TIP3    H248585   5.291   2.625   2.812  0.9712 -0.6632  1.6692
 9032TIP3   OH248586   2.342   3.071   6.052  0.2482 -0.1650 -0.4930
 9032TIP3    H148587   2.433   3.051   6.076 -0.1444 -0.0971  1.1109
 9032TIP3    H248588   2.327   3.023   5.971  1.5061 -0.7326 -0.3973
 9033TIP3   OH248589   5.177   2.408   2.389 -0.5760  0.0954  0.5923
 9033TIP3    H148590   5.180   2.424   2.295 -0.9063 -0.8393  0.4170
 9033TIP3    H248591   5.260   2.441   2.422 -0.6701  0.8928  0.0489
 9034TIP3   OH248592   5.726   1.376  12.019 -0.0645  0.2907 -0.0923
 9034TIP3    H148593   5.770   1.447  12.065  1.6089 -0.7143 -0.0995
 9034TIP3    H248594   5.644   1.415  11.987  0.9280  2.2641 -0.3189
 9035TIP3   OH248595   5.406   0.538   3.037 -0.0358 -0.1775  0.4121
 9035TIP3    H148596   5.396   0.616   3.091 -0.2537  1.2476 -1.6089
 9035TIP3    H248597   5.426   0.467   3.099  0.0600  1.4509  2.2792
 9036TIP3   OH248598   3.531   4.549   4.684  0.3078  0.2341  0.2345
 9036TIP3    H148599   3.602   4.580   4.627  2.2768 -0.7215  2.0948
 9036TIP3    H248600   3.493   4.475   4.636 -1.2755  2.4389 -2.0305
 9037TIP3   OH248601   2.220   2.609   4.818  0.2720 -0.1809  0.5779
 9037TIP3    H148602   2.243   2.626   4.910 -0.4400  0.1600  0.6982
 9037TIP3    H248603   2.266   2.678   4.769 -0.6491  0.6247  0.8355
 9038TIP3   OH248604   4.471   5.750  11.242  0.3242 -0.2000 -0.1906
 9038TIP3    H148605   4.544   5.812  11.245 -0.5877  0.8656  0.3839
 9038TIP3    H248606   4.394   5.802  11.266 -0.5054 -1.4878  0.0016
 9039TIP3   OH248607   0.076   4.233   6.052 -0.2725  0.1858  0.1385
 9039TIP3    H148608   0.018   4.272   5.987  0.8465 -0.6635 -1.3993
 9039TIP3    H248609   0.158   4.282   6.043 -0.0801 -0.0112  0.8254
 9040TIP3   OH248610   1.101   4.451  12.194 -0.0880 -0.3412  0.4808
 9040TIP3    H148611   1.035   4.504  12.149  0.7862 -0.2625 -0.7303
 9040TIP3    H248612   1.057   4.421  12.274 -1.1645  0.7496  0.3094
 9041TIP3   OH248613   2.727   5.516   3.356  0.8039  0.4924 -0.6683
 9041TIP3    H148614   2.706   5.435   3.402  1.0980  1.0731  0.5342
 9041TIP3    H248615   2.654   5.531   3.297 -0.2888  0.4762  0.6601
 9042TIP3   OH248616   1.109   3.893  14.820 -0.4673 -0.1878 -0.5627
 9042TIP3    H148617   1.158   3.811  14.827 -1.7543 -0.7615  2.7177
 9042TIP3    H248618   1.147   3.950  14.887  0.3542  1.9208 -2.7508
 9043TIP3   OH248619   5.571   2.483   4.072 -0.2294  0.1190  0.1019
 9043TIP3    H148620   5.603   2.518   4.156  1.1585 -0.8363 -0.0084
 9043TIP3    H248621   5.579   2.556   4.011  0.8016  0.1965  0.3187
 9044TIP3   OH248622   0.236   1.982   0.127  0.5999  0.1507  0.1486
 9044TIP3    H148623   0.291   2.060   0.119  0.9284  0.0140  1.0559
 9044TIP3    H248624   0.297   1.909   0.111  0.3928  0.0554 -0.2140
 9045TIP3   OH248625   2.438   2.543  16.579 -0.3780  0.5230  0.4968
 9045TIP3    H148626   2.428   2.564  16.486  1.3824 -2.4036 -0.4184
 9045TIP3    H248627   2.362   2.488  16.599  0.4710 -0.7987  0.1452
 9046TIP3   OH248628   1.027   0.285   3.467 -0.3448  0.2154 -0.0528
 9046TIP3    H148629   1.020   0.326   3.380 -2.0762  0.4393  0.1717
 9046TIP3    H248630   1.101   0.225   3.459 -0.0421  0.7554 -1.4754
 9047TIP3   OH248631   1.842   6.372  13.847 -0.1990  0.3249  0.2072
 9047TIP3    H148632   1.843   6.314  13.771  1.1237  0.1887  0.3209
 9047TIP3    H248633   1.889   6.324  13.915 -0.5261  0.8564  0.8231
 9048TIP3   OH248634   5.516   1.058  13.789  0.1123 -0.0529 -0.1924
 9048TIP3    H148635   5.544   1.037  13.700 -2.1020 -0.4196 -0.8389
 9048TIP3    H248636   5.454   1.131  13.778 -0.3322 -0.2345  1.0161
 9049TIP3   OH248637   4.419   0.612  11.219  0.1227  0.9086 -0.1868
 9049TIP3    H148638   4.397   0.520  11.202  0.3129  1.0655 -1.2632
 9049TIP3    H248639   4.344   0.646  11.268 -0.1573  0.3085 -0.1932
 9050TIP3   OH248640   1.726   5.698  15.921  0.0782 -0.2909 -0.2932
 9050TIP3    H148641   1.695   5.627  15.978  0.6063 -2.1729 -2.2939
 9050TIP3    H248642   1.677   5.687  15.840  1.3125  0.6753 -1.1921
 9051TIP3   OH248643   0.288   4.514  16.822 -0.3539 -0.2927 -0.2404
 9051TIP3    H148644   0.375   4.508  16.860  0.6286  2.7550 -1.8104
 9051TIP3    H248645   0.241   4.574  16.880 -1.2923 -1.5713  0.3460
 9052TIP3   OH248646   2.829   4.992   3.062 -0.2724 -0.6536 -0.2285
 9052TIP3    H148647   2.746   5.039   3.066  0.2634  0.3829 -1.0683
 9052TIP3    H248648   2.833   4.956   2.973 -0.3610 -1.7086  0.1853
 9053TIP3   OH248649   0.726   4.738   1.640  0.2324 -0.1146 -0.3831
 9053TIP3    H148650   0.716   4.670   1.573  1.6764  0.0096 -0.7522
 9053TIP3    H248651   0.792   4.798   1.603 -2.1425  2.3661 -0.7737
 9054TIP3   OH248652   6.568   3.227  14.048  0.1649 -0.3896  0.1899
 9054TIP3    H148653   6.521   3.289  14.104  0.6375  0.4765 -0.3728
 9054TIP3    H248654   6.660   3.252  14.057  0.2245 -0.1013 -1.1505
 9055TIP3   OH248655   0.580   0.593  16.229  0.3189 -0.0327 -0.8713
 9055TIP3    H148656   0.502   0.648  16.220 -0.8954 -1.7958 -1.6795
 9055TIP3    H248657   0.642   0.628  16.165 -0.1171  0.9046 -0.7857
 9056TIP3   OH248658   2.655   2.710   1.556  0.0874 -0.2345 -0.2932
 9056TIP3    H148659   2.604   2.749   1.628  1.4503 -0.1488  0.6404
 9056TIP3    H248660   2.601   2.724   1.478 -1.6597 -0.7851  0.7945
 9057TIP3   OH248661   6.415   0.944   4.478 -0.0429  0.2655  0.2582
 9057TIP3    H148662   6.439   1.007   4.547 -0.7122  1.5349 -0.6463
 9057TIP3    H248663   6.444   0.986   4.397  0.3380 -1.0242 -0.2853
 9058TIP3   OH248664   5.594   5.471  16.243 -0.2836 -0.0117  0.3715
 9058TIP3    H148665   5.537   5.410  16.196  0.2966 -0.0436 -0.2993
 9058TIP3    H248666   5.566   5.557  16.212 -0.8359  0.0440  1.0202
 9059TIP3   OH248667   3.053   0.790  15.565 -0.4104  1.0588 -0.3758
 9059TIP3    H148668   3.074   0.832  15.649 -0.7339 -1.6053  1.0980
 9059TIP3    H248669   3.029   0.863  15.507 -0.1776  2.9620  1.8380
 9060TIP3   OH248670   5.595   2.722   6.254 -0.1928 -0.1440 -0.2122
 9060TIP3    H148671   5.660   2.695   6.320  1.6161 -1.1667 -2.3551
 9060TIP3    H248672   5.602   2.818   6.252  1.1292 -0.2343 -0.2829
 9061TIP3   OH248673   4.388   2.280  16.638 -0.3649  0.0663  0.0747
 9061TIP3    H148674   4.360   2.275  16.729 -1.2871 -1.2672 -0.2749
 9061TIP3    H248675   4.483   2.288  16.642 -0.4325  0.3488  1.1569
 9062TIP3   OH248676   5.152   6.150  13.277 -0.4103  0.4170  0.1185
 9062TIP3    H148677   5.179   6.086  13.211 -1.8556 -0.3238  0.2207
 9062TIP3    H248678   5.169   6.235  13.236  0.9895 -0.0333 -0.2430
 9063TIP3   OH248679   3.129   0.043  13.358  1.0688  0.2369  0.4186
 9063TIP3    H148680   3.164   0.122  13.316 -0.0893  1.5485  1.9000
 9063TIP3    H248681   3.100  -0.012  13.284  0.2888  1.9307 -0.5578
 9064TIP3   OH248682   3.911   2.452   6.663  0.2465  0.1871 -0.1342
 9064TIP3    H148683   3.931   2.515   6.732  1.1524 -0.6062  0.3263
 9064TIP3    H248684   3.979   2.466   6.597  0.1498  0.0356 -0.2672
 9065TIP3   OH248685   3.550   0.867  13.339 -0.3647  0.1071  0.1844
 9065TIP3    H148686   3.506   0.899  13.417  0.5334  1.0135  0.3300
 9065TIP3    H248687   3.556   0.943  13.281  0.7666 -0.0491  0.0707
 9066TIP3   OH248688   4.145   2.152   0.711 -0.2140 -0.2475 -0.2318
 9066TIP3    H148689   4.209   2.105   0.658  0.1933 -0.1617  0.1826
 9066TIP3    H248690   4.094   2.083   0.753 -1.8621 -0.3447 -2.2878
 9067TIP3   OH248691   0.170   1.764  13.247 -0.0412 -0.1167  0.0900
 9067TIP3    H148692   0.087   1.717  13.244 -0.1551  0.1974 -3.2915
 9067TIP3    H248693   0.156   1.833  13.313 -2.6818  0.3199 -0.8761
 9068TIP3   OH248694   0.084   4.076  14.914  0.3484 -0.0999  0.6791
 9068TIP3    H148695   0.149   4.077  14.844 -0.6329 -2.0066 -0.2723
 9068TIP3    H248696   0.122   4.020  14.982 -0.1021 -0.8582  0.3077
 9069TIP3   OH248697   0.929   5.275  12.875  0.0234 -0.5370  0.9098
 9069TIP3    H148698   0.985   5.352  12.888 -0.4087 -0.1688  0.6206
 9069TIP3    H248699   0.989   5.201  12.878  0.5620 -0.1303  0.4303
 9070TIP3   OH248700   2.834   1.793  11.452 -0.4857 -0.5248 -0.0602
 9070TIP3    H148701   2.811   1.740  11.528  1.4621 -0.5310  0.5530
 9070TIP3    H248702   2.826   1.883  11.481  0.0252 -0.5261  0.0972
 9071TIP3   OH248703   4.933   1.024   1.614  0.2233 -0.1669  0.1515
 9071TIP3    H148704   4.895   0.941   1.588 -0.4224  0.0016  0.5661
 9071TIP3    H248705   4.873   1.060   1.679 -0.8820  1.8220 -1.8722
 9072TIP3   OH248706   3.738   4.131  12.172  0.5438 -0.2936 -0.3660
 9072TIP3    H148707   3.821   4.088  12.149  0.5611 -0.6873  0.4111
 9072TIP3    H248708   3.748   4.156  12.264 -0.5311 -1.1484 -0.0003
 9073TIP3   OH248709   0.346   5.187   1.670  0.3048  0.4107  0.0710
 9073TIP3    H148710   0.291   5.113   1.647 -0.1956  0.3069  1.5891
 9073TIP3    H248711   0.432   5.165   1.634  0.3619 -1.2721  1.2137
 9074TIP3   OH248712   0.685   5.474   5.355 -0.5029 -0.0301  0.0661
 9074TIP3    H148713   0.689   5.554   5.302  1.1212  2.0413  3.1514
 9074TIP3    H248714   0.591   5.461   5.370 -0.8664  0.5204 -1.5522
 9075TIP3   OH248715   4.148   2.010   3.794  0.3778 -0.0897 -0.0960
 9075TIP3    H148716   4.191   2.020   3.709  1.1261 -1.6088  0.0741
 9075TIP3    H248717   4.168   2.090   3.842  0.0630  0.7138 -1.3069
 9076TIP3   OH248718   6.645   4.343   0.945 -0.2610 -0.2811  0.0798
 9076TIP3    H148719   6.557   4.322   0.976  0.1319 -1.3497  0.5004
 9076TIP3    H248720   6.681   4.401   1.012 -0.7879  0.4779 -0.2936
 9077TIP3   OH248721   0.149   2.596   5.266 -0.3127  0.1536  0.1577
 9077TIP3    H148722   0.106   2.672   5.227 -1.4758 -0.5917 -0.0375
 9077TIP3    H248723   0.136   2.526   5.202  0.3821 -0.3192  0.5278
 9078TIP3   OH248724   5.830   5.951  12.371  0.2104 -0.0045 -0.1866
 9078TIP3    H148725   5.851   6.005  12.295 -0.6717  1.7422  0.7975
 9078TIP3    H248726   5.737   5.965  12.386  0.3655 -0.3655  1.1869
 9079TIP3   OH248727   4.968   4.519   5.051  0.9780 -0.1276 -0.4883
 9079TIP3    H148728   4.940   4.442   5.101  1.3562  0.3251  0.4305
 9079TIP3    H248729   5.008   4.483   4.972  0.4634 -0.8568 -0.4233
 9080TIP3   OH248730   1.426   2.094  16.606 -0.3214 -0.6507 -0.7822
 9080TIP3    H148731   1.412   2.180  16.566  1.8104  0.2825  0.3537
 9080TIP3    H248732   1.420   2.111  16.700  1.4335 -1.4610 -0.5079
 9081TIP3   OH248733   2.951   0.292   0.226  0.4793  0.1959  0.0537
 9081TIP3    H148734   2.917   0.342   0.301 -2.2153  1.0415 -1.6523
 9081TIP3    H248735   3.036   0.259   0.255 -0.0932  1.3067  3.1305
 9082TIP3   OH248736   2.011   6.677   5.218 -0.3126 -0.2252  0.0598
 9082TIP3    H148737   2.097   6.641   5.238 -0.6483 -0.7641  0.5422
 9082TIP3    H248738   1.976   6.704   5.303 -0.0095  1.3654 -0.3088
 9083TIP3   OH248739   5.084   5.205  12.703 -0.4449  0.4463 -0.1033
 9083TIP3    H148740   5.170   5.243  12.722 -0.3422 -0.3095  0.9644
 9083TIP3    H248741   5.022   5.261  12.751 -0.6497  1.5657 -1.6389
 9084TIP3   OH248742   3.896   3.503  15.912 -0.4235  0.0880 -0.7141
 9084TIP3    H148743   3.853   3.466  15.989 -1.3997 -0.1845 -1.3803
 9084TIP3    H248744   3.907   3.429  15.853 -0.2505  0.4176 -1.0959
 9085TIP3   OH248745   6.072   6.684  11.262 -0.2508  0.3743  0.3396
 9085TIP3    H148746   6.084   6.615  11.327 -4.2414  0.0171  0.8581
 9085TIP3    H248747   6.119   6.653  11.185  0.2527 -1.6384  1.4269
 9086TIP3   OH248748   0.182   6.158   6.489  0.3417  0.1256 -0.6712
 9086TIP3    H148749   0.187   6.193   6.400 -2.3548 -0.8473 -1.2257
 9086TIP3    H248750   0.128   6.221   6.537 -2.4716 -1.9566 -1.0501
 9087TIP3   OH248751   5.337   1.832   5.965  0.2685 -0.5149  0.0214
 9087TIP3    H148752   5.317   1.879   6.045  0.7457  0.9046 -0.6871
 9087TIP3    H248753   5.296   1.746   5.977  0.0413 -0.1954  1.6236
 9088TIP3   OH248754   1.861   1.715  12.338  0.1714 -0.6282 -0.0771
 9088TIP3    H148755   1.873   1.722  12.244 -1.3649  0.8675 -0.1904
 9088TIP3    H248756   1.945   1.682  12.371  1.5146  1.0584 -1.6977
 9089TIP3   OH248757   3.056   4.941   3.525  0.1568 -0.2308  0.1378
 9089TIP3    H148758   2.979   4.995   3.505 -0.3152 -0.1396  2.0830
 9089TIP3    H248759   3.072   4.891   3.444 -0.8167  1.0914 -0.8970
 9090TIP3   OH248760   2.496   2.760   5.161 -0.3656  0.1642 -0.0832
 9090TIP3    H148761   2.439   2.804   5.098  1.1315  0.8642 -0.9749
 9090TIP3    H248762   2.546   2.831   5.202  0.8779 -0.5495 -0.3310
 9091TIP3   OH248763   6.758   2.689   2.890 -0.7161 -0.5969 -0.2361
 9091TIP3    H148764   6.707   2.621   2.933 -1.9274 -0.6495 -1.7375
 9091TIP3    H248765   6.776   2.752   2.960 -0.9210 -1.6591  0.8077
 9092TIP3   OH248766   0.681   3.298   2.085 -0.4436 -0.2766  0.5479
 9092TIP3    H148767   0.632   3.233   2.035  1.4023 -1.4818  0.2660
 9092TIP3    H248768   0.767   3.258   2.099  1.5548  3.0502 -1.6780
 9093TIP3   OH248769   4.492   1.663   1.183  0.4587  0.6320  0.0911
 9093TIP3    H148770   4.480   1.596   1.251  0.2277 -0.5095 -1.0552
 9093TIP3    H248771   4.450   1.741   1.219 -0.5020 -0.2223  0.8650
 9094TIP3   OH248772   1.611   1.249   1.274 -0.2952  0.3454  0.2134
 9094TIP3    H148773   1.701   1.224   1.295  0.2821  1.7113 -0.6158
 9094TIP3    H248774   1.568   1.166   1.254  1.5792 -0.0607 -2.4138
 9095TIP3   OH248775   6.048   3.303  16.173  0.5103  0.4124  0.0574
 9095TIP3    H148776   6.104   3.233  16.140  0.3488  0.6575 -0.7433
 9095TIP3    H248777   6.100   3.346  16.241  0.1693 -1.2181  1.3901
 9096TIP3   OH248778   2.965   5.976  13.909  0.2087  0.3462  0.0317
 9096TIP3    H148779   3.022   5.903  13.884 -0.7138 -0.8188  1.2035
 9096TIP3    H248780   2.897   5.977  13.842 -0.6705 -0.9276  0.8750
 9097TIP3   OH248781   1.212   1.186  14.812  0.7237 -0.2431  0.1394
 9097TIP3    H148782   1.204   1.226  14.726  1.7909  0.9164  0.5755
 9097TIP3    H248783   1.143   1.227  14.864  0.3466 -0.6415 -0.0455
 9098TIP3   OH248784   2.759   4.177  13.804 -0.2931  0.2083 -0.0406
 9098TIP3    H148785   2.849   4.145  13.811 -0.6651 -0.9148 -0.3131
 9098TIP3    H248786   2.739   4.172  13.710 -1.2176 -1.1603  0.2206
 9099TIP3   OH248787   2.574   6.221  13.722 -0.2160 -0.9833  0.0187
 9099TIP3    H148788   2.565   6.192  13.813  1.5620 -1.2403  0.1331
 9099TIP3    H248789   2.569   6.141  13.670  1.4476 -1.1801  0.1089
 9100TIP3   OH248790   2.603   5.488  11.272 -0.1490 -0.0227 -0.6056
 9100TIP3    H148791   2.695   5.462  11.269 -0.2479 -0.3460 -0.7988
 9100TIP3    H248792   2.606   5.583  11.285  0.2251  0.3191 -3.0535
 9101TIP3   OH248793   2.558   5.241  12.217 -0.2473  0.6952 -0.5157
 9101TIP3    H148794   2.513   5.225  12.134  2.6346  0.1833 -2.0698
 9101TIP3    H248795   2.550   5.159  12.265  0.2454  0.1002 -1.4205
 9102TIP3   OH248796   4.009   3.519  17.038  0.2161 -0.1304 -0.1981
 9102TIP3    H148797   3.991   3.551  17.126  0.4590 -1.1224  0.2164
 9102TIP3    H248798   3.923   3.490  17.005  0.3458 -0.9882  0.2128
 9103TIP3   OH248799   0.814   2.213  12.520 -0.2656  0.0142 -0.5541
 9103TIP3    H148800   0.723   2.190  12.537 -0.9297  0.0559 -3.6702
 9103TIP3    H248801   0.837   2.273  12.590 -2.4675 -0.4134  0.5835
 9104TIP3   OH248802   6.256   0.749  14.552  0.3482  0.1747  0.0485
 9104TIP3    H148803   6.271   0.671  14.605  1.1127  0.6560  0.5395
 9104TIP3    H248804   6.330   0.752  14.492  0.8668  1.0954  0.7247
 9105TIP3   OH248805   3.704   3.155   3.082  0.5594 -0.1012  0.2364
 9105TIP3    H148806   3.629   3.106   3.048  0.0765  0.6117  0.2509
 9105TIP3    H248807   3.726   3.216   3.012  0.6195  0.2343  0.5457
 9106TIP3   OH248808   6.196   0.838  13.923 -0.3475  0.4868 -0.3801
 9106TIP3    H148809   6.275   0.891  13.915 -0.4341  0.4995 -1.1898
 9106TIP3    H248810   6.207   0.768  13.859 -0.7313  0.1545 -0.0892
 9107TIP3   OH248811   5.978   2.379  14.075 -0.1851 -0.2078  0.0335
 9107TIP3    H148812   5.907   2.397  14.137  0.6500 -1.8720  1.5093
 9107TIP3    H248813   6.021   2.301  14.110  3.1045  1.4101 -0.2232
 9108TIP3   OH248814   0.471   5.366  17.289 -0.3302 -0.1397  0.0924
 9108TIP3    H148815   0.487   5.272  17.284  0.4667  0.0422 -0.7139
 9108TIP3    H248816   0.480   5.397  17.199 -0.7776  0.6796  0.3274
 9109TIP3   OH248817   3.005   2.497  11.441  0.3056 -0.1598 -0.0780
 9109TIP3    H148818   3.025   2.493  11.347  2.0899 -0.7407  0.3110
 9109TIP3    H248819   3.058   2.570  11.474 -2.3477  1.7814  0.0160
 9110TIP3   OH248820   0.719   4.678  13.875  0.6413 -1.0182  0.2165
 9110TIP3    H148821   0.773   4.706  13.801  0.6109 -0.8704  0.2510
 9110TIP3    H248822   0.775   4.691  13.951 -0.5571  2.1451  0.5989
 9111TIP3   OH248823   4.036   4.701  11.457  0.5472 -0.2223  0.0344
 9111TIP3    H148824   4.092   4.713  11.533  0.1091  1.0045  0.1776
 9111TIP3    H248825   4.010   4.789  11.432  1.9000 -0.4810 -2.4795
 9112TIP3   OH248826   6.490   3.906  13.845  0.3645 -0.1489 -0.6012
 9112TIP3    H148827   6.566   3.962  13.862  0.2505 -0.9664  3.2816
 9112TIP3    H248828   6.430   3.924  13.917 -1.0670 -2.8992 -1.0083
 9113TIP3   OH248829   2.378   1.295   1.439 -0.2304  0.6568  0.1322
 9113TIP3    H148830   2.439   1.270   1.509  0.4286  0.1903 -0.5898
 9113TIP3    H248831   2.421   1.369   1.395  0.1490 -0.0899 -0.7898
 9114TIP3   OH248832   4.428   2.154  16.900  0.6706 -0.2265 -0.1828
 9114TIP3    H148833   4.366   2.224  16.920  0.7665 -0.0818 -0.3874
 9114TIP3    H248834   4.374   2.076  16.890  0.7153 -0.4928  1.6007
 9115TIP3   OH248835   4.037   2.407   0.623  0.8366  0.0779 -1.0010
 9115TIP3    H148836   4.056   2.321   0.660 -0.3188 -0.5091 -1.7238
 9115TIP3    H248837   4.028   2.465   0.699 -0.3239 -0.8597 -0.4146
 9116TIP3   OH248838   0.731   0.251   0.870 -0.2452 -0.1644  0.1298
 9116TIP3    H148839   0.707   0.223   0.958 -0.0008  0.6383  0.4469
 9116TIP3    H248840   0.662   0.312   0.844 -0.0116  0.0336 -0.0218
 9117TIP3   OH248841   0.382   4.958  12.703  0.2873 -0.4118 -0.8129
 9117TIP3    H148842   0.442   4.896  12.661  0.6850  0.7129 -1.9390
 9117TIP3    H248843   0.348   5.012  12.631 -1.5709 -0.6003 -0.0934
 9118TIP3   OH248844   3.619   5.128  11.735 -0.2119 -0.5406  0.9215
 9118TIP3    H148845   3.549   5.134  11.670 -0.7080 -0.9017  1.4158
 9118TIP3    H248846   3.619   5.213  11.779 -0.0480 -0.3873  0.6235
 9119TIP3   OH248847   0.751   6.493  14.877 -0.3268  0.2118  0.0030
 9119TIP3    H148848   0.829   6.523  14.924  0.0559 -0.9314  0.1315
 9119TIP3    H248849   0.784   6.465  14.792 -0.1483 -2.5914  0.9179
 9120TIP3   OH248850   5.303   1.249   0.573  0.1802  0.2778 -0.1362
 9120TIP3    H148851   5.222   1.220   0.616  0.8643 -3.5668 -1.2508
 9120TIP3    H248852   5.372   1.233   0.638  0.3919  0.8925 -0.2059
 9121TIP3   OH248853   4.941   6.706   6.119  0.2828  0.0793 -0.1502
 9121TIP3    H148854   4.983   6.791   6.131  0.2937 -0.2824  2.7090
 9121TIP3    H248855   4.886   6.695   6.198  0.0227 -2.4008 -0.6397
 9122TIP3   OH248856   0.586   1.751  14.137  0.1611 -0.5613 -0.0359
 9122TIP3    H148857   0.514   1.806  14.106  0.4130  1.0111  2.0493
 9122TIP3    H248858   0.544   1.673  14.172 -0.4371 -0.2713 -0.1086
 9123TIP3   OH248859   3.357   6.291  14.130 -0.3530  0.2346 -0.7091
 9123TIP3    H148860   3.304   6.211  14.124  2.0208 -1.3814 -0.7569
 9123TIP3    H248861   3.321   6.349  14.063 -1.8777 -0.9466 -0.9367
 9124TIP3   OH248862   0.974   1.577   5.909 -0.0419  0.0156  0.0661
 9124TIP3    H148863   0.879   1.583   5.900 -0.0008  1.6817  0.4379
 9124TIP3    H248864   1.003   1.533   5.829 -1.0077  0.9672 -0.8363
 9125TIP3   OH248865   0.873   1.687  11.298  0.1160  0.0356  0.3815
 9125TIP3    H148866   0.892   1.734  11.217 -0.8040  1.7788  1.1252
 9125TIP3    H248867   0.813   1.618  11.272  0.3370  0.1803 -0.5288
 9126TIP3   OH248868   4.175   4.793  14.205  0.4721 -0.1285 -0.4100
 9126TIP3    H148869   4.147   4.736  14.133  0.6655 -0.6976 -0.0349
 9126TIP3    H248870   4.127   4.761  14.281 -0.6159  1.2102 -0.5120
 9127TIP3   OH248871   5.163   0.148   1.731 -0.4185  0.1950 -0.7523
 9127TIP3    H148872   5.088   0.089   1.728 -0.1178 -0.3600  1.6496
 9127TIP3    H248873   5.239   0.090   1.734 -0.0339  0.7241 -0.2222
 9128TIP3   OH248874   2.820   2.892  11.030  0.4171  0.1637 -0.0388
 9128TIP3    H148875   2.728   2.871  11.016  0.3567  0.7513 -0.5192
 9128TIP3    H248876   2.819   2.966  11.091  0.6088 -0.6555  0.9769
 9129TIP3   OH248877   4.538   1.076  16.236 -0.2237 -0.4478  0.0135
 9129TIP3    H148878   4.466   1.139  16.225  1.7883  1.7302 -1.2459
 9129TIP3    H248879   4.549   1.036  16.150  0.1768 -0.6294  0.1471
 9130TIP3   OH248880   4.864   4.287  11.102 -0.3141 -0.0977 -0.4682
 9130TIP3    H148881   4.837   4.244  11.021 -1.5068 -0.5768  0.1745
 9130TIP3    H248882   4.908   4.219  11.152 -0.7049 -0.1294 -0.1693
 9131TIP3   OH248883   6.026   2.649  14.470 -0.0027  0.1708  0.1389
 9131TIP3    H148884   6.039   2.604  14.553  0.6788  0.9519  0.4613
 9131TIP3    H248885   6.113   2.649  14.429 -0.2118  0.3252 -0.3032
 9132TIP3   OH248886   2.253   4.311   4.649  0.0558 -0.8839  0.5259
 9132TIP3    H148887   2.347   4.300   4.637  0.2166 -0.6056  1.4580
 9132TIP3    H248888   2.219   4.221   4.652  0.2014 -0.9761 -0.4359
 9133TIP3   OH248889   1.270   3.273   5.450  0.5336 -0.1960  0.5938
 9133TIP3    H148890   1.202   3.260   5.383  0.0836 -2.1160  1.4029
 9133TIP3    H248891   1.234   3.342   5.506  1.1478  1.8227 -1.3923
 9134TIP3   OH248892   0.403   2.666   5.792 -0.7174  0.0894 -0.1626
 9134TIP3    H148893   0.424   2.754   5.760  1.8558 -0.8074 -1.0454
 9134TIP3    H248894   0.483   2.636   5.833 -1.4967 -1.9525 -0.0988
 9135TIP3   OH248895   6.339   2.865   4.337  0.1576  0.3450  0.1827
 9135TIP3    H148896   6.306   2.796   4.396  1.4450  0.6906  1.3255
 9135TIP3    H248897   6.310   2.947   4.378 -0.5584  0.5273 -0.6731
 9136TIP3   OH248898   6.425   2.480  13.894  0.0225 -0.1965 -0.4707
 9136TIP3    H148899   6.441   2.416  13.825  0.4189  0.5791 -1.1134
 9136TIP3    H248900   6.502   2.537  13.892 -0.3330  0.3064  0.0768
 9137TIP3   OH248901   3.922   6.612  11.457  0.3951  0.3158  0.4748
 9137TIP3    H148902   3.989   6.653  11.402  0.4137 -1.0054 -0.5272
 9137TIP3    H248903   3.840   6.650  11.428  0.6728  1.7503  1.5267
 9138TIP3   OH248904   3.203   0.275   3.823 -0.3586 -1.1783 -0.2285
 9138TIP3    H148905   3.169   0.186   3.814 -1.2239 -0.9605  0.7565
 9138TIP3    H248906   3.128   0.325   3.856  0.5671 -0.4134  0.7396
 9139TIP3   OH248907   5.399   2.586   2.427  0.0852 -0.7232 -0.3715
 9139TIP3    H148908   5.372   2.599   2.336 -0.8183  1.7413  0.2108
 9139TIP3    H248909   5.455   2.661   2.446 -2.0506  0.3356  1.9600
 9140TIP3   OH248910   2.230   4.533   0.286 -0.2231  0.4486 -0.1935
 9140TIP3    H148911   2.287   4.472   0.334  0.5541  0.6422 -0.8569
 9140TIP3    H248912   2.166   4.477   0.243 -1.3361  0.3147  1.5924
 9141TIP3   OH248913   2.807   4.465  13.559 -0.6990 -0.1975  0.2477
 9141TIP3    H148914   2.768   4.393  13.510 -0.0064  0.2213 -0.9544
 9141TIP3    H248915   2.755   4.541  13.534  0.1760  0.1683 -0.5136
 9142TIP3   OH248916   3.082   1.998  16.945 -0.0676 -0.0856  0.5420
 9142TIP3    H148917   3.077   2.086  16.981 -0.8664  1.2854 -2.8043
 9142TIP3    H248918   2.998   1.958  16.968  0.3692 -0.0637  2.2207
 9143TIP3   OH248919   1.886   2.234   0.121 -0.1549  0.2787 -0.3329
 9143TIP3    H148920   1.842   2.226   0.206 -1.2801  0.1515 -0.9318
 9143TIP3    H248921   1.950   2.163   0.121 -0.6649 -0.1848  0.0980
 9144TIP3   OH248922   0.449   3.559  12.040  0.2602  0.4812  0.7396
 9144TIP3    H148923   0.544   3.553  12.047  0.6410  3.2569 -1.2151
 9144TIP3    H248924   0.421   3.470  12.023  2.8474  0.0610 -1.7942
 9145TIP3   OH248925   5.421   2.109   4.224  0.6536 -0.0788  0.3565
 9145TIP3    H148926   5.432   2.056   4.303 -0.0241  0.7158  0.9979
 9145TIP3    H248927   5.411   2.199   4.257 -0.3811  0.1593 -0.5731
 9146TIP3   OH248928   0.102   3.473   2.692  0.5697 -0.0500  0.2477
 9146TIP3    H148929   0.105   3.435   2.605 -1.7882 -0.0669  0.1234
 9146TIP3    H248930   0.017   3.445   2.728  0.4669  1.8684  1.6249
 9147TIP3   OH248931   2.051   4.259   2.205 -0.3804  0.9468  1.2242
 9147TIP3    H148932   2.083   4.221   2.124 -1.3840  0.5500  1.0162
 9147TIP3    H248933   2.057   4.354   2.191 -0.6905  0.8801  0.6314
 9148TIP3   OH248934   3.836   0.669  15.876 -0.0891  0.5203 -0.5934
 9148TIP3    H148935   3.901   0.636  15.815  0.6105  1.1357 -0.1837
 9148TIP3    H248936   3.873   0.751  15.910 -0.9133  0.7018 -0.1001
 9149TIP3   OH248937   6.087   5.948   1.538 -0.8954 -0.7686 -0.2467
 9149TIP3    H148938   6.084   6.005   1.461  0.5547 -1.8361 -1.1358
 9149TIP3    H248939   6.174   5.909   1.535 -1.6532 -2.5973  0.6433
 9150TIP3   OH248940   2.800   4.922  14.972  0.7755 -0.5475  0.0386
 9150TIP3    H148941   2.739   4.849  14.960 -0.7064  0.7961 -0.8530
 9150TIP3    H248942   2.878   4.897  14.922 -0.5310 -0.5896 -2.0292
 9151TIP3   OH248943   0.083   6.228   1.741  0.3218  0.1193 -0.1486
 9151TIP3    H148944   0.041   6.271   1.816 -1.7634  0.5143 -1.5040
 9151TIP3    H248945   0.152   6.289   1.714  0.0789  0.6911  0.5058
 9152TIP3   OH248946   4.245   1.354  11.374 -0.9085 -0.1241  0.3897
 9152TIP3    H148947   4.303   1.382  11.304 -0.5848  0.4327  0.8782
 9152TIP3    H248948   4.291   1.377  11.455 -2.0904  0.9169  0.7792
 9153TIP3   OH248949   5.282   0.596   0.526  0.2146  0.1884 -0.2539
 9153TIP3    H148950   5.276   0.669   0.464 -0.0212  0.2278 -0.1861
 9153TIP3    H248951   5.349   0.538   0.489  1.5047  1.1943  0.4839
 9154TIP3   OH248952   3.931   2.412  13.377  0.2736 -0.1923  0.0778
 9154TIP3    H148953   3.986   2.468  13.322  1.7586  0.4427  2.1248
 9154TIP3    H248954   3.934   2.326  13.335  0.8665  0.4165 -1.1629
 9155TIP3   OH248955   1.832   6.114   1.401  0.1892  0.0334 -0.0140
 9155TIP3    H148956   1.770   6.170   1.448  1.2258  1.1269  0.0759
 9155TIP3    H248957   1.832   6.033   1.450 -0.5284  0.3210  0.4806
 9156TIP3   OH248958   6.047   4.041   2.757 -0.3622 -0.0857  0.5180
 9156TIP3    H148959   6.083   4.111   2.811  0.1524 -0.9483  1.3158
 9156TIP3    H248960   6.104   4.038   2.680 -1.1103  1.1640 -0.1003
 9157TIP3   OH248961   1.365   0.329   0.408  0.0714  0.5025 -0.1688
 9157TIP3    H148962   1.407   0.412   0.432 -0.0047  0.0145  1.6950
 9157TIP3    H248963   1.423   0.262   0.443 -1.1038 -0.2023  0.4485
 9158TIP3   OH248964   1.717   4.503   5.520 -0.5192 -0.4971 -0.5053
 9158TIP3    H148965   1.801   4.532   5.483  0.2691 -2.2485 -0.1656
 9158TIP3    H248966   1.654   4.515   5.449 -0.3102  2.3583 -0.2427
 9159TIP3   OH248967   2.383   3.492  15.593  0.2856 -0.3982 -0.4849
 9159TIP3    H148968   2.459   3.546  15.612 -0.2622  0.8516 -1.7461
 9159TIP3    H248969   2.365   3.446  15.675  0.6780  1.4102  0.6371
 9160TIP3   OH248970   4.608   2.262   1.532  0.1693  0.8541  0.1168
 9160TIP3    H148971   4.603   2.199   1.604 -0.1155 -0.4893 -1.0542
 9160TIP3    H248972   4.536   2.237   1.474  0.9242  1.3822 -1.0606
 9161TIP3   OH248973   1.527   5.546  14.423  0.6176  0.4410 -0.6859
 9161TIP3    H148974   1.574   5.629  14.426 -0.5312  1.0679  0.2825
 9161TIP3    H248975   1.581   5.490  14.367  2.4492  1.1729  0.3055
 9162TIP3   OH248976   3.532   2.084   6.018 -0.1995  0.0362  0.6467
 9162TIP3    H148977   3.537   2.046   6.106 -0.2623 -1.9198 -0.1639
 9162TIP3    H248978   3.487   2.167   6.030  0.1050 -0.0542  2.5159
 9163TIP3   OH248979   2.399   3.501  16.148  0.6161  0.3507  0.4267
 9163TIP3    H148980   2.450   3.430  16.109  0.0934  0.5207 -0.5919
 9163TIP3    H248981   2.456   3.578  16.144  0.7296  0.2646  0.3991
 9164TIP3   OH248982   5.851   5.869  16.092  0.1702 -0.0709 -0.0928
 9164TIP3    H148983   5.880   5.924  16.166  0.6147  0.4551 -0.6558
 9164TIP3    H248984   5.922   5.875  16.029  0.8539 -2.4154  0.4037
 9165TIP3   OH248985   2.853   2.256  11.805 -0.6476  0.3042 -0.4971
 9165TIP3    H148986   2.852   2.180  11.862 -0.7040  0.6734  0.0009
 9165TIP3    H248987   2.795   2.319  11.848  0.2939  1.0546 -0.3009
 9166TIP3   OH248988   1.291   0.278   4.297  0.2478 -0.6543 -0.2947
 9166TIP3    H148989   1.232   0.272   4.372  1.5491 -2.4694  0.6108
 9166TIP3    H248990   1.244   0.235   4.226 -0.8521  0.7745 -0.4591
 9167TIP3   OH248991   5.442   2.532  16.838  0.3655  0.0041 -0.0992
 9167TIP3    H148992   5.362   2.491  16.803  0.5157 -0.0930 -0.3327
 9167TIP3    H248993   5.498   2.458  16.862  0.2841  0.0717  0.3039
 9168TIP3   OH248994   3.401   5.267  17.181  0.5618 -0.5128 -0.1894
 9168TIP3    H148995   3.446   5.284  17.264  0.4536 -1.9785  0.1953
 9168TIP3    H248996   3.441   5.326  17.118  0.4677  0.7970  0.9795
 9169TIP3   OH248997   5.620   6.313  16.186  0.1158  0.1512  0.3958
 9169TIP3    H148998   5.538   6.312  16.136  0.7938  0.3816 -0.7478
 9169TIP3    H248999   5.653   6.403  16.177 -0.8091  0.8000  3.0593
 9170TIP3   OH249000   3.563   2.555  15.458  0.3580  0.0033 -0.0981
 9170TIP3    H149001   3.632   2.577  15.395  0.2210  0.4932 -0.0758
 9170TIP3    H249002   3.541   2.464  15.438 -0.5199  0.5273 -1.5427
 9171TIP3   OH249003   2.621   3.786   3.636  0.5778 -0.2966 -0.2103
 9171TIP3    H149004   2.689   3.853   3.638  0.4359 -0.1625  1.7194
 9171TIP3    H249005   2.545   3.830   3.599  0.4398  0.6831  1.1827
 9172TIP3   OH249006   5.355   3.410  13.511 -0.3071  0.2945  0.8306
 9172TIP3    H149007   5.404   3.340  13.553  0.4837 -0.9667 -2.0787
 9172TIP3    H249008   5.264   3.379  13.511 -0.0832 -0.3540  0.2747
 9173TIP3   OH249009   5.993   0.659   3.274  0.4777 -1.2163  1.0643
 9173TIP3    H149010   6.047   0.581   3.266  1.4341 -0.2950 -2.5547
 9173TIP3    H249011   6.055   0.731   3.283 -0.1919 -0.4549 -0.1383
 9174TIP3   OH249012   4.454   5.316  10.823  0.0061  0.0232  0.6679
 9174TIP3    H149013   4.376   5.349  10.778  0.4319  2.8328  1.8672
 9174TIP3    H249014   4.493   5.254  10.762 -0.7792  1.8757 -1.8163
 9175TIP3   OH249015   0.127   1.610   5.203  0.4219  0.5730 -0.1544
 9175TIP3    H149016   0.222   1.616   5.208  0.3510  2.4759 -0.6363
 9175TIP3    H249017   0.110   1.557   5.125  1.0760  1.3646 -0.8418
 9176TIP3   OH249018   6.319   4.604   4.796 -0.1304  0.1210 -0.5002
 9176TIP3    H149019   6.297   4.693   4.823 -2.5172 -0.4574 -0.4588
 9176TIP3    H249020   6.307   4.551   4.875  0.1976 -0.4094 -0.8012
 9177TIP3   OH249021   1.112   6.040   1.276  0.2451  0.0821  0.0240
 9177TIP3    H149022   1.074   5.975   1.336 -0.8502 -0.1163 -0.8755
 9177TIP3    H249023   1.065   6.121   1.295 -0.4383 -0.0988 -0.9102
 9178TIP3   OH249024   6.390   5.519   0.307  0.4055  0.3916  0.4475
 9178TIP3    H149025   6.298   5.500   0.326  1.0617 -2.2111  1.1589
 9178TIP3    H249026   6.406   5.604   0.348 -1.9703  1.4534 -0.6836
 9179TIP3   OH249027   6.055   2.420  16.445  0.1873  0.0338 -0.1311
 9179TIP3    H149028   5.986   2.480  16.419  1.3097  1.3907 -0.0270
 9179TIP3    H249029   6.011   2.355  16.500 -1.0283  0.7492 -0.2423
 9180TIP3   OH249030   1.003   0.227   1.327  0.2182 -0.1898 -0.3232
 9180TIP3    H149031   0.977   0.228   1.235 -1.2805  1.6454  0.0946
 9180TIP3    H249032   0.923   0.202   1.374  0.4067  0.9720  0.6340
 9181TIP3   OH249033   6.580   2.564   5.851  0.2322 -0.0769  0.0432
 9181TIP3    H149034   6.513   2.628   5.826 -0.5397 -0.3516  1.3457
 9181TIP3    H249035   6.629   2.607   5.922 -0.1164 -0.8100  0.7359
 9182TIP3   OH249036   0.927   0.967  16.265 -0.0033  0.6498 -0.7785
 9182TIP3    H149037   0.835   0.981  16.245  0.1909  1.3714 -1.1778
 9182TIP3    H249038   0.931   0.968  16.360 -0.7711 -1.7760 -0.6827
 9183TIP3   OH249039   6.571   0.960   1.448  0.0334 -0.0669  0.1118
 9183TIP3    H149040   6.501   0.902   1.420  1.0937 -1.8326  1.0077
 9183TIP3    H249041   6.634   0.902   1.492  1.7473  1.5639 -0.1341
 9184TIP3   OH249042   2.629   1.455   0.647  0.2651  0.3407 -0.3322
 9184TIP3    H149043   2.667   1.537   0.616  1.0777  0.1759  0.2384
 9184TIP3    H249044   2.696   1.389   0.630  1.5481  0.5391  3.5265
 9185TIP3   OH249045   0.840   3.160  13.160  0.2994 -0.0480 -0.0704
 9185TIP3    H149046   0.847   3.256  13.159 -3.3569  0.3106 -0.7156
 9185TIP3    H249047   0.828   3.139  13.253  0.2736  0.2175 -0.0115
 9186TIP3   OH249048   1.058   4.541  14.551 -0.4512 -0.5026 -0.5347
 9186TIP3    H149049   1.108   4.464  14.527  0.5333 -0.3745  1.0727
 9186TIP3    H249050   1.070   4.550  14.646 -0.2317  1.8302 -0.7487
 9187TIP3   OH249051   0.048   3.908   4.711 -0.0370 -0.0461  0.2482
 9187TIP3    H149052  -0.029   3.862   4.677 -0.9241 -0.1030  2.2512
 9187TIP3    H249053   0.076   3.964   4.639 -3.3373  1.6730  0.2121
 9188TIP3   OH249054   3.793   0.408   3.848  0.0716 -0.3540 -0.5117
 9188TIP3    H149055   3.726   0.401   3.916  0.5843  0.3306  0.0696
 9188TIP3    H249056   3.745   0.432   3.769 -0.3545  0.1890 -0.0838
 9189TIP3   OH249057   6.062   5.371  11.603 -0.0170 -0.6530 -0.3412
 9189TIP3    H149058   5.984   5.329  11.567 -0.4098  0.5981 -0.9842
 9189TIP3    H249059   6.132   5.308  11.588 -0.4414 -0.7484 -2.0633
 9190TIP3   OH249060   2.827   5.421  12.575 -0.1026 -0.1866 -0.2787
 9190TIP3    H149061   2.867   5.500  12.541 -0.9514  1.2268  1.8884
 9190TIP3    H249062   2.781   5.449  12.654 -1.0737 -2.6925  0.1105
 9191TIP3   OH249063   1.125   3.976  12.661 -0.2536  0.4128  0.7662
 9191TIP3    H149064   1.070   3.975  12.583 -0.4827 -2.2068  0.9186
 9191TIP3    H249065   1.069   3.942  12.731  1.0623 -0.8355  1.2487
 9192TIP3   OH249066   3.369   0.154   2.381 -0.1808  0.0440  0.0607
 9192TIP3    H149067   3.344   0.117   2.466 -0.6166  1.4053  0.5450
 9192TIP3    H249068   3.401   0.079   2.330 -2.4197 -1.2297  0.4739
 9193TIP3   OH249069   2.317   1.425  16.610  0.6973 -0.1651 -0.1194
 9193TIP3    H149070   2.377   1.385  16.673  0.0962  0.3309  0.7866
 9193TIP3    H249071   2.361   1.505  16.582  1.4883 -0.9906 -1.2253
 9194TIP3   OH249072   3.896   1.922   3.726 -0.0856 -0.7182 -0.6387
 9194TIP3    H149073   3.885   1.949   3.635 -0.1257  1.1249 -0.1038
 9194TIP3    H249074   3.990   1.932   3.743 -0.1381 -0.7089 -0.3571
 9195TIP3   OH249075   5.603   2.637   6.556 -0.3881  0.2928  0.2010
 9195TIP3    H149076   5.647   2.661   6.638  0.7517  2.6201 -1.0290
 9195TIP3    H249077   5.673   2.636   6.491 -1.5534  0.1630 -1.0696
 9196TIP3   OH249078   0.078   6.370  16.608  0.0390  0.4220 -0.3984
 9196TIP3    H149079   0.106   6.458  16.634  0.4331 -0.4823  2.3112
 9196TIP3    H249080   0.028   6.337  16.682 -0.1573 -1.6408 -1.3994
 9197TIP3   OH249081   6.523   5.991  14.618  0.3121  0.5083  0.5866
 9197TIP3    H149082   6.617   6.010  14.617  0.3659  0.2516  0.7642
 9197TIP3    H249083   6.483   6.070  14.657  0.2818  1.3608 -1.1345
 9198TIP3   OH249084   3.494   6.757  15.289  0.6211 -0.1214  0.9638
 9198TIP3    H149085   3.424   6.700  15.321  0.6811 -0.8455 -0.1360
 9198TIP3    H249086   3.465   6.846  15.311 -0.3131 -0.4642  1.1485
 9199TIP3   OH249087   6.663   6.666   4.355  0.0876  0.0224  0.1107
 9199TIP3    H149088   6.619   6.587   4.385 -0.1090  0.4851  1.0545
 9199TIP3    H249089   6.755   6.642   4.346 -0.1741 -0.6434 -0.7818
 9200TIP3   OH249090   5.656   0.891   5.598 -0.1508  0.5828  0.0648
 9200TIP3    H149091   5.692   0.882   5.687 -2.1800 -1.3059  0.7472
 9200TIP3    H249092   5.685   0.812   5.552  2.3476  2.3651 -1.5411
 9201TIP3   OH249093   3.856   6.039  14.234  0.0887 -0.4756  0.3787
 9201TIP3    H149094   3.937   6.009  14.193 -0.0252  1.4764 -1.3840
 9201TIP3    H249095   3.863   6.135  14.233 -1.6041 -0.3161  1.5254
 9202TIP3   OH249096   0.964   6.322  14.416 -0.3185  0.0784  0.0441
 9202TIP3    H149097   0.921   6.237  14.408  0.4145 -0.4186  1.1761
 9202TIP3    H249098   1.052   6.301  14.449 -0.0582  1.2528  0.1202
 9203TIP3   OH249099   1.046   6.725   1.356 -0.2609 -0.2150 -0.1333
 9203TIP3    H149100   0.991   6.680   1.291  1.5155 -0.7111 -1.3271
 9203TIP3    H249101   1.058   6.813   1.320 -0.6192  0.0262  0.3360
 9204TIP3   OH249102   3.367   4.449  12.534 -0.4306  0.2956  0.0722
 9204TIP3    H149103   3.443   4.491  12.575 -0.6670  1.3701 -0.5712
 9204TIP3    H249104   3.347   4.504  12.458 -0.4236 -1.2938 -1.0942
 9205TIP3   OH249105   6.612   4.920  13.118  0.5247 -0.5743  0.0584
 9205TIP3    H149106   6.633   4.837  13.161 -0.2465 -0.0627  1.4479
 9205TIP3    H249107   6.517   4.923  13.116  0.5141  1.4391  2.3580
 9206TIP3   OH249108   3.494   0.759  13.852 -0.3893 -0.0302 -0.5739
 9206TIP3    H149109   3.527   0.848  13.838  2.4167 -0.8771  0.3180
 9206TIP3    H249110   3.449   0.763  13.936 -0.9653  0.7288 -0.9138
 9207TIP3   OH249111   5.433   1.565  14.832 -0.6087 -0.4140  0.3101
 9207TIP3    H149112   5.378   1.505  14.782 -1.4971  1.3000 -0.8166
 9207TIP3    H249113   5.398   1.561  14.922  1.4175 -4.0032  1.0010
 9208TIP3   OH249114   5.027   2.634   1.291  0.9485  0.4260  0.2416
 9208TIP3    H149115   5.025   2.668   1.201  1.7375 -1.5610 -0.5600
 9208TIP3    H249116   5.033   2.539   1.280  0.4664  0.1291  2.4105
 9209TIP3   OH249117   4.185   1.382   0.402 -0.1323 -0.1971  0.1520
 9209TIP3    H149118   4.108   1.354   0.352  0.0209  1.3833 -0.9979
 9209TIP3    H249119   4.149   1.418   0.483 -0.6128  0.5182 -0.3715
 9210TIP3   OH249120   4.434   2.677   6.642 -0.0828 -0.4773  0.4901
 9210TIP3    H149121   4.408   2.603   6.698 -0.4809 -1.5033 -1.0016
 9210TIP3    H249122   4.436   2.640   6.554 -1.3540  1.5762 -0.4401
 9211TIP3   OH249123   2.937   6.334   4.674 -0.4219 -0.5700  0.0298
 9211TIP3    H149124   2.986   6.291   4.604  1.3981  0.3089  0.7217
 9211TIP3    H249125   3.005   6.369   4.732 -1.8260 -2.9418  3.2997
 9212TIP3   OH249126   5.664   5.309   3.893  0.5673 -0.2290  0.2095
 9212TIP3    H149127   5.591   5.311   3.830  0.6009 -0.1018  0.1742
 9212TIP3    H249128   5.625   5.277   3.974  0.3154  0.5617  0.3992
 9213TIP3   OH249129   0.698   6.805  12.831  0.2521  0.0907  0.4420
 9213TIP3    H149130   0.738   6.856  12.761 -3.1012  0.7405 -1.0957
 9213TIP3    H249131   0.711   6.858  12.910  0.3045  1.3843 -0.4298
 9214TIP3   OH249132   4.279   6.715   5.718 -0.4471  0.5185  0.0525
 9214TIP3    H149133   4.359   6.667   5.696  0.8278  2.8357 -0.4598
 9214TIP3    H249134   4.214   6.682   5.655  0.9469  0.9326 -1.6451
 9215TIP3   OH249135   1.668   0.986  13.576  0.3341 -0.2690  0.1531
 9215TIP3    H149136   1.734   0.920  13.595  1.4822  0.9460  0.4640
 9215TIP3    H249137   1.654   1.030  13.659  1.5624  1.6444 -0.6146
 9216TIP3   OH249138   4.046   1.403   4.373  0.1329 -0.0451  0.2424
 9216TIP3    H149139   4.027   1.340   4.304  0.7506 -1.8944  1.6984
 9216TIP3    H249140   3.964   1.408   4.423  0.6878 -1.2870  1.3211
 9217TIP3   OH249141   4.497   2.532  12.123  0.4162 -0.1412  0.1802
 9217TIP3    H149142   4.429   2.599  12.119 -0.4295 -0.8844  1.7814
 9217TIP3    H249143   4.554   2.559  12.195  0.5108 -0.7211  0.3306
 9218TIP3   OH249144   0.285   5.704  11.679  0.1859  0.5321 -0.3959
 9218TIP3    H149145   0.271   5.761  11.754  1.3777  0.0215  0.2268
 9218TIP3    H249146   0.368   5.660  11.697 -0.3903 -0.9134 -1.1617
 9219TIP3   OH249147   0.648   3.671  12.670  0.3132 -0.3384  0.3705
 9219TIP3    H149148   0.565   3.662  12.716  0.3288  0.4564  0.5636
 9219TIP3    H249149   0.711   3.626  12.726  0.2613  0.2852  0.9314
 9220TIP3   OH249150   5.414   2.960   6.347  0.2624  0.0388 -0.1570
 9220TIP3    H149151   5.364   2.999   6.419  0.9452  1.4541 -0.4266
 9220TIP3    H249152   5.503   2.993   6.359  0.6281 -0.6035 -1.0257
 9221TIP3   OH249153   3.038   2.481  15.667  0.1420  0.2911  0.0883
 9221TIP3    H149154   3.117   2.472  15.613  0.0236  2.1130 -0.4187
 9221TIP3    H249155   3.067   2.456  15.755  0.8859 -0.5539 -0.3752
 9222TIP3   OH249156   0.555   0.596  13.326  0.0182  0.1479  0.0739
 9222TIP3    H149157   0.523   0.685  13.340  0.4161  0.2825  0.1396
 9222TIP3    H249158   0.566   0.589  13.231 -0.1219  0.1308  0.0588
 9223TIP3   OH249159   1.177   3.274   4.903  0.5120  0.5253  0.1425
 9223TIP3    H149160   1.211   3.219   4.974 -1.8196 -1.3371 -0.1429
 9223TIP3    H249161   1.233   3.254   4.828  1.6643  0.9269  0.8834
 9224TIP3   OH249162   6.206   4.046   2.535 -0.2675  1.0533 -0.0884
 9224TIP3    H149163   6.297   4.044   2.563 -0.3207 -0.3159  0.0414
 9224TIP3    H249164   6.209   4.035   2.440 -0.3589 -0.7200  0.0999
 9225TIP3   OH249165   0.307   1.079   5.083 -0.1401  0.1184 -0.5151
 9225TIP3    H149166   0.311   1.111   5.173 -0.1557  0.0062 -0.4749
 9225TIP3    H249167   0.244   1.137   5.040  0.3160  0.5489 -0.6065
 9226TIP3   OH249168   2.801   6.107   4.521  0.3018 -0.1605  0.2389
 9226TIP3    H149169   2.796   6.163   4.598  0.0270 -0.4630  0.4387
 9226TIP3    H249170   2.840   6.163   4.454  0.8009  0.0199  0.6723
 9227TIP3   OH249171   2.513   4.431   3.207 -0.3135  0.0473 -0.5713
 9227TIP3    H149172   2.557   4.480   3.138 -0.1619  1.7657  0.7046
 9227TIP3    H249173   2.571   4.357   3.225  1.1481  1.2500 -0.2215
 9228TIP3   OH249174   4.202   0.184  11.600  0.1124  0.1229 -0.3218
 9228TIP3    H149175   4.107   0.170  11.609  0.0160 -0.0902 -1.5618
 9228TIP3    H249176   4.241   0.103  11.634 -0.0599  1.0306  2.1148
 9229TIP3   OH249177   6.004   0.278   3.057  0.1062 -0.3239  0.1459
 9229TIP3    H149178   5.908   0.272   3.064  0.3944 -1.3354  4.5578
 9229TIP3    H249179   6.033   0.186   3.054  0.9730 -0.0231 -0.9654
 9230TIP3   OH249180   3.882   4.999   4.821 -0.3902 -0.3579 -0.3621
 9230TIP3    H149181   3.941   4.937   4.864 -0.5167  0.3664  0.8954
 9230TIP3    H249182   3.922   5.085   4.835 -0.4640 -0.1031 -1.6641
 9231TIP3   OH249183   0.000   4.248  11.371 -0.5429 -0.2194  1.0856
 9231TIP3    H149184  -0.058   4.201  11.430 -1.8643  1.1279  0.8825
 9231TIP3    H249185  -0.057   4.283  11.303  0.6354  0.3071  0.3468
 9232TIP3   OH249186   2.267   0.520   4.242  0.7124  0.0539  0.4662
 9232TIP3    H149187   2.338   0.533   4.304  0.7677 -0.7014  0.5736
 9232TIP3    H249188   2.306   0.538   4.156  1.1975 -0.9092  0.4723
 9233TIP3   OH249189   0.156   4.987   5.965 -0.4065  0.0185 -0.6042
 9233TIP3    H149190   0.250   4.989   5.982 -0.3886  0.2277 -0.7218
 9233TIP3    H249191   0.120   4.934   6.036 -0.0968 -0.8223 -1.0791
 9234TIP3   OH249192   0.890   4.000  16.197 -0.2940  0.1142  0.1024
 9234TIP3    H149193   0.942   3.944  16.139  2.5492  0.6257  1.9948
 9234TIP3    H249194   0.824   3.942  16.235 -0.2851 -0.8836 -1.3963
 9235TIP3   OH249195   0.821   1.650  13.976  0.4673  0.2859 -0.5601
 9235TIP3    H149196   0.766   1.668  14.051 -1.0051 -2.5351 -0.9004
 9235TIP3    H249197   0.771   1.680  13.901  0.6756  0.4364 -0.6404
 9236TIP3   OH249198   0.347   3.212   2.783  0.2771  0.1939  0.0093
 9236TIP3    H149199   0.392   3.289   2.748 -1.1289  0.8925 -0.2886
 9236TIP3    H249200   0.309   3.169   2.706 -1.2718  0.7304  0.4584
 9237TIP3   OH249201   1.628   3.856  15.440 -0.4076  0.2952  0.1485
 9237TIP3    H149202   1.624   3.909  15.519 -3.6449  0.0373  0.2426
 9237TIP3    H249203   1.604   3.916  15.369  1.6780  0.3362 -0.5342
 9238TIP3   OH249204   0.659   2.556   5.475 -0.4847  0.3820  0.8469
 9238TIP3    H149205   0.651   2.647   5.445  0.9668  0.2094 -0.1276
 9238TIP3    H249206   0.585   2.544   5.535 -1.2394  1.9080  0.2573
 9239TIP3   OH249207   5.375   5.891  16.597  0.4119 -0.0427  0.6957
 9239TIP3    H149208   5.358   5.932  16.512 -1.2601  0.4964  1.2885
 9239TIP3    H249209   5.292   5.894  16.643  1.2412 -0.5590  2.2755
 9240TIP3   OH249210   5.121   4.951  13.784 -0.4777 -0.2533 -0.0724
 9240TIP3    H149211   5.205   4.964  13.827 -1.5062 -0.7907  2.1521
 9240TIP3    H249212   5.115   4.856  13.772 -0.8938 -0.2418  0.0352
 9241TIP3   OH249213   2.843   4.297   1.169 -0.0470 -0.1685  0.2346
 9241TIP3    H149214   2.772   4.236   1.147 -0.4156 -0.3153  1.8018
 9241TIP3    H249215   2.799   4.370   1.211  0.9977 -1.5304  3.8249
 9242TIP3   OH249216   2.325   3.682   5.649  0.1146  0.3067  0.8322
 9242TIP3    H149217   2.384   3.736   5.701 -0.9007  3.1223 -0.7879
 9242TIP3    H249218   2.350   3.700   5.558 -0.9288 -1.1856  0.2338
 9243TIP3   OH249219   6.410   5.372   1.160  0.7730  0.1566  0.3126
 9243TIP3    H149220   6.330   5.380   1.107  1.0035  0.3177 -0.0116
 9243TIP3    H249221   6.404   5.285   1.200  0.1701  0.3787  0.7206
 9244TIP3   OH249222   6.336   5.359  16.795 -0.6793 -0.0107 -0.2403
 9244TIP3    H149223   6.270   5.360  16.865 -0.9273  0.3115 -0.4825
 9244TIP3    H249224   6.300   5.299  16.730 -1.1645  0.8651 -0.7872
 9245TIP3   OH249225   0.919   4.009   3.496  0.0177  0.2178 -0.3348
 9245TIP3    H149226   0.960   3.960   3.425 -1.3135 -0.1327 -0.8565
 9245TIP3    H249227   0.946   4.100   3.480  0.5926 -0.0054 -0.6681
 9246TIP3   OH249228   0.333   1.776   5.361  0.2974  0.1751 -0.1733
 9246TIP3    H149229   0.310   1.706   5.422  0.7916  0.5113  0.4094
 9246TIP3    H249230   0.275   1.849   5.384  1.1867  0.6637  0.6091
 9247TIP3   OH249231   2.070   2.641  15.001 -0.7647 -0.3369 -0.0729
 9247TIP3    H149232   2.074   2.696  15.079 -0.0326 -0.6665  0.1205
 9247TIP3    H249233   1.997   2.677  14.950  0.5177  1.6467 -0.5905
 9248TIP3   OH249234   2.573   0.127   0.037 -0.2232 -0.2755 -0.6580
 9248TIP3    H149235   2.532   0.043   0.018 -0.6154 -0.5196  1.1281
 9248TIP3    H249236   2.666   0.107   0.045 -0.2131 -0.3895 -1.0434
 9249TIP3   OH249237   5.219   6.460   0.299  0.5043  0.1883  0.0877
 9249TIP3    H149238   5.155   6.388   0.297 -0.5109  1.0826  0.0654
 9249TIP3    H249239   5.300   6.420   0.265 -0.3981 -0.6054 -1.2207
 9250TIP3   OH249240   2.172   4.147   0.850 -0.0575  0.3190 -0.1541
 9250TIP3    H149241   2.141   4.163   0.761 -1.2944 -2.0228 -0.1723
 9250TIP3    H249242   2.162   4.231   0.894 -0.1143  1.3202 -2.0239
 9251TIP3   OH249243   0.899   1.181   4.867 -0.7849 -0.0251  0.1448
 9251TIP3    H149244   0.920   1.166   4.775 -0.4398  0.2047  0.1849
 9251TIP3    H249245   0.921   1.098   4.910 -0.3163  0.0855  0.1233
 9252TIP3   OH249246   5.552   6.651  12.079 -0.3304 -0.1801 -0.0599
 9252TIP3    H149247   5.482   6.704  12.043 -0.2261 -0.7986 -1.1975
 9252TIP3    H249248   5.625   6.663  12.018  0.8067  1.0388  1.4991
 9253TIP3   OH249249   1.875   6.809  16.102  0.3225  0.1137  0.3098
 9253TIP3    H149250   1.785   6.815  16.132  0.2900 -1.2642  0.4912
 9253TIP3    H249251   1.908   6.899  16.106 -1.3187  0.7591 -0.6356
 9254TIP3   OH249252   1.508   0.562   0.172 -0.0666 -0.6130 -0.4914
 9254TIP3    H149253   1.536   0.473   0.152  3.8210  0.4699 -0.3476
 9254TIP3    H249254   1.574   0.618   0.131 -0.5038  2.0896  2.2608
 9255TIP3   OH249255   4.564   0.123   2.678  0.2412  0.8198  0.0941
 9255TIP3    H149256   4.656   0.108   2.655 -0.5940 -0.2150 -2.7699
 9255TIP3    H249257   4.545   0.211   2.646 -0.1021  0.5247 -0.5370
 9256TIP3   OH249258   6.790   0.243   5.849  0.0388  0.0668  0.7136
 9256TIP3    H149259   6.722   0.247   5.781 -1.2525  0.5442  2.0016
 9256TIP3    H249260   6.745   0.271   5.929  0.9820 -2.4780  2.1917
 9257TIP3   OH249261   5.376   3.552   2.342 -0.3319  0.0907  0.5454
 9257TIP3    H149262   5.416   3.480   2.293  1.0864  0.4296  1.1918
 9257TIP3    H249263   5.449   3.596   2.385 -1.2094  1.7397  0.4080
 9258TIP3   OH249264   2.717   1.453  10.475  0.1954 -0.3690  0.3264
 9258TIP3    H149265   2.777   1.515  10.432 -0.5494  0.5453  0.5806
 9258TIP3    H249266   2.639   1.505  10.495 -0.3025 -1.3082  0.8772
 9259TIP3   OH249267   3.209   6.504  10.972  0.3237 -0.0704  0.6374
 9259TIP3    H149268   3.162   6.432  10.930  2.9445 -1.0928 -0.7174
 9259TIP3    H249269   3.165   6.583  10.941 -0.0315 -0.9636 -1.2419
 9260TIP3   OH249270   1.263   6.819  15.724  0.1307 -0.0180  0.3622
 9260TIP3    H149271   1.232   6.892  15.671  1.5616  1.8723  2.0483
 9260TIP3    H249272   1.230   6.741  15.679 -1.4589  1.6464 -1.4496
 9261TIP3   OH249273   2.948   1.252   1.796 -0.0123  0.3641 -0.1223
 9261TIP3    H149274   2.959   1.345   1.815 -2.8164  0.8273 -0.6471
 9261TIP3    H249275   2.894   1.218   1.867  1.7634 -1.1074  0.5737
 9262TIP3   OH249276   3.988   4.604   4.804 -0.1485  0.1980 -0.3479
 9262TIP3    H149277   4.065   4.626   4.857 -0.3536 -1.8174  0.8253
 9262TIP3    H249278   4.024   4.574   4.720  0.3543 -0.8678  0.2445
 9263TIP3   OH249279   1.887   4.065   1.059  0.0684  0.1383  0.7212
 9263TIP3    H149280   1.973   4.070   1.017 -0.6792 -1.5185 -1.0898
 9263TIP3    H249281   1.860   3.974   1.046 -1.7562  0.5158  1.7225
 9264TIP3   OH249282   2.337   3.192   4.792 -0.0042 -0.3385 -0.4076
 9264TIP3    H149283   2.290   3.143   4.860  1.5281 -1.0615  0.1640
 9264TIP3    H249284   2.429   3.178   4.813  0.4859  2.8910 -0.1677
 9265TIP3   OH249285   1.936   1.812  12.665  0.4939 -0.3584 -0.4560
 9265TIP3    H149286   1.903   1.879  12.724  0.4351 -0.7315 -0.0572
 9265TIP3    H249287   2.031   1.810  12.680  0.3919 -0.9287  0.1292
 9266TIP3   OH249288   5.898   2.219  12.443 -0.3071 -0.4128 -0.3136
 9266TIP3    H149289   5.986   2.197  12.410  0.1355  1.7181 -0.6382
 9266TIP3    H249290   5.914   2.257  12.529 -0.9539 -0.4603 -0.1755
 9267TIP3   OH249291   6.111   3.779  16.011 -0.6660 -0.1510 -0.0185
 9267TIP3    H149292   6.155   3.851  15.965 -0.8686  1.6075  2.4846
 9267TIP3    H249293   6.170   3.704  16.000 -0.2778  0.4525 -2.3338
 9268TIP3   OH249294   4.068   0.139  17.261 -0.4902  0.1303  0.2399
 9268TIP3    H149295   3.992   0.192  17.284 -0.3611  0.5450 -0.2725
 9268TIP3    H249296   4.138   0.172  17.317 -0.8121 -0.5941  1.0759
 9269TIP3   OH249297   0.080   3.290  12.289 -0.7168 -0.0104  0.6411
 9269TIP3    H149298   0.071   3.347  12.213  0.0629  0.5293  0.9519
 9269TIP3    H249299   0.063   3.347  12.364 -0.7092 -0.3651  0.9125
 9270TIP3   OH249300   3.215   4.141  15.642  0.5670 -0.4923  0.3226
 9270TIP3    H149301   3.291   4.198  15.651  0.9445 -1.0332  0.6265
 9270TIP3    H249302   3.157   4.187  15.581 -0.0642  1.1908  2.1387
 9271TIP3   OH249303   0.069   2.488   6.573  0.7822 -0.7151 -0.5523
 9271TIP3    H149304   0.004   2.550   6.541 -0.9836 -1.7497  0.9755
 9271TIP3    H249305   0.153   2.530   6.552 -0.3506  2.0291  0.1235
 9272TIP3   OH249306   2.614   5.647  12.607  0.1891 -0.0122 -0.1254
 9272TIP3    H149307   2.594   5.582  12.675  2.0895 -1.3514 -0.8092
 9272TIP3    H249308   2.686   5.698  12.644  2.9910 -2.4009 -2.0913
 9273TIP3   OH249309   3.513   2.815   2.757 -0.5456 -0.5545  0.1292
 9273TIP3    H149310   3.503   2.720   2.751  1.9440 -0.7408 -1.8498
 9273TIP3    H249311   3.606   2.831   2.742 -1.3564  2.3587 -2.5171
 9274TIP3   OH249312   2.519   4.423   0.700  0.2107 -0.4227  0.2763
 9274TIP3    H149313   2.515   4.382   0.786 -1.2905 -0.4620  0.1923
 9274TIP3    H249314   2.428   4.428   0.671  0.7205 -0.8218 -1.4958
 9275TIP3   OH249315   3.365   0.412   0.323 -0.0150 -0.2848  0.1053
 9275TIP3    H149316   3.437   0.474   0.330 -0.6974  0.4949  0.3771
 9275TIP3    H249317   3.376   0.354   0.398  0.3717 -0.2109  0.1066
 9276TIP3   OH249318   1.624   0.314   0.062 -0.5016 -0.0561 -0.5177
 9276TIP3    H149319   1.684   0.354  -0.001 -0.8589  0.4325 -0.5539
 9276TIP3    H249320   1.613   0.224   0.031  1.1579 -0.5034  0.1790
 9277TIP3   OH249321   1.909   0.886   0.098 -0.2176  0.2201  0.0936
 9277TIP3    H149322   1.973   0.895   0.168  1.3276  1.0922 -1.3834
 9277TIP3    H249323   1.864   0.969   0.096 -0.2823  0.1845  0.0842
 9278TIP3   OH249324   2.106   3.771   2.758  0.5691  0.8719  0.1525
 9278TIP3    H149325   2.176   3.755   2.694 -0.3755  0.6905 -0.8562
 9278TIP3    H249326   2.129   3.717   2.833  0.0035 -1.4555 -1.3005
 9279TIP3   OH249327   1.483   3.108   6.245 -0.3369  0.2777  0.7767
 9279TIP3    H149328   1.507   3.190   6.288  0.7548  0.6881 -0.5955
 9279TIP3    H249329   1.396   3.125   6.208  0.9351  1.6940 -1.6882
 9280TIP3   OH249330   5.983   0.734   0.663 -0.5326 -0.3562  0.5384
 9280TIP3    H149331   5.923   0.797   0.623 -0.0165  1.1938  2.1176
 9280TIP3    H249332   6.064   0.744   0.614 -0.5323  0.0516  0.6130
 9281TIP3   OH249333   3.659   5.014  16.508 -0.1395 -0.3938  0.0257
 9281TIP3    H149334   3.639   5.107  16.518 -0.4473 -0.4192 -0.3590
 9281TIP3    H249335   3.754   5.008  16.524 -0.1046 -0.0010 -0.0412
 9282TIP3   OH249336   6.408   1.438   4.147  0.1864  0.4153 -0.8209
 9282TIP3    H149337   6.396   1.395   4.063  2.8302 -0.0680 -1.0051
 9282TIP3    H249338   6.482   1.498   4.132 -0.8506  2.0706  0.5171
 9283TIP3   OH249339   5.630   2.649  14.149  0.0719 -0.1640  0.4996
 9283TIP3    H149340   5.689   2.697  14.090 -0.5178  2.5738  2.0508
 9283TIP3    H249341   5.681   2.636  14.228  0.5096 -2.9359 -0.2011
 9284TIP3   OH249342   6.476   2.942  10.321 -0.4871 -0.1092  0.0040
 9284TIP3    H149343   6.445   2.873  10.379  2.7490 -1.0113  0.7601
 9284TIP3    H249344   6.471   3.022  10.374  0.5090 -0.6094  0.8904
 9285TIP3   OH249345   4.621   4.668  11.646 -0.1024 -0.1751 -0.5860
 9285TIP3    H149346   4.581   4.670  11.559 -1.3833  1.0734  0.0093
 9285TIP3    H249347   4.704   4.716  11.635 -1.3909  2.0902 -0.5988
 9286TIP3   OH249348   4.019   1.670  13.163  0.4261  0.2740  0.3235
 9286TIP3    H149349   3.965   1.652  13.240 -2.0494 -0.9536 -1.6431
 9286TIP3    H249350   4.004   1.595  13.105  3.7567  0.2189 -0.5561
 9287TIP3   OH249351   1.177   0.854   4.917  0.0617  0.3067 -0.2335
 9287TIP3    H149352   1.085   0.832   4.902 -0.0352 -0.1302  0.9862
 9287TIP3    H249353   1.179   0.949   4.916  0.1615  0.3337 -3.6032
 9288TIP3   OH249354   5.908   3.939   5.462 -0.6350  0.3305 -0.1649
 9288TIP3    H149355   5.885   3.975   5.377  0.5369  0.9140 -0.2406
 9288TIP3    H249356   5.995   3.901   5.449 -0.8856 -0.4819  0.5071
 9289TIP3   OH249357   4.913   4.785  12.107  0.3165 -0.0609 -0.3155
 9289TIP3    H149358   4.962   4.862  12.079 -0.1421  0.9843  1.6594
 9289TIP3    H249359   4.874   4.750  12.027 -0.7012  2.6186 -1.0304
 9290TIP3   OH249360   2.062   6.800   6.102 -0.0742 -0.1578 -0.3538
 9290TIP3    H149361   2.013   6.740   6.158 -0.8246  0.9190  0.1638
 9290TIP3    H249362   2.000   6.870   6.081  0.6553  0.2235 -1.3042
 9291TIP3   OH249363   5.716   3.109   4.291 -0.0946  0.0377  0.6330
 9291TIP3    H149364   5.678   3.022   4.303 -0.0800 -0.2609 -1.2254
 9291TIP3    H249365   5.808   3.092   4.271  0.8251  0.7019  4.0280
 9292TIP3   OH249366   4.949   2.606  14.731  0.1017 -0.0846  0.0268
 9292TIP3    H149367   5.042   2.588  14.714  0.3151  0.7799  0.2274
 9292TIP3    H249368   4.949   2.658  14.811 -0.6840 -1.5370  0.9915
 9293TIP3   OH249369   1.960   3.796  11.284 -0.3688 -0.1986  0.5462
 9293TIP3    H149370   2.019   3.803  11.209  0.9116  0.4530  1.6055
 9293TIP3    H249371   1.892   3.735  11.254 -0.1214  0.3736 -1.2919
 9294TIP3   OH249372   2.151   3.816  17.019 -0.5670  0.0219 -0.3171
 9294TIP3    H149373   2.183   3.731  16.990 -1.1213  0.3010 -1.8500
 9294TIP3    H249374   2.082   3.838  16.955 -3.0368 -0.0760  2.2197
 9295TIP3   OH249375   2.071   2.638   2.630 -0.7822 -0.0813 -0.2529
 9295TIP3    H149376   1.995   2.579   2.626 -1.8319  1.0149  2.6258
 9295TIP3    H249377   2.033   2.725   2.639  0.8127  0.4354  1.6582
 9296TIP3   OH249378   3.286   4.401  12.820  0.8375  0.2258  0.0015
 9296TIP3    H149379   3.226   4.464  12.859 -0.6611 -1.1684  0.0030
 9296TIP3    H249380   3.290   4.425  12.727 -0.2833 -0.0814 -0.1382
 9297TIP3   OH249381   3.352   6.813  14.023  0.1653  0.2500 -0.1131
 9297TIP3    H149382   3.355   6.811  14.119  3.2391  1.8216 -0.1068
 9297TIP3    H249383   3.299   6.890  14.003  1.3956  1.2514  0.3733
 9298TIP3   OH249384   0.205   5.462  11.557  0.1771  0.5783  0.4655
 9298TIP3    H149385   0.227   5.552  11.585  1.1365  0.6461 -0.4691
 9298TIP3    H249386   0.146   5.474  11.483  3.1176  0.5421 -1.9984
 9299TIP3   OH249387   6.699   3.086   3.688  0.3028 -0.0718  0.2481
 9299TIP3    H149388   6.635   3.040   3.742  0.4581  0.1384  0.6090
 9299TIP3    H249389   6.766   3.020   3.669 -0.2792 -0.4454 -0.5698
 9300TIP3   OH249390   0.975   2.386   3.686  0.0996  0.5020  0.3908
 9300TIP3    H149391   1.053   2.359   3.636 -0.2205  1.4448 -0.6467
 9300TIP3    H249392   0.924   2.306   3.696  1.6714 -0.3402  1.9537
 9301TIP3   OH249393   0.822   3.242  11.553 -0.4781 -0.3083  0.6588
 9301TIP3    H149394   0.902   3.293  11.540  0.0143 -0.8922  1.3961
 9301TIP3    H249395   0.830   3.205  11.641 -1.6958 -0.1275  0.8507
 9302TIP3   OH249396   2.288   3.815   1.112  0.1723 -0.1480  0.2997
 9302TIP3    H149397   2.218   3.764   1.072 -0.7979  1.8866 -0.6688
 9302TIP3    H249398   2.249   3.853   1.190  0.6253 -0.1159  0.5150
 9303TIP3   OH249399   1.171   1.981   1.298  0.2734  0.3136  0.2735
 9303TIP3    H149400   1.107   2.052   1.290  0.7526  0.6156 -0.9218
 9303TIP3    H249401   1.169   1.958   1.391 -2.5320 -0.5603  0.0593
 9304TIP3   OH249402   4.714   4.628   3.562 -0.0385 -0.6032 -0.1325
 9304TIP3    H149403   4.620   4.612   3.559 -0.1971  0.4612 -1.3990
 9304TIP3    H249404   4.753   4.542   3.577 -1.2533 -0.9101  1.3124
 9305TIP3   OH249405   0.167   5.448  10.993  0.3589  0.1867  0.0863
 9305TIP3    H149406   0.095   5.470  11.053 -0.9552 -0.0782 -1.3604
 9305TIP3    H249407   0.152   5.503  10.916  1.6569  0.0407 -0.2875
 9306TIP3   OH249408   2.383   3.898   2.292  0.1511  0.1910 -0.1477
 9306TIP3    H149409   2.395   3.925   2.383 -0.7296  0.8548 -0.2203
 9306TIP3    H249410   2.405   3.976   2.241  1.4707 -0.4268 -0.5571
 9307TIP3   OH249411   6.804   2.329   3.899  0.4647 -0.1342 -0.3135
 9307TIP3    H149412   6.713   2.301   3.893  0.3585  0.6007 -2.6335
 9307TIP3    H249413   6.802   2.423   3.879  1.5549  0.2402  1.2215
 9308TIP3   OH249414   4.367   0.846   4.437  0.5025 -0.2855  0.5803
 9308TIP3    H149415   4.363   0.914   4.369  1.7934  0.7710  1.5349
 9308TIP3    H249416   4.282   0.803   4.432 -0.8077  2.1504  0.6975
 9309TIP3   OH249417   1.235   0.261  11.371  0.2146 -0.8351 -0.3564
 9309TIP3    H149418   1.151   0.279  11.413 -0.1559 -1.3427 -0.8705
 9309TIP3    H249419   1.266   0.180  11.413  0.5398 -0.5434 -0.0292
 9310TIP3   OH249420   6.735   0.817  11.675 -0.3925 -0.3954  0.5502
 9310TIP3    H149421   6.814   0.869  11.659  0.8883 -2.3564  0.3119
 9310TIP3    H249422   6.767   0.728  11.686 -2.4986 -1.0686  1.4497
 9311TIP3   OH249423   2.942   1.617  13.856  0.3725 -0.0776  0.1833
 9311TIP3    H149424   2.874   1.555  13.829 -0.1059  0.8352 -0.7551
 9311TIP3    H249425   3.022   1.565  13.857  0.0941 -0.5676 -1.2400
 9312TIP3   OH249426   3.148   4.870  15.229 -0.2545 -0.3237 -0.8377
 9312TIP3    H149427   3.178   4.860  15.139 -1.5807  2.2566 -1.6411
 9312TIP3    H249428   3.055   4.891  15.221 -0.8570 -1.9800  1.2609
 9313TIP3   OH249429   0.689   5.783   3.585 -0.1687 -0.5082  0.1716
 9313TIP3    H149430   0.642   5.833   3.518 -0.1362  0.4526  0.8491
 9313TIP3    H249431   0.646   5.698   3.586 -1.4797  0.1374  0.3166
 9314TIP3   OH249432   1.735   1.781   5.016 -0.3313 -0.0863 -0.4264
 9314TIP3    H149433   1.811   1.777   5.073  0.1219 -0.1282 -1.0237
 9314TIP3    H249434   1.668   1.827   5.067  0.4345  0.8794 -0.2814
 9315TIP3   OH249435   1.395   5.640   0.409 -0.4993 -0.0661 -0.6427
 9315TIP3    H149436   1.345   5.702   0.357  0.0777  0.8021 -0.1873
 9315TIP3    H249437   1.381   5.556   0.366 -4.5790 -0.3708  1.0460
 9316TIP3   OH249438   3.249   0.937   3.663 -0.6225 -0.2412 -0.5670
 9316TIP3    H149439   3.243   0.994   3.586  0.2187 -0.3120 -0.6908
 9316TIP3    H249440   3.159   0.931   3.695 -0.7453  1.0554 -0.6181
 9317TIP3   OH249441   4.862   5.926   2.273 -0.1563  0.4807  0.1475
 9317TIP3    H149442   4.846   6.001   2.330  0.4055 -0.1699  1.1753
 9317TIP3    H249443   4.784   5.871   2.283  0.9414 -0.7908  2.1550
 9318TIP3   OH249444   0.978   4.963  12.148 -0.2050  0.5732  0.3045
 9318TIP3    H149445   0.961   4.891  12.088  0.1206 -0.1360  1.0562
 9318TIP3    H249446   0.903   4.965  12.207 -1.6203  2.7110 -1.5043
 9319TIP3   OH249447   1.921   0.691  12.007  0.1091  0.1748 -0.0197
 9319TIP3    H149448   1.984   0.652  12.067 -3.0460 -4.0658  0.7536
 9319TIP3    H249449   1.842   0.704  12.060 -1.5126 -0.0634 -2.3030
 9320TIP3   OH249450   1.605   3.899  14.835  0.8750 -0.8504  0.0608
 9320TIP3    H149451   1.661   3.936  14.903 -0.4655  0.6461  0.3527
 9320TIP3    H249452   1.560   3.826  14.879  0.5837 -0.3678  0.5729
 9321TIP3   OH249453   1.786   0.614  13.134  0.2188 -0.0262  0.0752
 9321TIP3    H149454   1.811   0.547  13.198  1.2371  0.7844  0.5343
 9321TIP3    H249455   1.821   0.582  13.051 -0.8097 -0.9114 -0.0337
 9322TIP3   OH249456   1.958   0.899  16.446 -0.1180  0.1961  0.2030
 9322TIP3    H149457   1.991   0.809  16.456 -1.0878 -0.0781  1.0191
 9322TIP3    H249458   1.959   0.914  16.351  1.4813 -0.1277  0.1567
 9323TIP3   OH249459   6.175   1.874  17.209 -0.1560  0.0622  0.0128
 9323TIP3    H149460   6.173   1.965  17.178  0.5561  1.3205  3.4229
 9323TIP3    H249461   6.089   1.839  17.185  0.0938  1.1385 -2.6469
 9324TIP3   OH249462   3.163   6.374   2.213 -0.1634 -0.6217  0.1052
 9324TIP3    H149463   3.148   6.343   2.302  1.7623 -1.7557  0.0654
 9324TIP3    H249464   3.235   6.319   2.181  1.3409  1.9465 -1.0281
 9325TIP3   OH249465   2.525   2.867  16.553 -0.2226 -0.3794 -1.3324
 9325TIP3    H149466   2.606   2.903  16.590 -0.4879  0.2532 -1.3637
 9325TIP3    H249467   2.532   2.772  16.567  0.3312 -0.2835 -0.9583
 9326TIP3   OH249468   6.592   5.665   0.706  0.5613  0.2224  0.2957
 9326TIP3    H149469   6.527   5.652   0.774  1.7149 -0.8702  1.2112
 9326TIP3    H249470   6.660   5.718   0.746  0.5788  0.7570 -0.4297
 9327TIP3   OH249471   2.053   0.436  12.972  0.1609  0.4258  0.5727
 9327TIP3    H149472   1.976   0.435  12.916 -1.0153 -1.5111  2.1901
 9327TIP3    H249473   2.113   0.372  12.933  0.8055  1.6224 -0.4403
 9328TIP3   OH249474   4.770   3.467   3.924 -0.4267  0.3220  0.0771
 9328TIP3    H149475   4.762   3.404   3.995  1.3600  1.3712  1.2663
 9328TIP3    H249476   4.852   3.443   3.880  0.2491  1.7602  0.5230
 9329TIP3   OH249477   2.361   0.738  15.244 -0.2239 -0.5023  0.4997
 9329TIP3    H149478   2.392   0.807  15.184 -0.4616 -1.2843 -0.5399
 9329TIP3    H249479   2.407   0.659  15.215 -0.5463 -0.9456  1.1871
 9330TIP3   OH249480   4.174   2.616   1.073 -0.0926  0.5774  0.2668
 9330TIP3    H149481   4.250   2.639   1.020  1.0338  0.1721  1.6481
 9330TIP3    H249482   4.153   2.695   1.121  1.9007 -0.3171  2.7579
 9331TIP3   OH249483   6.786   3.324   0.617  0.5802  0.1584 -0.3987
 9331TIP3    H149484   6.781   3.240   0.663 -0.2709  0.8552  0.8085
 9331TIP3    H249485   6.738   3.308   0.535 -1.1309 -0.0427  0.6130
 9332TIP3   OH249486   6.176   3.534  14.923  0.0386  0.2548 -0.1729
 9332TIP3    H149487   6.090   3.565  14.952  1.1894  2.1970  1.3209
 9332TIP3    H249488   6.233   3.550  14.998  2.1706  1.1707 -1.9300
 9333TIP3   OH249489   2.312   0.414  13.546 -0.2756 -0.2135 -0.0545
 9333TIP3    H149490   2.315   0.338  13.605 -0.4779  0.1130  0.3774
 9333TIP3    H249491   2.307   0.489  13.605 -2.0065  0.0494 -0.5201
 9334TIP3   OH249492   4.696   5.036  14.126  0.0795 -0.8585 -0.3854
 9334TIP3    H149493   4.604   5.016  14.143 -0.3835 -0.4013 -2.2686
 9334TIP3    H249494   4.731   4.957  14.085  0.2604 -0.6423 -0.6461
 9335TIP3   OH249495   4.642   1.912   5.179  1.1099 -0.0523 -0.6290
 9335TIP3    H149496   4.581   1.869   5.239 -0.4636  2.5667 -0.2680
 9335TIP3    H249497   4.728   1.897   5.219  0.2872 -0.1437  1.1798
 9336TIP3   OH249498   4.659   1.596   4.668  0.2548 -0.3165  0.2079
 9336TIP3    H149499   4.725   1.529   4.685  0.0036 -0.7254 -0.4371
 9336TIP3    H249500   4.694   1.648   4.596  0.3121  0.0695  0.5075
 9337TIP3   OH249501   2.539   1.134  14.534 -0.1546  0.1424 -0.7062
 9337TIP3    H149502   2.529   1.077  14.610  0.8183  1.4461  0.4174
 9337TIP3    H249503   2.465   1.195  14.539  0.3243  0.6944 -0.4054
 9338TIP3   OH249504   2.514   3.526  11.095  0.5266  0.1238 -0.5461
 9338TIP3    H149505   2.521   3.540  11.000  0.9600  0.0792 -0.5226
 9338TIP3    H249506   2.528   3.433  11.107  2.9966  0.4976 -0.2227
 9339TIP3   OH249507   5.387   0.586  12.567  0.2438 -0.3444 -0.5309
 9339TIP3    H149508   5.476   0.604  12.536  0.8275 -2.1402  0.0099
 9339TIP3    H249509   5.371   0.495  12.541 -1.4962  0.0279 -0.7606
 9340TIP3   OH249510   3.394   5.548  12.309  0.1927 -0.0304  0.3636
 9340TIP3    H149511   3.416   5.507  12.225 -2.1137  0.6984 -0.6512
 9340TIP3    H249512   3.332   5.488  12.350 -0.2309  0.5799  0.6275
 9341TIP3   OH249513   2.000   5.701  13.437 -0.1177  0.0871  0.7495
 9341TIP3    H149514   1.966   5.790  13.443  1.1285  0.6313 -0.1905
 9341TIP3    H249515   2.030   5.692  13.347  0.0258 -1.1948  0.9133
 9342TIP3   OH249516   5.316   2.348  15.321 -0.8007  0.1477  0.2855
 9342TIP3    H149517   5.339   2.441  15.317 -1.1244  0.2175 -0.0359
 9342TIP3    H249518   5.231   2.347  15.366 -0.8119  0.0089  0.2588
 9343TIP3   OH249519   6.188   3.856  15.412  0.2954 -0.0518  0.4768
 9343TIP3    H149520   6.167   3.949  15.405  3.0908  0.5127 -0.9819
 9343TIP3    H249521   6.212   3.843  15.504  3.5601  1.5454 -0.0892
 9344TIP3   OH249522   0.361   3.976  13.494  0.1218  0.0510  0.3552
 9344TIP3    H149523   0.438   3.926  13.468  1.7370  2.6624 -0.0846
 9344TIP3    H249524   0.331   4.018  13.413  0.3698  1.8287  1.1514
 9345TIP3   OH249525   4.441   0.259  12.855  0.8274  0.9652 -0.3604
 9345TIP3    H149526   4.373   0.323  12.837  0.7265  1.6821  2.3934
 9345TIP3    H249527   4.523   0.304  12.834  0.6463  1.2717 -0.4135
 9346TIP3   OH249528   6.464   0.393   3.788 -0.0322  0.2986  0.0588
 9346TIP3    H149529   6.502   0.479   3.766 -1.1665  0.4084 -1.5665
 9346TIP3    H249530   6.501   0.334   3.722 -0.4294 -0.1630  0.2525
 9347TIP3   OH249531   2.788   2.598   0.190 -0.6939  0.1765 -0.0545
 9347TIP3    H149532   2.717   2.658   0.165  0.0706  1.3789  0.6395
 9347TIP3    H249533   2.745   2.513   0.199 -1.6607  0.4602 -1.7806
 9348TIP3   OH249534   1.672   6.542   5.130 -0.1362 -0.2538 -0.0373
 9348TIP3    H149535   1.592   6.555   5.180  0.2813 -0.5514  0.7251
 9348TIP3    H249536   1.682   6.621   5.077 -0.7616 -0.0888  0.0945
 9349TIP3   OH249537   3.994   6.446  11.179 -0.0544 -0.1428  0.1046
 9349TIP3    H149538   3.911   6.473  11.139 -0.1807  0.6477  0.8923
 9349TIP3    H249539   4.004   6.354  11.153 -0.3831  0.2093 -1.3197
 9350TIP3   OH249540   6.220   1.099  11.397  0.0872 -0.2084 -0.3351
 9350TIP3    H149541   6.197   1.074  11.307 -0.6533 -1.8587  0.2876
 9350TIP3    H249542   6.155   1.053  11.451  0.0621  1.3731  0.9930
 9351TIP3   OH249543   2.320   2.542   2.025 -0.0777  0.1156  0.0674
 9351TIP3    H149544   2.304   2.464   2.078 -2.0407 -0.0769 -0.7345
 9351TIP3    H249545   2.273   2.525   1.943  0.0927  1.8098 -0.4126
 9352TIP3   OH249546   4.757   5.628   3.304 -0.0179 -0.1453 -0.4939
 9352TIP3    H149547   4.811   5.700   3.271 -1.2562  1.2818  0.5038
 9352TIP3    H249548   4.763   5.635   3.399 -1.1818 -0.5588 -0.3767
 9353TIP3   OH249549   2.718   4.267   2.245 -0.3849 -0.1123 -0.2042
 9353TIP3    H149550   2.790   4.324   2.273 -1.9782  1.9515 -0.2740
 9353TIP3    H249551   2.762   4.198   2.194  1.5683  1.0011 -0.0951
 9354TIP3   OH249552   5.363   6.743  11.890 -0.1518  0.3631 -0.0273
 9354TIP3    H149553   5.323   6.793  11.819 -0.2071  0.0959 -0.1859
 9354TIP3    H249554   5.394   6.663  11.848  0.4490  0.5206  0.1142
 9355TIP3   OH249555   4.253   3.737   5.304 -0.6163  0.4251 -0.2359
 9355TIP3    H149556   4.334   3.738   5.355 -1.2585  0.7641  0.7901
 9355TIP3    H249557   4.191   3.786   5.357 -1.2113  1.0478 -1.5019
 9356TIP3   OH249558   3.590   4.450  11.031  0.2402 -0.1575  0.3654
 9356TIP3    H149559   3.495   4.466  11.031  0.5108  1.5015  1.5596
 9356TIP3    H249560   3.597   4.354  11.026 -1.4664 -0.2417 -1.3330
 9357TIP3   OH249561   1.260   0.019   5.927  0.1390 -0.0554  0.4991
 9357TIP3    H149562   1.216   0.065   5.855 -1.1689  2.5528  2.8571
 9357TIP3    H249563   1.343  -0.011   5.889 -0.9351  0.4256 -2.3363
 9358TIP3   OH249564   5.277   1.436  13.119  0.4879 -0.2193 -0.2472
 9358TIP3    H149565   5.254   1.524  13.088  1.1150  0.2599  0.6243
 9358TIP3    H249566   5.371   1.440  13.137  0.2997 -0.7045  0.9239
 9359TIP3   OH249567   1.651   1.002   5.735  0.0042  0.3071 -0.2844
 9359TIP3    H149568   1.591   0.952   5.678 -0.8317 -0.0833  0.9206
 9359TIP3    H249569   1.681   0.938   5.799 -0.1538  1.0764  0.5555
 9360TIP3   OH249570   3.879   5.417   2.389  0.3717 -0.1051  0.1746
 9360TIP3    H149571   3.803   5.422   2.332  1.1780 -0.5574 -0.9595
 9360TIP3    H249572   3.875   5.497   2.441 -0.0073  0.6522 -0.9893
 9361TIP3   OH249573   1.527   3.994   5.121  0.3700 -0.1309  0.3140
 9361TIP3    H149574   1.556   3.932   5.054 -0.3422  0.9642 -1.0166
 9361TIP3    H249575   1.431   3.995   5.112  0.3660  0.9823  0.4991
 9362TIP3   OH249576   6.616   3.616   5.241 -0.3925  0.1942 -0.1974
 9362TIP3    H149577   6.614   3.522   5.256 -0.1246  0.3309  0.6914
 9362TIP3    H249578   6.655   3.625   5.154  0.0039 -0.4932 -0.0953
 9363TIP3   OH249579   5.266   5.431  14.101  0.1009 -0.1832 -0.3262
 9363TIP3    H149580   5.182   5.474  14.082  0.3728 -0.0039 -1.1298
 9363TIP3    H249581   5.295   5.471  14.183 -0.9276 -0.7291  0.3033
 9364TIP3   OH249582   5.895   5.164   2.729  0.2167  0.3261  0.2689
 9364TIP3    H149583   5.930   5.249   2.700  1.0270 -0.1211 -0.0978
 9364TIP3    H249584   5.806   5.183   2.759 -0.2354  1.0136 -1.4389
 9365TIP3   OH249585   6.774   2.149   1.894 -0.2197 -0.3322 -0.1556
 9365TIP3    H149586   6.720   2.220   1.859  0.5307 -0.6240 -1.9473
 9365TIP3    H249587   6.728   2.069   1.871  0.6509 -0.5570 -1.1370
 9366TIP3   OH249588   0.046   4.373  15.843 -0.2203  0.0974 -0.3899
 9366TIP3    H149589   0.007   4.291  15.813 -0.7884  0.3427 -0.3170
 9366TIP3    H249590  -0.015   4.408  15.908 -1.1339  1.7180 -2.0652
 9367TIP3   OH249591   3.296   3.316   1.226  0.2137  0.0644 -0.2791
 9367TIP3    H149592   3.204   3.294   1.245  0.4966 -1.3793 -0.4981
 9367TIP3    H249593   3.291   3.396   1.174 -0.7998  1.3665  1.7439
 9368TIP3   OH249594   2.597   1.363  15.931 -0.0419  0.1123 -0.1416
 9368TIP3    H149595   2.527   1.354  15.867 -0.3380  1.2848 -0.0025
 9368TIP3    H249596   2.615   1.274  15.961 -1.0188 -0.2571 -0.6629
 9369TIP3   OH249597   2.048   2.014   0.092 -0.4028 -0.0825 -0.5570
 9369TIP3    H149598   2.032   1.941   0.153  0.7555  0.1466  0.0288
 9369TIP3    H249599   2.100   1.975   0.021 -1.7371 -0.3452 -1.4107
 9370TIP3   OH249600   2.075   4.421   5.789  0.4421 -0.2575  0.3324
 9370TIP3    H149601   2.080   4.348   5.728 -1.0774 -0.0316 -0.0693
 9370TIP3    H249602   1.981   4.436   5.802  0.7371  1.2390  0.8666
 9371TIP3   OH249603   4.507   3.295   4.327  0.1583  0.7554 -0.1612
 9371TIP3    H149604   4.593   3.253   4.331 -0.0266  0.4905  1.2313
 9371TIP3    H249605   4.445   3.226   4.351 -0.3430  1.2489 -0.0185
 9372TIP3   OH249606   5.160   3.907  14.522 -0.5175 -0.3713  0.1095
 9372TIP3    H149607   5.185   3.917  14.430 -0.5624  0.6376  0.2037
 9372TIP3    H249608   5.065   3.897  14.520 -0.3340 -2.2937 -0.0964
 9373TIP3   OH249609   3.723   1.627  10.753  0.1074  0.6254 -0.0555
 9373TIP3    H149610   3.760   1.709  10.788  0.6743  0.6963 -0.8136
 9373TIP3    H249611   3.799   1.576  10.725 -0.1651 -0.6909  1.5306
 9374TIP3   OH249612   4.210   3.645   1.466  0.6410  0.5034  0.1992
 9374TIP3    H149613   4.121   3.648   1.500  0.7722  1.0587  0.5094
 9374TIP3    H249614   4.253   3.577   1.518 -0.2263 -1.4150 -1.5313
 9375TIP3   OH249615   2.481   4.819   1.459 -0.4179  0.2682  0.3125
 9375TIP3    H149616   2.468   4.753   1.527  0.3410 -1.1595 -0.9023
 9375TIP3    H249617   2.576   4.818   1.444 -0.5024  1.0692 -0.2804
 9376TIP3   OH249618   1.403   4.805   2.862 -0.3917 -0.1253 -0.0890
 9376TIP3    H149619   1.360   4.727   2.826  1.7499 -0.3199 -2.4153
 9376TIP3    H249620   1.467   4.771   2.925  0.1792 -0.2564 -0.7234
 9377TIP3   OH249621   1.782   1.945  13.934 -0.0279 -0.1839  0.0758
 9377TIP3    H149622   1.867   1.901  13.937 -0.0990 -0.2757  3.2346
 9377TIP3    H249623   1.804   2.038  13.941 -0.1744 -0.2678  2.0401
 9378TIP3   OH249624   5.212   5.928   0.125 -0.2511 -0.1433 -0.0248
 9378TIP3    H149625   5.238   6.000   0.181 -1.4527 -0.4948  1.0292
 9378TIP3    H249626   5.147   5.966   0.066  2.3100  0.6604 -2.4448
 9379TIP3   OH249627   3.000   6.773   5.251  0.0507  0.1036  0.9094
 9379TIP3    H149628   2.993   6.678   5.259  0.5662  0.1215  1.5526
 9379TIP3    H249629   2.923   6.798   5.199 -0.2803 -0.6216  1.0471
 9380TIP3   OH249630   4.452   5.274   1.118  0.4364 -0.0328 -0.5153
 9380TIP3    H149631   4.454   5.370   1.112  1.2785  0.0459  0.7874
 9380TIP3    H249632   4.542   5.250   1.138 -0.0506 -0.9930  0.5798
 9381TIP3   OH249633   1.043   1.347  14.958 -0.9721 -0.2914 -0.2028
 9381TIP3    H149634   1.105   1.420  14.953 -0.3829 -0.8587 -1.4011
 9381TIP3    H249635   0.976   1.377  15.020 -0.8014  1.3274 -0.7691
 9382TIP3   OH249636   6.506   4.764   0.654  0.0160 -0.0172 -0.1110
 9382TIP3    H149637   6.430   4.822   0.644 -1.2109 -1.1963  1.9799
 9382TIP3    H249638   6.581   4.823   0.656 -1.0992  1.3994  0.6990
 9383TIP3   OH249639   6.170   0.513  15.059 -0.1843  0.0691  0.3121
 9383TIP3    H149640   6.087   0.562  15.063 -1.5260 -2.0594 -0.5895
 9383TIP3    H249641   6.162   0.447  15.128  0.2195 -0.9661 -0.6231
 9384TIP3   OH249642   2.301   1.121  16.033 -0.7651 -0.3249  0.0613
 9384TIP3    H149643   2.290   1.036  15.991 -0.3615 -1.6587  2.5641
 9384TIP3    H249644   2.331   1.101  16.122  1.3574  2.4977  0.0585
 9385TIP3   OH249645   3.567   5.572   3.037 -0.0228 -0.3496  0.1701
 9385TIP3    H149646   3.564   5.666   3.059 -1.6454  0.0400 -1.5852
 9385TIP3    H249647   3.505   5.563   2.965 -0.4405 -2.9284  0.8096
 9386TIP3   OH249648   5.567   5.512   4.228 -0.2291  0.0837  1.0264
 9386TIP3    H149649   5.539   5.572   4.159 -1.1281 -1.4385  0.0284
 9386TIP3    H249650   5.639   5.557   4.272 -0.6367  1.7112  0.0544
 9387TIP3   OH249651   2.359   3.404  14.728 -0.0415 -0.2656  0.1077
 9387TIP3    H149652   2.434   3.421  14.671  0.3406  0.1475  0.7317
 9387TIP3    H249653   2.337   3.312  14.711 -0.2186 -0.0115 -1.0373
 9388TIP3   OH249654   1.925   2.799   4.406  0.5697 -0.0651 -0.1346
 9388TIP3    H149655   1.901   2.816   4.497 -0.3332  0.5434 -0.4808
 9388TIP3    H249656   1.956   2.709   4.406 -1.4699 -0.8014  0.3849
 9389TIP3   OH249657   4.519   5.657   1.828 -0.7091  0.1673  0.1437
 9389TIP3    H149658   4.539   5.700   1.911  3.6486 -2.4553  0.6394
 9389TIP3    H249659   4.580   5.697   1.765 -1.5536 -0.2985 -0.9832
 9390TIP3   OH249660   1.114   1.442   0.342  0.1840 -0.2874  0.6061
 9390TIP3    H149661   1.075   1.513   0.394  1.6023  1.7711 -1.0394
 9390TIP3    H249662   1.179   1.403   0.400 -0.5795 -0.2166  1.5214
 9391TIP3   OH249663   4.089   1.332  14.279  0.1336  0.0382  0.1227
 9391TIP3    H149664   4.146   1.399  14.242 -0.4097  0.8854  0.7991
 9391TIP3    H249665   4.066   1.366  14.365  0.2852 -1.2734  0.6941
 9392TIP3   OH249666   3.846   4.819   5.683 -0.1527  0.0220 -0.3676
 9392TIP3    H149667   3.884   4.765   5.752  0.5642  2.6359  1.4001
 9392TIP3    H249668   3.753   4.823   5.704 -0.0790  0.0781 -0.0429
 9393TIP3   OH249669   1.736   4.338  14.626 -0.1543 -0.2950  0.1651
 9393TIP3    H149670   1.823   4.379  14.625  0.7533 -2.1797 -1.0254
 9393TIP3    H249671   1.725   4.304  14.538 -1.6526 -1.0334  0.6232
 9394TIP3   OH249672   4.078   2.457   6.010  0.4258  0.4492  0.1732
 9394TIP3    H149673   4.063   2.388   6.075 -0.6862 -2.1711 -2.7422
 9394TIP3    H249674   3.996   2.506   6.006  0.1474 -0.0249  0.0454
 9395TIP3   OH249675   1.661   3.716   2.293 -0.2064  0.1298  0.3615
 9395TIP3    H149676   1.595   3.748   2.232  0.8104  2.3192  0.3304
 9395TIP3    H249677   1.651   3.773   2.370  1.9524  0.8749  0.1395
 9396TIP3   OH249678   2.551   6.687   4.046  0.3298  0.0445  0.4751
 9396TIP3    H149679   2.600   6.606   4.031  0.8639  0.2224  1.2844
 9396TIP3    H249680   2.472   6.659   4.092 -0.9247 -0.3993 -1.8519
 9397TIP3   OH249681   1.453   4.492  14.344 -0.1523 -0.8317 -0.3567
 9397TIP3    H149682   1.536   4.521  14.382  0.0580  0.4451 -1.7158
 9397TIP3    H249683   1.436   4.408  14.384  0.8306 -0.2185  1.3840
 9398TIP3   OH249684   4.559   4.019  14.842 -0.1973 -0.0595 -0.4441
 9398TIP3    H149685   4.567   3.981  14.929  0.1883  1.4312  0.1764
 9398TIP3    H249686   4.534   4.110  14.857  0.2499  0.3151 -1.8716
 9399TIP3   OH249687   4.966   3.511  16.963 -0.1639 -0.2396  0.1520
 9399TIP3    H149688   4.929   3.588  16.919  0.9052  0.1197 -0.1246
 9399TIP3    H249689   4.962   3.442  16.897 -0.3132 -0.1903  0.1111
 9400TIP3   OH249690   3.190   0.067   0.253  0.0179  0.2031 -0.2773
 9400TIP3    H149691   3.224   0.049   0.341  0.4073  0.2512 -0.4175
 9400TIP3    H249692   3.266   0.097   0.204 -0.7856  3.1775  0.1958
 9401TIP3   OH249693   4.747   5.260  12.629 -0.2749  0.8408  0.1528
 9401TIP3    H149694   4.701   5.193  12.680 -0.1950  0.3858 -0.3674
 9401TIP3    H249695   4.756   5.222  12.542  0.3590  1.2621  0.0298
 9402TIP3   OH249696   3.990   5.355  15.180  0.5912 -0.4723 -0.0043
 9402TIP3    H149697   3.995   5.314  15.266  0.5820 -0.1232  0.1650
 9402TIP3    H249698   4.024   5.289  15.120  1.6705 -0.2976  0.4070
 9403TIP3   OH249699   4.962   0.744  14.168  0.1217 -0.1425  0.5537
 9403TIP3    H149700   4.882   0.710  14.206 -1.4619  1.1100 -1.5487
 9403TIP3    H249701   4.999   0.800  14.236 -2.3177  1.5465  0.5530
 9404TIP3   OH249702   6.322   4.317  15.309  0.3155  0.5276  0.4085
 9404TIP3    H149703   6.264   4.367  15.366  0.1201  1.0764 -0.2709
 9404TIP3    H249704   6.345   4.239  15.361 -0.0186  0.9223  1.1544
 9405TIP3   OH249705   0.289   0.815   1.181 -0.2523  0.1246 -0.0753
 9405TIP3    H149706   0.321   0.729   1.207  1.2826  0.8784  0.5740
 9405TIP3    H249707   0.366   0.859   1.144 -1.0775  1.1321 -0.6143
 9406TIP3   OH249708   3.845   3.097  13.306 -0.1432  0.0990  0.1629
 9406TIP3    H149709   3.881   3.080  13.393  0.4541  2.9187  0.5077
 9406TIP3    H249710   3.908   3.056  13.246 -0.2249 -1.3067  1.0143
 9407TIP3   OH249711   6.132   5.645   0.692 -0.0890  0.0084 -0.2649
 9407TIP3    H149712   6.046   5.673   0.660 -1.0133 -1.2604  1.0429
 9407TIP3    H249713   6.155   5.710   0.758  1.2808  1.9595 -2.6037
 9408TIP3   OH249714   3.963   3.355  15.681 -0.5044 -0.1311 -0.2639
 9408TIP3    H149715   4.039   3.412  15.689  0.0245 -0.5333 -2.1131
 9408TIP3    H249716   3.936   3.364  15.589 -0.6619 -2.5237 -0.4746
 9409TIP3   OH249717   0.402   1.734   1.373  0.4023  0.5598 -0.0639
 9409TIP3    H149718   0.371   1.823   1.362 -1.4671 -0.2410 -1.6753
 9409TIP3    H249719   0.324   1.684   1.399  0.6278 -1.1980 -2.5827
 9410TIP3   OH249720   6.530   6.617   2.271  0.4552 -0.0984  0.0273
 9410TIP3    H149721   6.586   6.679   2.224  0.5619 -1.3005 -1.4794
 9410TIP3    H249722   6.477   6.577   2.203 -1.9894  0.7388  1.3919
 9411TIP3   OH249723   5.091   4.448  10.350 -0.0735  0.8145 -0.0028
 9411TIP3    H149724   5.071   4.387  10.422 -0.3839 -0.8474 -1.4454
 9411TIP3    H249725   5.016   4.441  10.292  1.0802  0.6009 -1.4902
 9412TIP3   OH249726   5.390   2.900  13.093  0.1228 -0.4419 -0.2707
 9412TIP3    H149727   5.426   2.974  13.044  0.0426  0.0413  0.3839
 9412TIP3    H249728   5.315   2.938  13.139  0.6449 -0.7142  0.8053
 9413TIP3   OH249729   5.616   3.234  14.209 -0.6140 -0.1266  0.1947
 9413TIP3    H149730   5.563   3.194  14.278 -1.0333  0.3628  0.1557
 9413TIP3    H249731   5.623   3.165  14.142 -0.4781 -0.4893  0.5801
 9414TIP3   OH249732   3.633   0.530  13.888 -0.1788  0.5051  0.0223
 9414TIP3    H149733   3.607   0.622  13.883  0.3547  0.7782  1.9005
 9414TIP3    H249734   3.714   0.530  13.940 -0.0832 -0.9977 -0.0926
 9415TIP3   OH249735   4.558   4.105   1.308  0.6218 -0.3076 -0.1012
 9415TIP3    H149736   4.475   4.152   1.307  0.8644  0.1508  1.0625
 9415TIP3    H249737   4.625   4.173   1.313  1.1229 -0.6368 -1.8380
 9416TIP3   OH249738   4.306   3.967  12.040  0.3994 -0.2422  0.7043
 9416TIP3    H149739   4.295   3.879  12.077 -1.6207 -0.4131 -0.1938
 9416TIP3    H249740   4.400   3.984  12.043  1.0842 -3.3411 -1.1520
 9417TIP3   OH249741   4.703   3.100   2.819  0.0696  0.1855 -0.1356
 9417TIP3    H149742   4.612   3.119   2.795 -0.1199 -0.3497  0.1412
 9417TIP3    H249743   4.741   3.185   2.841 -0.2810  0.4472 -0.5321
 9418TIP3   OH249744   5.695   1.162   0.949  0.1068 -0.0682  0.3041
 9418TIP3    H149745   5.728   1.165   0.859  1.5109  0.6330  0.8291
 9418TIP3    H249746   5.632   1.090   0.949  1.8858 -1.6760 -0.6458
 9419TIP3   OH249747   1.152   0.701  13.454 -0.3161  0.0348 -0.0023
 9419TIP3    H149748   1.241   0.733  13.459  0.1197 -0.9830 -1.0229
 9419TIP3    H249749   1.098   0.780  13.446  0.3560  0.7349  2.0151
 9420TIP3   OH249750   2.271   3.085  12.313  0.3924  0.0436  0.1969
 9420TIP3    H149751   2.269   3.071  12.408  1.2302  1.3393  0.4166
 9420TIP3    H249752   2.225   3.010  12.277  1.2532 -1.1698  1.5571
 9421TIP3   OH249753   4.839   2.795   2.835  0.7240  0.6063 -0.0463
 9421TIP3    H149754   4.866   2.883   2.862  1.7294  0.1156  0.6041
 9421TIP3    H249755   4.749   2.787   2.865  0.8121  1.2111  0.3957
 9422TIP3   OH249756   5.865   0.113  12.284 -0.2362  0.5446 -0.4241
 9422TIP3    H149757   5.824   0.175  12.223  4.6088  4.1465 -0.3261
 9422TIP3    H249758   5.844   0.148  12.371 -3.0354 -1.8605 -0.0370
 9423TIP3   OH249759   6.080   6.370   3.474  0.1159 -0.5740  0.2913
 9423TIP3    H149760   6.152   6.360   3.412  1.0441 -1.2220  1.4540
 9423TIP3    H249761   6.059   6.463   3.472  1.5228 -0.2390  0.5260
 9424TIP3   OH249762   6.240   2.852  11.072 -0.6095  0.3324 -0.1262
 9424TIP3    H149763   6.267   2.917  11.136  0.6846  0.6539 -0.9963
 9424TIP3    H249764   6.252   2.894  10.987 -0.9179 -0.6108 -0.6510
 9425TIP3   OH249765   5.562   0.411  15.219  0.5578 -0.1186  0.1602
 9425TIP3    H149766   5.513   0.411  15.301  0.9525 -2.5791  0.4162
 9425TIP3    H249767   5.647   0.449  15.242 -0.0947  1.2364  0.3900
 9426TIP3   OH249768   2.954   3.049   3.083  0.2703 -0.0389  0.1018
 9426TIP3    H149769   2.944   2.960   3.118 -1.2812 -0.3135 -1.0168
 9426TIP3    H249770   2.975   3.036   2.991 -0.1922  0.7548 -0.1187
 9427TIP3   OH249771   0.954   4.497  13.795  0.4528 -0.4485 -0.5463
 9427TIP3    H149772   0.914   4.488  13.881  2.2265 -0.7661  0.2563
 9427TIP3    H249773   0.971   4.591  13.786  0.1100 -0.3919 -0.6438
 9428TIP3   OH249774   0.455   5.272  13.600 -0.3756 -0.2210 -0.2972
 9428TIP3    H149775   0.377   5.241  13.553 -1.3124  0.8433  0.5309
 9428TIP3    H249776   0.482   5.350  13.552 -0.0483 -0.3686 -0.3513
 9429TIP3   OH249777   3.454   3.027   0.118 -0.2694  0.2668  0.3464
 9429TIP3    H149778   3.377   3.006   0.171 -0.6431 -0.7941 -0.5937
 9429TIP3    H249779   3.528   2.997   0.171 -0.5269  0.6837  0.9602
 9430TIP3   OH249780   6.344   4.186   4.000  0.1044 -0.0280 -0.3934
 9430TIP3    H149781   6.393   4.142   4.069 -0.6001 -1.3589 -0.7298
 9430TIP3    H249782   6.253   4.181   4.029  0.0863  2.0390  0.0170
 9431TIP3   OH249783   5.167   4.986  15.593 -0.1769 -0.0959 -0.0222
 9431TIP3    H149784   5.223   5.054  15.555 -0.3972 -0.0355 -0.2388
 9431TIP3    H249785   5.224   4.940  15.654  0.1873 -0.2176 -0.4517
 9432TIP3   OH249786   3.611   3.522  16.053  0.2359  0.0063 -0.0134
 9432TIP3    H149787   3.540   3.581  16.026 -0.5884 -0.3478  1.3205
 9432TIP3    H249788   3.568   3.440  16.075  1.2863 -0.8227 -0.9808
 9433TIP3   OH249789   6.760   0.819   3.640  0.1407 -0.0693  0.7087
 9433TIP3    H149790   6.780   0.802   3.548  0.3470 -0.1470  0.7686
 9433TIP3    H249791   6.767   0.914   3.649 -0.0780 -0.0419  0.5976
 9434TIP3   OH249792   1.706   5.819   5.376  0.4334 -0.3884 -0.2373
 9434TIP3    H149793   1.627   5.868   5.354  0.9990  1.4149  1.5092
 9434TIP3    H249794   1.674   5.736   5.411 -0.6932  0.1789  0.1133
 9435TIP3   OH249795   2.740   1.668  13.364 -0.4163  0.1009 -0.4772
 9435TIP3    H149796   2.657   1.624  13.378 -0.1466  0.4311  2.4787
 9435TIP3    H249797   2.802   1.620  13.419  1.3795 -0.1940 -2.6861
 9436TIP3   OH249798   3.557   2.124   0.162 -0.0491 -0.4511  0.1659
 9436TIP3    H149799   3.494   2.097   0.095  1.0844 -1.3217 -0.5661
 9436TIP3    H249800   3.503   2.149   0.237 -1.2594 -1.4215 -0.3663
 9437TIP3   OH249801   1.451   1.947   4.836  0.0439  0.2281 -0.3037
 9437TIP3    H149802   1.379   1.997   4.875  0.7823  0.3295  0.9424
 9437TIP3    H249803   1.407   1.884   4.779 -1.0577  0.0170  0.7542
 9438TIP3   OH249804   2.764   3.449  14.836 -0.3786  0.3094 -0.3497
 9438TIP3    H149805   2.810   3.528  14.807 -0.2481  1.2350  2.1841
 9438TIP3    H249806   2.731   3.472  14.923 -1.3726 -2.0287 -0.0755
 9439TIP3   OH249807   5.877   3.619   5.433  0.2210  0.4617 -0.1098
 9439TIP3    H149808   5.853   3.539   5.387 -1.0898  0.7553  0.0336
 9439TIP3    H249809   5.802   3.678   5.418  0.1723  0.8619  1.6646
 9440TIP3   OH249810   3.464   3.289   3.382 -0.0234  0.0487  0.3773
 9440TIP3    H149811   3.457   3.260   3.291  2.4117  3.2440 -0.9623
 9440TIP3    H249812   3.523   3.226   3.423  2.3170  0.9197 -1.4863
 9441TIP3   OH249813   3.476   3.526   5.336  0.1416 -0.0014  0.2239
 9441TIP3    H149814   3.414   3.524   5.409 -2.1354 -0.8990 -1.6594
 9441TIP3    H249815   3.433   3.476   5.267  2.9402 -0.5318 -1.2126
 9442TIP3   OH249816   5.867   0.453   0.431  0.0599  0.2029  0.0730
 9442TIP3    H149817   5.949   0.500   0.419 -0.1158  0.7021  0.8469
 9442TIP3    H249818   5.815   0.477   0.354  0.1503  0.8973  0.2265
 9443TIP3   OH249819   4.460   0.669  16.639 -0.5813  0.0225 -0.4864
 9443TIP3    H149820   4.444   0.626  16.555 -0.8785  0.7223 -0.7928
 9443TIP3    H249821   4.554   0.657  16.654 -0.3101  0.8459 -1.4595
 9444TIP3   OH249822   3.492   2.344  14.987  0.7031 -0.0988 -0.4988
 9444TIP3    H149823   3.481   2.433  15.021  1.8449 -0.6331  1.3309
 9444TIP3    H249824   3.404   2.314  14.969  0.1750  0.7490  0.5882
 9445TIP3   OH249825   5.438   2.304  16.512  0.1475 -0.7118  0.1812
 9445TIP3    H149826   5.361   2.303  16.454  1.1543 -0.3890 -1.1899
 9445TIP3    H249827   5.448   2.213  16.540 -1.1727 -0.6276  0.9666
 9446TIP3   OH249828   5.044   1.788  11.290 -0.1444  0.1526 -0.5227
 9446TIP3    H149829   5.100   1.769  11.214 -0.4642  1.4413 -1.0993
 9446TIP3    H249830   5.089   1.859  11.335  1.3256 -2.2378  1.9037
 9447TIP3   OH249831   3.887   1.573   0.421  0.7743  0.4622  0.0068
 9447TIP3    H149832   3.938   1.650   0.446 -0.2779  0.7715  1.2896
 9447TIP3    H249833   3.932   1.500   0.464  1.3482  0.4589 -0.5999
 9448TIP3   OH249834   2.138   3.589  11.828 -0.2294 -0.4614 -0.3147
 9448TIP3    H149835   2.205   3.537  11.873 -1.1720 -1.0631  0.3964
 9448TIP3    H249836   2.096   3.528  11.768 -1.6678 -0.6631  0.8664
 9449TIP3   OH249837   2.669   2.394  16.456  0.4082 -0.1829  0.0979
 9449TIP3    H149838   2.591   2.422  16.506  0.9681  0.2341  0.7452
 9449TIP3    H249839   2.715   2.475  16.436 -0.2278 -0.2662 -1.8326
 9450TIP3   OH249840   6.475   1.970  16.480  0.0138  0.0833 -0.4683
 9450TIP3    H149841   6.469   1.950  16.574 -1.1455 -0.5256 -0.6563
 9450TIP3    H249842   6.533   2.046  16.475  1.0759 -0.6287  0.6349
 9451TIP3   OH249843   0.105   4.630   5.984 -0.0371 -0.6152  0.1182
 9451TIP3    H149844   0.088   4.719   6.015 -0.7432 -0.3149 -1.1279
 9451TIP3    H249845   0.021   4.586   5.990  0.4535 -1.4214  1.3860
 9452TIP3   OH249846   6.231   2.155   5.476  0.1150  0.6780  0.0658
 9452TIP3    H149847   6.294   2.093   5.511  0.6535  0.2985 -1.5740
 9452TIP3    H249848   6.157   2.101   5.447  1.3342  0.6105 -3.0081
 9453TIP3   OH249849   6.339   6.584   4.817  0.4312  0.4230 -0.0358
 9453TIP3    H149850   6.418   6.575   4.870 -0.5430  0.2260  1.4360
 9453TIP3    H249851   6.315   6.676   4.825 -0.6217  0.0641  1.2543
 9454TIP3   OH249852   2.558   6.349  14.329 -0.1257 -0.1965 -0.0412
 9454TIP3    H149853   2.510   6.347  14.411  0.9965  0.3459  0.6456
 9454TIP3    H249854   2.548   6.439  14.297  0.8321  0.0686  0.3681
 9455TIP3   OH249855   5.895   0.522  15.039  0.0895  0.6196 -0.2076
 9455TIP3    H149856   5.854   0.448  14.993 -1.0767  1.8271 -1.1556
 9455TIP3    H249857   5.891   0.498  15.131 -1.0627 -0.1313 -0.4419
 9456TIP3   OH249858   6.404   4.690   2.640 -0.3659  0.1791  0.4014
 9456TIP3    H149859   6.324   4.739   2.621  1.4163  3.2356  0.5628
 9456TIP3    H249860   6.468   4.722   2.577  0.9774 -1.7110  0.7581
 9457TIP3   OH249861   1.866   5.901  15.043  0.0859 -0.0974  0.3413
 9457TIP3    H149862   1.903   5.827  15.090  0.4769 -0.2691 -0.2338
 9457TIP3    H249863   1.776   5.908  15.075 -0.0586 -1.0347  0.1367
 9458TIP3   OH249864   5.092   4.274   3.908 -0.0657 -0.3177  0.3589
 9458TIP3    H149865   5.038   4.224   3.847 -0.7551  0.1832  0.5553
 9458TIP3    H249866   5.053   4.258   3.993 -0.5112  0.8446  0.3760
 9459TIP3   OH249867   2.288   4.121  14.210  0.3931 -0.0336  0.3485
 9459TIP3    H149868   2.255   4.044  14.164  0.4857  0.2989 -0.2733
 9459TIP3    H249869   2.371   4.141  14.167  0.1429  0.6957  0.2030
 9460TIP3   OH249870   5.770   0.236   3.320 -0.9555 -0.5159  1.0061
 9460TIP3    H149871   5.696   0.273   3.368 -1.7662 -0.4087 -0.3014
 9460TIP3    H249872   5.744   0.240   3.228  0.9378  0.1602  0.4523
 9461TIP3   OH249873   4.561   2.713  13.888  0.2666  0.0741 -0.2236
 9461TIP3    H149874   4.563   2.777  13.817  0.4050 -2.4038 -2.5147
 9461TIP3    H249875   4.649   2.718  13.927  0.3529  1.0928 -0.5287
 9462TIP3   OH249876   4.835   3.022   3.242 -0.5412 -0.5368 -0.0108
 9462TIP3    H149877   4.751   2.992   3.208 -0.3077 -0.9600 -0.2300
 9462TIP3    H249878   4.835   2.995   3.334 -0.5645 -0.7150 -0.0620
 9463TIP3   OH249879   0.302   1.756  17.240  0.6293  0.3121  0.0545
 9463TIP3    H149880   0.318   1.692  17.310 -1.6418  1.3638  1.5902
 9463TIP3    H249881   0.225   1.722  17.194  0.4782  1.0273 -0.2203
 9464TIP3   OH249882   1.054   3.817   0.389  0.4538  0.0064 -0.2195
 9464TIP3    H149883   1.002   3.791   0.464  0.8380 -0.6398 -0.1705
 9464TIP3    H249884   1.115   3.744   0.376  0.8826  0.4458 -0.6938
 9465TIP3   OH249885   5.983   4.059   3.839 -0.2235 -0.7624 -0.3352
 9465TIP3    H149886   6.062   4.010   3.862 -1.1901 -3.0511 -1.7224
 9465TIP3    H249887   5.916   4.025   3.898 -0.6023 -0.1257 -0.3945
 9466TIP3   OH249888   5.138   4.435  12.753  0.1148  0.1770  0.0653
 9466TIP3    H149889   5.046   4.462  12.763  0.3202  1.3768 -1.1390
 9466TIP3    H249890   5.174   4.441  12.842 -0.3826  1.9524  0.1785
 9467TIP3   OH249891   4.988   1.716   3.690 -0.9424  0.2798  0.1472
 9467TIP3    H149892   4.922   1.678   3.633  0.6150 -1.8549 -0.3128
 9467TIP3    H249893   5.022   1.792   3.642 -0.7008 -0.6118 -1.1139
 9468TIP3   OH249894   3.267   6.002  17.270 -0.3408  0.0494 -0.1002
 9468TIP3    H149895   3.294   6.056  17.344 -0.6193 -0.2830  0.2439
 9468TIP3    H249896   3.320   5.923  17.276 -0.5795 -0.1089 -0.0823
 9469TIP3   OH249897   3.927   3.064  14.210 -0.2429  0.0467  0.6567
 9469TIP3    H149898   4.004   3.062  14.268 -0.0121 -0.4699  0.3365
 9469TIP3    H249899   3.882   2.982  14.228 -0.7597  0.3774  0.8882
 9470TIP3   OH249900   4.759   1.634   3.553  0.1941  0.4790  0.2073
 9470TIP3    H149901   4.720   1.596   3.632 -0.3550  0.1385 -0.2255
 9470TIP3    H249902   4.799   1.559   3.508  0.4881  0.6713  0.1473
 9471TIP3   OH249903   0.186   1.187  15.093 -0.1488  0.1274  0.8250
 9471TIP3    H149904   0.119   1.251  15.068 -0.5562 -1.1860 -1.5157
 9471TIP3    H249905   0.253   1.239  15.137 -0.9620  2.0221 -0.1290
 9472TIP3   OH249906   3.108   4.258  15.393  0.1373 -0.2755 -0.2978
 9472TIP3    H149907   3.158   4.335  15.365 -0.9175  0.0417 -1.3564
 9472TIP3    H249908   3.156   4.184  15.356 -0.0283  0.0165 -1.1249
 9473TIP3   OH249909   5.440   2.723   5.950  0.0975 -0.3602 -0.1288
 9473TIP3    H149910   5.433   2.690   6.040 -0.6758 -1.1037 -0.4564
 9473TIP3    H249911   5.531   2.704   5.925  0.4827  0.3562  0.6846
 9474TIP3   OH249912   3.055   4.944  15.911  0.7263  0.5571  0.5263
 9474TIP3    H149913   3.012   4.862  15.933  0.9648  0.6380  1.3243
 9474TIP3    H249914   3.132   4.918  15.859  1.3263  0.1991  1.5770
 9475TIP3   OH249915   5.888   4.939  15.459 -0.0177  0.2395 -0.5002
 9475TIP3    H149916   5.800   4.938  15.422 -1.0005  2.2591  1.6596
 9475TIP3    H249917   5.921   5.027  15.442  1.1539 -0.1399 -0.2861
 9476TIP3   OH249918   1.523   3.267   1.320 -0.1083 -0.2103  0.0962
 9476TIP3    H149919   1.530   3.348   1.269 -0.1989 -0.3615 -0.1610
 9476TIP3    H249920   1.613   3.240   1.336 -0.0803 -0.3916 -0.3570
 9477TIP3   OH249921   3.281   3.464  16.822 -0.0894  0.3617 -0.2713
 9477TIP3    H149922   3.279   3.420  16.907  2.5458 -1.3098 -1.0090
 9477TIP3    H249923   3.240   3.402  16.762 -0.0762  0.6641 -0.5911
 9478TIP3   OH249924   3.576   4.056   5.664  0.2389 -0.6526  0.8170
 9478TIP3    H149925   3.481   4.064   5.668  0.2863  0.1541  0.3312
 9478TIP3    H249926   3.608   4.114   5.735  0.2550 -3.5833  3.3105
 9479TIP3   OH249927   0.150   4.774  13.013 -0.0002  0.2075  0.0948
 9479TIP3    H149928   0.123   4.862  12.987  0.5870  0.9179  1.7596
 9479TIP3    H249929   0.097   4.755  13.091  0.9063 -0.2982  0.6019
 9480TIP3   OH249930   4.815   6.534  16.542  0.1978  0.2274 -0.0331
 9480TIP3    H149931   4.871   6.457  16.553  0.2806  0.3667  0.5673
 9480TIP3    H249932   4.730   6.508  16.577  0.1833  0.3574  0.0311
 9481TIP3   OH249933   5.733   4.485  11.932 -0.2840  0.0483 -0.0201
 9481TIP3    H149934   5.758   4.566  11.977  1.5791  1.1827 -3.0087
 9481TIP3    H249935   5.778   4.416  11.980 -0.1681  0.9734  1.2340
 9482TIP3   OH249936   2.750   2.970   2.893  0.1495  0.1675 -0.6936
 9482TIP3    H149937   2.741   3.065   2.894  3.0369  0.4824  2.2249
 9482TIP3    H249938   2.687   2.939   2.958  0.6211  0.2193 -0.2167
 9483TIP3   OH249939   3.455   2.069   5.518  0.4671 -0.3315  0.0309
 9483TIP3    H149940   3.364   2.080   5.492 -0.1113 -1.8446  1.3113
 9483TIP3    H249941   3.489   2.003   5.457 -0.0963 -1.7937  1.2535
 9484TIP3   OH249942   5.682   5.496   1.162 -0.9918 -0.0256  0.3202
 9484TIP3    H149943   5.695   5.432   1.092  0.1256  0.8028 -0.2429
 9484TIP3    H249944   5.710   5.451   1.241  0.6908  0.0769 -0.2072
 9485TIP3   OH249945   6.593   2.707   3.154 -0.5892  0.0127 -0.0003
 9485TIP3    H149946   6.576   2.614   3.164  0.2248  0.0156  1.5783
 9485TIP3    H249947   6.516   2.750   3.193 -1.0571  0.0096 -0.9087
 9486TIP3   OH249948   1.348   3.797   2.418 -0.6123 -0.1122 -0.0249
 9486TIP3    H149949   1.298   3.877   2.434  1.5062  0.8449  2.0330
 9486TIP3    H249950   1.349   3.789   2.322  0.1644  2.9917 -0.3303
 9487TIP3   OH249951   3.586   5.365   5.328  0.0177 -0.2442  0.1057
 9487TIP3    H149952   3.506   5.336   5.371  0.2381 -1.8775 -0.5605
 9487TIP3    H249953   3.570   5.457   5.306 -1.1535 -0.1865  1.1554
 9488TIP3   OH249954   0.260   4.295   2.773 -0.1098 -0.6171 -0.1127
 9488TIP3    H149955   0.276   4.384   2.803  1.3025 -1.2473  1.0720
 9488TIP3    H249956   0.169   4.278   2.796 -0.2754  0.3895 -0.0146
 9489TIP3   OH249957   5.292   1.383   3.862 -0.0771  0.0377 -0.0298
 9489TIP3    H149958   5.312   1.457   3.805 -0.9391  0.1370 -0.2063
 9489TIP3    H249959   5.237   1.420   3.931 -0.3820 -0.4072 -0.0326
 9490TIP3   OH249960   6.405   1.756  11.385  0.6405 -0.1362 -0.2607
 9490TIP3    H149961   6.419   1.757  11.480  1.2062  1.2648 -0.3486
 9490TIP3    H249962   6.493   1.758  11.348  0.3926  1.7971 -0.8056
 9491TIP3   OH249963   3.016   4.751  14.874  0.1427  0.2420 -0.6117
 9491TIP3    H149964   2.985   4.697  14.802  0.6299  0.0543 -0.6859
 9491TIP3    H249965   3.108   4.727  14.884  0.1053  0.3386  0.0046
 9492TIP3   OH249966   2.458   5.904   5.751  0.2144 -0.4897 -0.3105
 9492TIP3    H149967   2.475   5.816   5.785  3.3724 -0.4930 -1.7050
 9492TIP3    H249968   2.456   5.959   5.829  0.8823 -1.4226  0.3837
 9493TIP3   OH249969   3.311   0.030  14.498  0.6156 -0.2608 -0.2102
 9493TIP3    H149970   3.392   0.057  14.541  0.9685 -1.5481 -0.0284
 9493TIP3    H249971   3.258  -0.007  14.568  0.1730 -0.1040 -0.4581
 9494TIP3   OH249972   5.974   2.655  16.329  0.6530 -0.4062 -0.1617
 9494TIP3    H149973   5.997   2.678  16.238 -0.0645 -2.0837 -0.7952
 9494TIP3    H249974   6.025   2.716  16.382  1.7624  0.0418 -1.6767
 9495TIP3   OH249975   0.867   3.938  11.715  0.5536 -0.6782 -0.0253
 9495TIP3    H149976   0.896   3.855  11.753  0.8141 -0.3477  0.5091
 9495TIP3    H249977   0.795   3.966  11.771 -0.9189 -1.5617 -1.4284
 9496TIP3   OH249978   3.345   3.684   1.401  0.0780 -0.0368  0.3478
 9496TIP3    H149979   3.376   3.740   1.330 -1.1369  1.2191  0.7822
 9496TIP3    H249980   3.272   3.635   1.362  1.1002 -1.3049 -0.0151
 9497TIP3   OH249981   3.721   0.018  12.015 -0.5110  0.3371 -0.6818
 9497TIP3    H149982   3.697   0.092  11.960  1.4539  1.6111  0.1357
 9497TIP3    H249983   3.638  -0.025  12.035 -1.3666  0.3334 -3.9076
 9498TIP3   OH249984   0.001   5.065  13.209  0.1467 -0.2250 -0.1452
 9498TIP3    H149985   0.004   5.030  13.297  2.1208 -0.3624 -0.2448
 9498TIP3    H249986  -0.072   5.021  13.167 -0.2546 -0.7920  1.1497
 9499TIP3   OH249987   0.967   5.397  13.722  0.0909  0.2399 -0.1574
 9499TIP3    H149988   1.041   5.384  13.782 -0.3550 -0.3092  0.2790
 9499TIP3    H249989   0.931   5.309  13.709 -2.4288  0.8591  2.1501
 9500TIP3   OH249990   4.603   6.000   5.603 -0.3360  0.0987 -0.0475
 9500TIP3    H149991   4.632   5.954   5.681 -1.7435 -1.4561 -0.4156
 9500TIP3    H249992   4.664   5.974   5.535 -0.0047  0.2672  0.1864
 9501TIP3   OH249993   2.767   2.771  12.935 -0.2246  0.4854  0.1002
 9501TIP3    H149994   2.724   2.685  12.946 -0.7677  0.5706 -1.2256
 9501TIP3    H249995   2.855   2.750  12.904 -0.1263  0.3949  0.4315
 9502TIP3   OH249996   3.762   4.946   6.107  0.2377  0.4596  0.6995
 9502TIP3    H149997   3.694   4.883   6.129 -0.6491  0.0312 -2.8623
 9502TIP3    H249998   3.844   4.896   6.114 -0.2269 -0.3273  0.5988
 9503TIP3   OH249999   4.828   0.232  12.375 -0.0527 -0.1151 -0.2672
 9503TIP3    H150000   4.819   0.190  12.460 -1.3532  1.5404  0.4283
 9503TIP3    H250001   4.743   0.273  12.359  1.0395  1.8760 -1.1107
 9504TIP3   OH250002   3.034   1.493  11.121 -0.5789 -0.0554 -0.3634
 9504TIP3    H150003   3.046   1.566  11.181 -1.6449  0.0427 -0.2551
 9504TIP3    H250004   3.035   1.533  11.034  2.0122 -0.3293 -0.5011
 9505TIP3   OH250005   5.287   6.735   0.601  0.1431  0.0568  0.1511
 9505TIP3    H150006   5.192   6.743   0.613 -0.4319 -3.0849 -1.7291
 9505TIP3    H250007   5.322   6.728   0.690 -1.5855 -0.7280  0.7886
 9506TIP3   OH250008   3.670   0.652  11.682 -0.3802  0.1329 -0.1504
 9506TIP3    H150009   3.697   0.563  11.657 -2.8296 -0.4746 -0.6898
 9506TIP3    H250010   3.614   0.681  11.610 -1.2385  1.3384  0.9912
 9507TIP3   OH250011   6.444   5.567  13.257 -0.0867  0.5606 -0.5178
 9507TIP3    H150012   6.439   5.479  13.295  0.6518 -0.0524 -1.8321
 9507TIP3    H250013   6.353   5.594  13.248 -0.3434 -0.4459 -0.9832
 9508TIP3   OH250014   0.377   1.981  12.805  0.1136 -0.6897 -0.1057
 9508TIP3    H150015   0.320   1.960  12.879  0.5424 -0.1432  0.3891
 9508TIP3    H250016   0.413   1.897  12.777  0.4861 -0.8218  0.7511
 9509TIP3   OH250017   2.752   6.218  13.324 -0.1548 -0.4105  0.3488
 9509TIP3    H150018   2.660   6.245  13.324  0.0765  0.3994 -0.7200
 9509TIP3    H250019   2.751   6.128  13.356 -1.1257  0.2529  2.2741
 9510TIP3   OH250020   5.956   5.313  13.162 -0.7002  0.0619 -0.2029
 9510TIP3    H150021   6.043   5.299  13.124 -0.0001  0.8528  1.1039
 9510TIP3    H250022   5.909   5.364  13.096  0.5867  1.6324  0.0887
 9511TIP3   OH250023   5.569   3.548   2.034  0.4654  0.0027  0.3293
 9511TIP3    H150024   5.644   3.488   2.033  0.8143  0.4295  0.9573
 9511TIP3    H250025   5.608   3.635   2.043  0.0948  0.5283 -2.5211
 9512TIP3   OH250026   1.189   4.015   2.353  0.3871  0.3696  0.0443
 9512TIP3    H150027   1.113   4.039   2.405  2.4695  3.6064  1.7412
 9512TIP3    H250028   1.189   4.078   2.281  0.3352 -0.9698 -1.1711
 9513TIP3   OH250029   1.016   2.967   2.660 -0.4167 -0.2061  0.0924
 9513TIP3    H150030   1.042   2.974   2.752 -0.6318 -1.3774  0.2469
 9513TIP3    H250031   1.053   3.045   2.619  0.0848  0.0837  1.0742
 9514TIP3   OH250032   0.962   5.469  14.066  0.1070  0.4571 -0.7506
 9514TIP3    H150033   0.928   5.380  14.069  1.7812 -0.1580  0.1754
 9514TIP3    H250034   0.885   5.523  14.047 -0.6602 -1.3197 -2.9283
 9515TIP3   OH250035   4.593   1.733  14.602 -0.2376  0.2408 -0.2268
 9515TIP3    H150036   4.562   1.779  14.525  2.0718 -0.3188 -1.5243
 9515TIP3    H250037   4.520   1.677  14.628 -0.5713 -0.6035 -2.8462
 9516TIP3   OH250038   4.256   2.725   2.927 -0.0085 -0.2774 -0.2700
 9516TIP3    H150039   4.185   2.784   2.903  0.2430 -0.2869 -1.0451
 9516TIP3    H250040   4.306   2.714   2.846  0.0221 -1.4335 -0.1000
 9517TIP3   OH250041   1.130   4.103   5.689 -0.0445  0.2642  0.5798
 9517TIP3    H150042   1.067   4.173   5.674 -0.3172  0.6491  3.2460
 9517TIP3    H250043   1.216   4.143   5.671 -0.3068  0.8181  0.5567
 9518TIP3   OH250044   0.199   1.297  15.501 -0.0923  0.5810  0.4045
 9518TIP3    H150045   0.235   1.356  15.567 -1.1383 -1.1488  2.5848
 9518TIP3    H250046   0.118   1.340  15.472  1.0136  1.9542 -0.7073
 9519TIP3   OH250047   0.238   3.624  13.611  0.1188  0.2541 -0.2361
 9519TIP3    H150048   0.284   3.607  13.529  1.1589  2.1923 -0.0831
 9519TIP3    H250049   0.146   3.629  13.587  0.2997 -0.3992 -1.0737
 9520TIP3   OH250050   3.623   2.537  15.737 -0.3774 -0.3188 -0.4217
 9520TIP3    H150051   3.679   2.614  15.735 -2.2753  1.2276  2.4148
 9520TIP3    H250052   3.556   2.555  15.671 -0.7482  0.4424  0.1491
 9521TIP3   OH250053   0.816   6.434  13.165 -0.4464 -0.1195  0.5744
 9521TIP3    H150054   0.732   6.443  13.119  0.4746 -0.6684 -1.2323
 9521TIP3    H250055   0.875   6.494  13.120  0.4662 -0.6342  1.0721
 9522TIP3   OH250056   0.702   3.802   6.745 -0.2885  0.2472 -0.2376
 9522TIP3    H150057   0.768   3.859   6.707  1.1489  0.8631  2.9741
 9522TIP3    H250058   0.626   3.859   6.761 -0.3633  0.3121 -0.8280
 9523TIP3   OH250059   2.668   3.703   4.300 -0.1168 -0.4840  0.0057
 9523TIP3    H150060   2.654   3.671   4.211 -1.1538 -2.2794  0.7590
 9523TIP3    H250061   2.755   3.671   4.324  0.6782  1.0536 -0.7734
 9524TIP3   OH250062   4.769   2.985  13.489  0.5582  0.4975 -0.0795
 9524TIP3    H150063   4.856   2.946  13.497 -0.7827 -2.5146  0.5083
 9524TIP3    H250064   4.780   3.074  13.523  2.4413 -1.2555  4.2372
 9525TIP3   OH250065   2.882   4.864  11.121  0.1475  0.2299 -0.4348
 9525TIP3    H150066   2.798   4.910  11.133  1.7918  2.9034  1.2240
 9525TIP3    H250067   2.910   4.842  11.209  1.4810 -0.1248 -0.9355
 9526TIP3   OH250068   1.914   1.005  12.628 -0.3275  0.1675 -0.1056
 9526TIP3    H150069   1.832   0.974  12.589 -0.0842 -0.8287  0.1741
 9526TIP3    H250070   1.895   1.011  12.722 -0.4358  1.0728 -0.1799
 9527TIP3   OH250071   5.928   0.104  16.747 -0.0562  0.3994  0.4591
 9527TIP3    H150072   5.937   0.124  16.654 -0.7459 -0.3172  0.2370
 9527TIP3    H250073   5.986   0.029  16.761 -0.0632  0.4163  0.5759
 9528TIP3   OH250074   1.220   0.658   0.953  0.8911 -0.4540  0.4534
 9528TIP3    H150075   1.125   0.657   0.935  0.8426  0.9167  0.5930
 9528TIP3    H250076   1.239   0.569   0.982  0.4494 -2.0554 -3.7691
 9529TIP3   OH250077   6.215   6.158   2.915 -0.0224 -0.4936  0.2149
 9529TIP3    H150078   6.305   6.129   2.900  0.2575 -0.5104  1.9257
 9529TIP3    H250079   6.163   6.103   2.856  1.0724 -0.4844 -0.7783
 9530TIP3   OH250080   0.767   1.440   5.422 -0.7695  0.1133 -0.8590
 9530TIP3    H150081   0.687   1.478   5.459 -0.3334  1.2279 -1.0426
 9530TIP3    H250082   0.737   1.365   5.371 -1.5062 -0.6346  0.6731
 9531TIP3   OH250083   4.077   5.505   4.756  0.2624  0.4006  0.2930
 9531TIP3    H150084   4.153   5.558   4.730 -0.1639  0.8726 -0.0064
 9531TIP3    H250085   4.031   5.558   4.821 -0.7533  0.8879 -0.7897
 9532TIP3   OH250086   6.645   4.118  14.766  0.1006  0.0009 -0.0186
 9532TIP3    H150087   6.636   4.213  14.776 -0.0287 -0.1957  1.9772
 9532TIP3    H250088   6.715   4.094  14.828  0.6658 -1.0997 -1.0650
 9533TIP3   OH250089   4.512   2.806  11.395 -0.1391 -0.0107  0.2635
 9533TIP3    H150090   4.531   2.881  11.452 -1.1473 -0.0546  0.6616
 9533TIP3    H250091   4.597   2.782  11.358  0.1775  1.4184  0.0265
 9534TIP3   OH250092   5.767   0.797   4.724 -0.2851  0.1025  0.0224
 9534TIP3    H150093   5.744   0.704   4.727 -3.1092  0.7803  2.0871
 9534TIP3    H250094   5.856   0.801   4.760  0.2873 -1.8820 -1.0790
 9535TIP3   OH250095   6.416   1.844  14.403 -0.9727 -0.4986 -0.1588
 9535TIP3    H150096   6.377   1.907  14.464 -0.0330  0.0732 -0.1369
 9535TIP3    H250097   6.427   1.764  14.455  1.7332  0.6090  1.0273
 9536TIP3   OH250098   3.095   0.399   2.005 -0.2043 -0.2217 -0.8989
 9536TIP3    H150099   3.179   0.364   2.034 -1.0260 -1.9297 -0.4597
 9536TIP3    H250100   3.064   0.454   2.077  0.4424  0.2391 -0.9771
 9537TIP3   OH250101   5.938   0.288  12.734 -0.4304  0.1763  0.6067
 9537TIP3    H150102   6.028   0.320  12.746  0.0296 -0.8821 -0.0061
 9537TIP3    H250103   5.942   0.195  12.756 -1.4856  0.2260  1.0377
 9538TIP3   OH250104   2.210   3.691  15.806 -0.2480  0.5336  0.6578
 9538TIP3    H150105   2.222   3.597  15.818  0.1525  0.3579 -0.9930
 9538TIP3    H250106   2.120   3.708  15.836 -0.7982 -0.6136 -0.3237
 9539TIP3   OH250107   4.809   3.793   3.738  0.6650  0.1087  0.2663
 9539TIP3    H150108   4.762   3.714   3.765 -1.8584  0.6282 -2.3406
 9539TIP3    H250109   4.751   3.864   3.763  1.1924  0.9269 -0.8178
 9540TIP3   OH250110   5.238   4.673   1.456 -0.1079 -0.0005  0.1737
 9540TIP3    H150111   5.163   4.698   1.510 -1.4534 -0.4687 -1.4439
 9540TIP3    H250112   5.281   4.603   1.505 -0.4300  0.6186  1.3512
 9541TIP3   OH250113   6.601   3.794   4.599  0.0896 -0.2404  0.4851
 9541TIP3    H150114   6.550   3.765   4.524  1.3625 -0.6372 -0.2483
 9541TIP3    H250115   6.581   3.888   4.606  1.1978  0.1796 -1.3967
 9542TIP3   OH250116   4.579   1.992   5.484  0.2282  0.5954 -0.1451
 9542TIP3    H150117   4.540   2.071   5.520  0.0036  1.2978 -1.8444
 9542TIP3    H250118   4.504   1.939   5.456  0.4184  1.4935 -2.4794
 9543TIP3   OH250119   0.580   2.650   4.420 -0.1397  0.5501 -0.6018
 9543TIP3    H150120   0.615   2.616   4.337  0.6281 -1.9418  0.6893
 9543TIP3    H250121   0.656   2.656   4.478 -1.1149 -0.5043  0.8219
 9544TIP3   OH250122   2.145   0.070  11.497 -0.3810 -0.3859  0.2403
 9544TIP3    H150123   2.147   0.120  11.416 -2.2927 -0.8579 -0.1461
 9544TIP3    H250124   2.116  -0.017  11.470 -2.1326 -0.2387  1.5543
 9545TIP3   OH250125   6.509   4.269  17.160 -0.0371  0.3318 -0.3530
 9545TIP3    H150126   6.555   4.300  17.238 -0.5629  0.3090 -0.0337
 9545TIP3    H250127   6.488   4.348  17.111 -1.5069  0.5082  0.5318
 9546TIP3   OH250128   4.187   4.606  11.259 -0.2564  0.1877 -0.8941
 9546TIP3    H150129   4.147   4.645  11.336 -0.6863  0.2808 -1.1638
 9546TIP3    H250130   4.196   4.679  11.197 -0.1795  0.0556 -1.0389
 9547TIP3   OH250131   3.498   4.032  11.884  0.2156 -0.0416  0.3083
 9547TIP3    H150132   3.490   3.994  11.971 -1.2416  0.6733  0.4983
 9547TIP3    H250133   3.506   3.957  11.825 -3.0893 -0.7157  0.6320
 9548TIP3   OH250134   4.814   3.439  16.618 -0.4453  0.2303 -0.6749
 9548TIP3    H150135   4.758   3.375  16.575 -0.8078  2.4648 -3.6509
 9548TIP3    H250136   4.895   3.391  16.637 -1.7158 -1.8252 -0.3438
 9549TIP3   OH250137   0.730   6.803  12.105 -0.8927 -0.5687 -0.3655
 9549TIP3    H150138   0.688   6.756  12.176 -0.5740 -0.4469 -0.0915
 9549TIP3    H250139   0.786   6.738  12.062  0.7582 -0.0834  0.9875
 9550TIP3   OH250140   0.878   3.292  15.465  0.1896 -0.0357  0.0848
 9550TIP3    H150141   0.794   3.249  15.447 -0.2159  1.1785 -1.0370
 9550TIP3    H250142   0.886   3.358  15.396 -0.1710  3.0750  2.8886
 9551TIP3   OH250143   1.580   0.113  14.644 -0.6763  0.4073 -0.3212
 9551TIP3    H150144   1.615   0.061  14.716 -1.1868  1.4628  0.7025
 9551TIP3    H250145   1.629   0.083  14.567  1.4278  0.7918  0.8204
 9552TIP3   OH250146   4.244   6.288  13.842 -0.2241  0.0425 -0.1903
 9552TIP3    H150147   4.286   6.240  13.913 -1.0901 -1.8201 -0.9104
 9552TIP3    H250148   4.271   6.379  13.856  0.9896 -0.5438  1.5192
 9553TIP3   OH250149   1.304   6.718   3.019  0.1482 -0.0903  0.6309
 9553TIP3    H150150   1.210   6.709   3.000  0.4736  0.4374 -1.3080
 9553TIP3    H250151   1.343   6.640   2.980  0.8050  0.8800 -0.6554
 9554TIP3   OH250152   4.075   5.858   4.710  0.1968 -0.3123  0.2495
 9554TIP3    H150153   4.146   5.849   4.774  0.4885 -0.1232 -0.0461
 9554TIP3    H250154   4.097   5.937   4.661 -0.4393 -0.0195  0.4299
 9555TIP3   OH250155   1.450   2.527  14.155  0.0412 -0.2012 -0.2315
 9555TIP3    H150156   1.387   2.471  14.201  0.6147 -1.5269 -1.0519
 9555TIP3    H250157   1.517   2.467  14.122  1.1281  1.0601 -0.3837
 9556TIP3   OH250158   0.878   3.244  16.725 -0.1995  0.6776 -0.1046
 9556TIP3    H150159   0.926   3.237  16.808  2.7761  0.6626 -1.7263
 9556TIP3    H250160   0.907   3.329  16.690 -0.0332 -0.1299 -1.9282
 9557TIP3   OH250161   4.409   4.549   2.529  0.2523  0.0164  0.7568
 9557TIP3    H150162   4.378   4.503   2.451 -0.1899 -1.3362  1.7149
 9557TIP3    H250163   4.445   4.480   2.585  0.2762  0.9270  1.8807
 9558TIP3   OH250164   0.206   6.146   3.495  0.0034  0.2721  0.1351
 9558TIP3    H150165   0.162   6.218   3.539  0.3325 -0.1140  1.1189
 9558TIP3    H250166   0.275   6.119   3.556  0.8256  0.0835 -0.8599
 9559TIP3   OH250167   4.588   3.066   5.098  0.2361 -0.0193  0.0383
 9559TIP3    H150168   4.580   3.055   5.004  1.5808 -2.7314  0.1904
 9559TIP3    H250169   4.501   3.095   5.126 -0.8604 -1.4825 -1.7428
 9560TIP3   OH250170   0.936   2.222   4.493  0.1726 -0.0190  0.5136
 9560TIP3    H150171   1.015   2.259   4.451 -0.3647 -0.2550 -0.7465
 9560TIP3    H250172   0.864   2.273   4.455 -0.2385  0.6272  2.1457
 9561TIP3   OH250173   5.450   3.921   6.035  0.6042  0.4888 -0.1200
 9561TIP3    H150174   5.480   4.003   6.075 -0.1123  0.1350  1.1611
 9561TIP3    H250175   5.399   3.878   6.103 -0.5976 -0.1645 -1.4047
 9562TIP3   OH250176   1.467   0.376  13.607  0.6700 -0.5749 -0.0539
 9562TIP3    H150177   1.436   0.337  13.688 -0.3466 -0.1809 -0.2434
 9562TIP3    H250178   1.463   0.305  13.543 -0.5167 -0.3632 -0.2348
 9563TIP3   OH250179   6.102   3.244   5.685 -0.2624 -0.5727  0.7113
 9563TIP3    H150180   6.097   3.339   5.700  1.1228 -0.5142  0.8908
 9563TIP3    H250181   6.017   3.211   5.712 -1.2531  0.8007 -0.6428
 9564TIP3   OH250182   4.570   1.810  14.162  0.2708  0.5319  0.2748
 9564TIP3    H150183   4.506   1.738  14.158 -0.1131  0.8911 -0.1183
 9564TIP3    H250184   4.533   1.872  14.224 -1.4123  2.2984 -2.3620
 9565TIP3   OH250185   5.055   5.867  14.079  0.1593 -0.0888  0.5150
 9565TIP3    H150186   5.116   5.938  14.060 -0.3332  0.5838  1.4110
 9565TIP3    H250187   5.110   5.790  14.090  0.8120  0.4372  0.9558
 9566TIP3   OH250188   3.855   1.940  16.397 -0.2774  0.2146 -0.4573
 9566TIP3    H150189   3.937   1.961  16.353 -0.9305  1.0744 -1.2855
 9566TIP3    H250190   3.867   1.971  16.487  0.8553 -1.0441 -0.1675
 9567TIP3   OH250191   0.222   6.786  12.113  0.1054  0.0620 -0.5698
 9567TIP3    H150192   0.214   6.851  12.183  2.4573  0.2344 -0.4091
 9567TIP3    H250193   0.225   6.702  12.158 -1.6154 -0.0767 -0.6921
 9568TIP3   OH250194   3.191   3.572   4.314  0.3765  0.5272  0.4953
 9568TIP3    H150195   3.265   3.607   4.364  0.4534  0.2119  0.6052
 9568TIP3    H250196   3.191   3.478   4.335  0.1620  0.4663  0.2197
 9569TIP3   OH250197   5.894   0.284   5.338  0.1044 -0.8711  0.2863
 9569TIP3    H150198   5.845   0.268   5.418 -0.9892 -0.2131 -0.2327
 9569TIP3    H250199   5.975   0.326   5.367  0.1623 -1.5483  1.1197
 9570TIP3   OH250200   5.150   0.197   3.249 -0.6421  0.1382 -0.0439
 9570TIP3    H150201   5.195   0.144   3.183  0.4498  0.6065  0.3054
 9570TIP3    H250202   5.171   0.288   3.225 -0.6875  0.3317  0.6279
 9571TIP3   OH250203   0.833   2.547  12.133 -0.2376  0.0280  0.4823
 9571TIP3    H150204   0.896   2.506  12.192 -0.0148 -0.9648 -0.4231
 9571TIP3    H250205   0.762   2.577  12.190 -0.3386 -1.5201  1.1931
 9572TIP3   OH250206   5.410   6.022  15.459  0.7958 -0.4321 -0.4465
 9572TIP3    H150207   5.342   6.001  15.523  0.1435  0.4868 -0.8129
 9572TIP3    H250208   5.491   5.989  15.497  0.5088  0.6612  1.1195
 9573TIP3   OH250209   2.533   0.351   6.551  0.4086  0.0541  0.3934
 9573TIP3    H150210   2.472   0.386   6.615  0.4263  0.6263  0.1012
 9573TIP3    H250211   2.576   0.279   6.596 -0.9490 -0.7741  0.3833
 9574TIP3   OH250212   3.350   5.733   0.681 -0.0217  0.5936  0.7942
 9574TIP3    H150213   3.353   5.640   0.657  0.4721  0.5218  1.1302
 9574TIP3    H250214   3.420   5.773   0.630  0.6166  0.5498  1.6286
 9575TIP3   OH250215   2.147   3.434   1.531  0.0385  0.2614 -0.6482
 9575TIP3    H150216   2.059   3.472   1.527  0.4588  1.5256  1.5991
 9575TIP3    H250217   2.132   3.340   1.525 -1.5194  0.4349  0.2005
 9576TIP3   OH250218   0.610   2.895   4.858  0.4602 -0.0293  0.0981
 9576TIP3    H150219   0.534   2.935   4.901  0.9492  1.0586 -0.0167
 9576TIP3    H250220   0.649   2.967   4.808  3.0352  0.0874  2.1568
 9577TIP3   OH250221   4.550   4.767  14.429 -0.3680 -0.5787  0.3468
 9577TIP3    H150222   4.592   4.839  14.384  1.8040 -1.0643  1.5275
 9577TIP3    H250223   4.500   4.808  14.500 -0.0603 -0.1487  0.3139
 9578TIP3   OH250224   2.796   1.252  13.246  0.3390  0.2393  0.4413
 9578TIP3    H150225   2.861   1.274  13.312 -1.2605  1.4272  1.6524
 9578TIP3    H250226   2.715   1.235  13.296 -0.6866  0.3610 -1.1432
 9579TIP3   OH250227   2.981   2.699   4.705 -0.2077  0.3134 -0.1391
 9579TIP3    H150228   2.999   2.698   4.798 -0.0531 -0.1019 -0.1712
 9579TIP3    H250229   3.013   2.783   4.674 -0.3352  0.4845  0.1961
 9580TIP3   OH250230   0.114   0.079  11.887 -0.5061  0.2378  0.2903
 9580TIP3    H150231   0.166   0.033  11.821 -0.7688  2.2626 -1.3679
 9580TIP3    H250232   0.126   0.027  11.966  1.7125 -0.9646 -0.7657
 9581TIP3   OH250233   6.524   4.651  12.025 -0.5069 -0.1816  0.0344
 9581TIP3    H150234   6.546   4.649  12.118 -2.3895 -0.7817  0.4934
 9581TIP3    H250235   6.447   4.707  12.019 -1.0258 -0.9627 -1.0062
 9582TIP3   OH250236   0.052   6.030  14.852 -0.3403 -0.0384  0.0580
 9582TIP3    H150237  -0.009   5.988  14.913 -1.0802  1.2158  0.1942
 9582TIP3    H250238   0.096   5.957  14.808  0.4456 -0.9725  2.3218
 9583TIP3   OH250239   2.829   0.886  15.806 -0.4008 -0.1749 -0.1928
 9583TIP3    H150240   2.830   0.847  15.894 -2.6111  2.0489  0.8822
 9583TIP3    H250241   2.890   0.959  15.812 -1.3414  0.6230 -0.1568
 9584TIP3   OH250242   2.871   5.252  14.442 -0.2226  0.4936 -0.7209
 9584TIP3    H150243   2.835   5.198  14.372 -0.4805  0.5675 -0.6457
 9584TIP3    H250244   2.833   5.217  14.522 -0.1777  0.6140 -0.6465
 9585TIP3   OH250245   5.887   1.452   3.207  0.1980  0.7743 -0.2380
 9585TIP3    H150246   5.890   1.387   3.136 -2.6645 -0.9873  1.1516
 9585TIP3    H250247   5.958   1.427   3.265  1.5823  1.2944 -1.6582
 9586TIP3   OH250248   4.048   0.127   4.045 -0.3379 -0.1117 -0.3355
 9586TIP3    H150249   3.994   0.150   4.120  0.2682  0.0025  0.0691
 9586TIP3    H250250   4.013   0.044   4.014  0.5404 -1.0547  1.1577
 9587TIP3   OH250251   0.821   5.323  11.938  0.1508 -0.2991 -0.8672
 9587TIP3    H150252   0.765   5.339  11.862 -0.2357 -0.0288 -0.5268
 9587TIP3    H250253   0.910   5.322  11.903  0.0066  0.2540 -1.2530
 9588TIP3   OH250254   3.121   2.487  17.074 -0.4830  0.1939  0.1154
 9588TIP3    H150255   3.131   2.526  16.987  0.8788  0.8045  0.5274
 9588TIP3    H250256   3.158   2.552  17.133  1.5010 -1.5360  0.8513
 9589TIP3   OH250257   3.892   0.580   4.122  0.0282 -0.2400  0.0840
 9589TIP3    H150258   3.985   0.585   4.143  0.1951 -0.0796 -0.6571
 9589TIP3    H250259   3.887   0.512   4.054 -0.3623 -0.0878 -0.0415
 9590TIP3   OH250260   1.666   4.993  12.380  0.5423  0.8073  0.0511
 9590TIP3    H150261   1.711   4.929  12.435 -1.2644  0.0046  0.6555
 9590TIP3    H250262   1.580   4.953  12.363 -1.6359  4.1309  2.5560
 9591TIP3   OH250263   5.927   3.909   3.577  0.3542 -0.3135 -0.2669
 9591TIP3    H150264   5.993   3.895   3.508  0.3481 -0.3094 -0.2733
 9591TIP3    H250265   5.976   3.948   3.649  0.4598 -0.7919 -0.0768
 9592TIP3   OH250266   2.409   0.232  12.308  0.3440  0.2718 -0.3193
 9592TIP3    H150267   2.327   0.206  12.349 -1.0739  0.5007 -2.8882
 9592TIP3    H250268   2.444   0.301  12.365 -2.3443  1.6975 -0.3351
 9593TIP3   OH250269   0.670   3.145   4.962 -0.7613  0.8993 -0.1576
 9593TIP3    H150270   0.577   3.138   4.984 -0.8075  1.4219 -0.1759
 9593TIP3    H250271   0.676   3.227   4.913 -0.4068  0.5140 -0.7653
 9594TIP3   OH250272   3.535   1.923   5.246  0.0638  0.1469 -0.2264
 9594TIP3    H150273   3.607   1.944   5.306 -1.0508  2.9742  0.1805
 9594TIP3    H250274   3.579   1.894   5.166  1.5758 -2.9060  1.6086
 9595TIP3   OH250275   3.941   6.239   4.296 -0.4983 -0.0163 -0.1007
 9595TIP3    H150276   3.915   6.149   4.277  1.5321 -0.6393 -0.0173
 9595TIP3    H250277   3.920   6.288   4.216 -0.7889 -0.7239 -0.4621
 9596TIP3   OH250278   4.069   0.338   1.450  0.1814  0.0575 -0.3905
 9596TIP3    H150279   4.129   0.317   1.522 -0.3158  1.6111  0.5138
 9596TIP3    H250280   4.118   0.319   1.371  1.6012  0.6008  0.3458
 9597TIP3   OH250281   6.599   2.046   4.594 -0.0152  0.2562  0.2626
 9597TIP3    H150282   6.683   2.033   4.551  0.1451  0.1145  0.6185
 9597TIP3    H250283   6.553   2.109   4.539  1.3688  2.3974  1.5079
 9598TIP3   OH250284   5.697   6.170   5.393  0.7491  0.0711  0.4225
 9598TIP3    H150285   5.791   6.154   5.390  0.9464  1.2081  0.4672
 9598TIP3    H250286   5.658   6.092   5.354  1.6806 -0.6758  0.9782
 9599TIP3   OH250287   3.408   1.217  12.740  0.2731  0.5918  0.6168
 9599TIP3    H150288   3.346   1.160  12.694  2.0157 -1.3173  0.5303
 9599TIP3    H250289   3.375   1.221  12.830 -0.9566  1.0786  0.1532
 9600TIP3   OH250290   0.445   3.333   1.374  0.1052 -0.1480  0.1950
 9600TIP3    H150291   0.505   3.380   1.316  0.1207  0.2314  0.5171
 9600TIP3    H250292   0.358   3.365   1.349  0.1682  0.5792  0.8900
 9601TIP3   OH250293   0.492   6.170  16.191  0.3026  0.5318  0.0360
 9601TIP3    H150294   0.454   6.159  16.278 -1.1713  1.2515 -0.5023
 9601TIP3    H250295   0.568   6.227  16.205  0.5413 -0.0011  0.9500
 9602TIP3   OH250296   0.140   4.736   0.928 -0.6578 -0.8111 -0.4341
 9602TIP3    H150297   0.151   4.698   0.841 -0.0923  0.5411 -0.9693
 9602TIP3    H250298   0.159   4.829   0.916  2.0225 -1.0440  1.6500
 9603TIP3   OH250299   4.137   4.939   0.328  0.1018 -0.0580  0.1672
 9603TIP3    H150300   4.095   4.858   0.299  0.1744 -0.5919  1.5362
 9603TIP3    H250301   4.107   4.951   0.418  1.1431  0.7262  0.4181
 9604TIP3   OH250302   2.275   2.935   3.441  0.4193 -0.2664  0.9108
 9604TIP3    H150303   2.312   2.847   3.450  0.1039 -0.5842 -0.7616
 9604TIP3    H250304   2.187   2.928   3.478 -0.3953 -1.2202 -1.1608
 9605TIP3   OH250305   6.539   0.045  14.330 -0.1092  0.2747 -0.2012
 9605TIP3    H150306   6.515   0.137  14.319  0.8605  0.6148  0.4622
 9605TIP3    H250307   6.634   0.044  14.326 -0.1549 -0.8769 -1.4107
 9606TIP3   OH250308   2.685   4.634  11.559  0.2278 -0.6929  0.7788
 9606TIP3    H150309   2.619   4.587  11.509 -0.3217 -0.5981  1.4143
 9606TIP3    H250310   2.677   4.725  11.531  0.6025 -0.8062  0.2981
 9607TIP3   OH250311   4.213   0.745  11.317 -0.1096  0.4598  0.1834
 9607TIP3    H150312   4.150   0.715  11.251  1.1118 -2.8720  0.4489
 9607TIP3    H250313   4.231   0.836  11.294 -1.8753  0.2097 -2.3518
 9608TIP3   OH250314   1.438   6.289   2.690 -0.1804 -0.9455 -0.2053
 9608TIP3    H150315   1.457   6.270   2.598  0.9291  0.6515 -0.3293
 9608TIP3    H250316   1.455   6.207   2.736 -1.2038 -1.8923 -1.4761
 9609TIP3   OH250317   5.632   4.669  16.346  0.3685 -0.5553  0.5529
 9609TIP3    H150318   5.694   4.735  16.377  2.0875 -1.7286 -0.2875
 9609TIP3    H250319   5.674   4.633  16.267 -2.2060 -0.1605 -1.0498
 9610TIP3   OH250320   2.251   3.983  13.653  0.1029 -0.1491  0.1267
 9610TIP3    H150321   2.280   3.954  13.566  0.8926  0.0208  0.3315
 9610TIP3    H250322   2.243   4.078  13.646  2.6154  0.1663  0.9367
 9611TIP3   OH250323   5.400   6.400   0.604  0.9825  0.4598  0.4008
 9611TIP3    H150324   5.402   6.310   0.636 -0.0601  0.3817  0.2559
 9611TIP3    H250325   5.359   6.394   0.518  3.2096  0.7537 -0.7175
 9612TIP3   OH250326   0.577   2.697  16.184 -0.2747  0.0401 -0.2623
 9612TIP3    H150327   0.588   2.608  16.149 -0.7309 -1.0117  2.1695
 9612TIP3    H250328   0.666   2.725  16.207 -0.1586  0.1242 -0.8077
 9613TIP3   OH250329   2.346   2.844  14.855 -0.0014 -0.1957  0.3497
 9613TIP3    H150330   2.267   2.815  14.809  0.1634 -1.5253  0.8791
 9613TIP3    H250331   2.414   2.844  14.788 -0.2226 -0.0745  0.1238
 9614TIP3   OH250332   6.691   2.791  16.276  0.4257 -0.2387 -0.5908
 9614TIP3    H150333   6.784   2.774  16.260  0.5458  0.8348 -1.0820
 9614TIP3    H250334   6.687   2.822  16.366  0.5082 -0.5860 -0.4683
 9615TIP3   OH250335   5.296   4.505   4.078 -0.3658 -0.1599  0.5884
 9615TIP3    H150336   5.274   4.588   4.121 -1.3853  0.3898 -0.9597
 9615TIP3    H250337   5.262   4.514   3.989  2.2751 -1.0161 -0.5653
 9616TIP3   OH250338   4.119   3.711   3.640  0.4727 -0.6041 -0.0961
 9616TIP3    H150339   4.130   3.617   3.627 -0.9130 -1.3114  3.3532
 9616TIP3    H250340   4.112   3.722   3.734  0.1474  2.9330 -0.4623
 9617TIP3   OH250341   4.676   0.552  16.051 -0.2581 -0.1503  0.1838
 9617TIP3    H150342   4.752   0.554  16.109 -0.7239  1.1822  0.7551
 9617TIP3    H250343   4.621   0.481  16.085  0.5509 -0.8977 -0.0298
 9618TIP3   OH250344   1.489   0.811  10.831  0.0951  0.3729 -0.2604
 9618TIP3    H150345   1.395   0.803  10.844  0.0623  2.9309  1.3435
 9618TIP3    H250346   1.500   0.819  10.736 -1.2205 -0.5492 -0.5000
 9619TIP3   OH250347   5.963   5.673   0.253  0.1225  0.2136  0.2519
 9619TIP3    H150348   5.946   5.655   0.160 -0.7492  0.4320  0.3664
 9619TIP3    H250349   5.932   5.762   0.266 -0.0347  0.0731  0.8275
 9620TIP3   OH250350   5.332   4.225  10.674  0.0502  0.4591 -0.1066
 9620TIP3    H150351   5.369   4.312  10.659 -0.9171  0.9502  0.2651
 9620TIP3    H250352   5.272   4.211  10.601  0.9992 -0.3564 -0.7409
 9621TIP3   OH250353   4.763   0.004  11.811 -0.2291 -0.3397  0.7449
 9621TIP3    H150354   4.777   0.024  11.719 -1.4293  0.4915  0.7252
 9621TIP3    H250355   4.803  -0.082  11.824  0.0481 -0.4067 -0.5165
 9622TIP3   OH250356   3.124   6.039   1.064  0.3035 -0.5422 -0.0906
 9622TIP3    H150357   3.177   5.991   1.001  0.9713  0.5080 -0.3371
 9622TIP3    H250358   3.185   6.059   1.136  0.3745  1.0803 -0.5905
 9623TIP3   OH250359   0.486   4.617   4.686 -0.3489 -0.7240 -0.6708
 9623TIP3    H150360   0.425   4.634   4.758 -0.6671 -0.0130 -1.1008
 9623TIP3    H250361   0.434   4.631   4.606  0.4491  0.1958 -1.0377
 9624TIP3   OH250362   1.863   4.800   0.417 -0.2599 -0.3278  0.1455
 9624TIP3    H150363   1.851   4.832   0.328 -0.8058  1.1274  0.7253
 9624TIP3    H250364   1.954   4.770   0.419 -0.1736 -0.1647 -0.8398
 9625TIP3   OH250365   1.019   4.421  13.313 -0.4984 -0.2946  0.6579
 9625TIP3    H150366   0.987   4.470  13.389 -0.8768 -0.3603  0.5400
 9625TIP3    H250367   0.970   4.456  13.239  1.1719  1.0610  0.1500
 9626TIP3   OH250368   1.252   0.693  11.003  0.4359  0.0643 -0.3389
 9626TIP3    H150369   1.253   0.787  10.985 -0.1581  0.3861  1.1704
 9626TIP3    H250370   1.252   0.651  10.917  2.2597  1.4187 -1.0156
 9627TIP3   OH250371   6.695   3.776  13.699  0.1473 -0.4610  0.0671
 9627TIP3    H150372   6.662   3.688  13.718 -0.3030  0.1051  2.0926
 9627TIP3    H250373   6.630   3.834  13.738  1.0686  0.7428 -0.1762
 9628TIP3   OH250374   2.987   0.608   3.595  0.2571 -0.0888  0.0063
 9628TIP3    H150375   2.988   0.516   3.568 -0.3527  0.2400 -1.1983
 9628TIP3    H250376   2.929   0.650   3.532  0.8812  1.2071  0.2837
 9629TIP3   OH250377   5.162   6.188   3.435  0.7989 -0.2417  0.5521
 9629TIP3    H150378   5.100   6.246   3.391  1.3717 -0.4321 -0.5186
 9629TIP3    H250379   5.174   6.227   3.522  0.1874  0.5173  0.3029
 9630TIP3   OH250380   4.457   0.816   0.853  0.3691 -0.0170  0.1517
 9630TIP3    H150381   4.552   0.822   0.859  0.4609 -1.0550 -0.2030
 9630TIP3    H250382   4.434   0.736   0.901 -0.3452  0.3572  0.4475
 9631TIP3   OH250383   3.878   0.748   0.283 -0.0435 -0.0078 -0.5138
 9631TIP3    H150384   3.933   0.821   0.255 -1.7440  1.8488  0.8449
 9631TIP3    H250385   3.790   0.769   0.251 -0.6862 -1.1560  0.4243
 9632TIP3   OH250386   1.011   0.031   5.133 -0.0788 -0.1171 -0.2954
 9632TIP3    H150387   1.033   0.039   5.040 -1.1076 -1.0427 -0.6271
 9632TIP3    H250388   1.018   0.120   5.167  1.8299 -0.0117 -0.9083
 9633TIP3   OH250389   0.658   1.098  13.550 -0.4234 -0.2948 -0.4469
 9633TIP3    H150390   0.719   1.141  13.490 -0.2679 -0.3042 -0.2987
 9633TIP3    H250391   0.701   1.014  13.571 -0.8184 -0.6112 -0.8952
 9634TIP3   OH250392   5.154   6.174  17.258  0.4283 -0.2903  0.0460
 9634TIP3    H150393   5.198   6.254  17.231  0.7799 -0.3881  0.3182
 9634TIP3    H250394   5.078   6.204  17.307  0.2858 -0.1195 -0.2826
 9635TIP3   OH250395   1.255   4.723   5.946  0.4969  0.0742  0.4325
 9635TIP3    H150396   1.246   4.755   5.856 -1.1800 -0.7285  0.3032
 9635TIP3    H250397   1.222   4.795   6.000 -0.4883 -0.2477  0.2820
 9636TIP3   OH250398   3.290   0.771  14.992 -0.0510 -0.8468 -0.0815
 9636TIP3    H150399   3.309   0.691  14.944  1.4275 -0.9900  0.7058
 9636TIP3    H250400   3.355   0.773  15.063 -0.4744  0.7089  0.2924
 9637TIP3   OH250401   1.156   3.199  11.836  0.2788 -0.1392 -0.1180
 9637TIP3    H150402   1.139   3.106  11.852 -2.5459  0.1728 -0.9457
 9637TIP3    H250403   1.125   3.214  11.746 -0.0075  1.7456  0.2657
 9638TIP3   OH250404   3.428   0.173   0.184 -0.3822 -0.1323  0.1828
 9638TIP3    H150405   3.439   0.166   0.090 -0.9274 -0.6179  0.1510
 9638TIP3    H250406   3.394   0.262   0.198  0.1103  0.0891 -0.0377
 9639TIP3   OH250407   6.671   1.168  14.322 -0.3650 -0.2762  0.1131
 9639TIP3    H150408   6.611   1.231  14.359 -0.5601  0.0257 -0.6959
 9639TIP3    H250409   6.632   1.144  14.238  1.0185  0.5233 -0.7842
 9640TIP3   OH250410   1.077   4.884  12.566 -0.2784 -0.3248 -0.8561
 9640TIP3    H150411   1.141   4.872  12.635 -0.1801  0.1898 -0.8542
 9640TIP3    H250412   1.116   4.950  12.508 -1.5036  1.2168  0.0228
 9641TIP3   OH250413   6.637   4.206   2.663  0.1775 -0.4688 -0.2146
 9641TIP3    H150414   6.716   4.178   2.709  0.2451  2.2576  1.4931
 9641TIP3    H250415   6.566   4.192   2.725 -0.3990 -1.0176 -0.9852
 9642TIP3   OH250416   2.842   1.866  17.022 -0.3576 -0.6944  0.0091
 9642TIP3    H150417   2.769   1.842  16.965  0.6791 -2.5913 -0.5568
 9642TIP3    H250418   2.849   1.794  17.084 -0.1850  0.4032  1.2872
 9643TIP3   OH250419   5.886   3.193   2.959 -0.1608  0.3628  0.0827
 9643TIP3    H150420   5.860   3.244   2.882 -0.5377  0.4018  0.2384
 9643TIP3    H250421   5.877   3.254   3.032 -1.0313 -0.0628  0.3278
 9644TIP3   OH250422   6.584   4.302   4.947 -0.2171  0.3289  0.7301
 9644TIP3    H150423   6.489   4.310   4.957 -0.6138 -0.5994 -1.8956
 9644TIP3    H250424   6.606   4.219   4.991 -0.6066  0.5925  1.4230
 9645TIP3   OH250425   2.715   4.444  16.817  0.2678  0.1296  0.6876
 9645TIP3    H150426   2.621   4.459  16.808  0.0598 -1.2182  0.4793
 9645TIP3    H250427   2.733   4.373  16.755  1.6033  1.0526 -0.0046
 9646TIP3   OH250428   0.320   5.577  13.239 -0.0345 -0.3327  0.7683
 9646TIP3    H150429   0.412   5.562  13.261  0.2146  0.0861  0.0350
 9646TIP3    H250430   0.285   5.627  13.313  0.7231  0.8500  0.3410
 9647TIP3   OH250431   0.410   2.405  11.648  0.2186 -0.3787 -0.8357
 9647TIP3    H150432   0.370   2.490  11.632  0.2766  0.1872  1.8153
 9647TIP3    H250433   0.504   2.420  11.637  0.1091 -0.5609 -2.1634
 9648TIP3   OH250434   4.874   0.571   0.601 -0.4202  0.6301 -0.8629
 9648TIP3    H150435   4.824   0.652   0.591  0.5881  1.3740 -0.0465
 9648TIP3    H250436   4.809   0.501   0.590 -2.0007  1.5836  1.7602
 9649TIP3   OH250437   1.155   0.827  12.361 -0.1123  0.5175  0.0748
 9649TIP3    H150438   1.121   0.844  12.273  0.0307  0.4651  0.0086
 9649TIP3    H250439   1.105   0.885  12.418 -0.7339  0.0081  0.0542
 9650TIP3   OH250440   5.959   1.525  15.121  0.3453 -0.6119  0.0693
 9650TIP3    H150441   6.048   1.527  15.156  0.3951 -0.7566 -0.0498
 9650TIP3    H250442   5.911   1.589  15.174  0.4898 -0.6224  0.2139
 9651TIP3   OH250443   2.512   6.742  12.537  0.4687 -0.0015 -0.4416
 9651TIP3    H150444   2.495   6.652  12.510 -1.5265  0.2279 -0.0069
 9651TIP3    H250445   2.513   6.792  12.456 -3.1096  0.2976 -0.3953
 9652TIP3   OH250446   5.615   3.350  13.149 -0.6719 -0.0549  0.2001
 9652TIP3    H150447   5.632   3.274  13.204  1.1020  0.8286  0.9127
 9652TIP3    H250448   5.573   3.314  13.070  0.8517 -1.8627  0.1791
 9653TIP3   OH250449   2.037   5.760  15.246 -0.1923 -0.6523 -0.5576
 9653TIP3    H150450   2.128   5.733  15.232 -0.3022 -0.1206 -2.4108
 9653TIP3    H250451   2.025   5.753  15.341  0.9730 -3.2002 -0.5617
 9654TIP3   OH250452   2.427   0.502  12.165 -0.1379  0.1027  0.4558
 9654TIP3    H150453   2.374   0.582  12.161  0.1613  0.2391 -0.6893
 9654TIP3    H250454   2.458   0.499  12.256 -0.0703  1.3361  0.4786
 9655TIP3   OH250455   3.826   0.935   3.387 -0.0877 -0.0483 -0.0666
 9655TIP3    H150456   3.905   0.989   3.396  0.4066 -0.6547 -0.7084
 9655TIP3    H250457   3.838   0.865   3.451 -1.2464  1.1994  1.5550
 9656TIP3   OH250458   4.070   6.358   4.532 -0.8019 -0.0655  0.3128
 9656TIP3    H150459   4.025   6.442   4.524  0.2890  0.4898 -0.2103
 9656TIP3    H250460   4.051   6.313   4.450  1.2690  1.0360 -0.8231
 9657TIP3   OH250461   1.526   0.615   3.493  0.1484 -0.9638  0.1977
 9657TIP3    H150462   1.588   0.655   3.554  2.0062 -0.8708 -1.6828
 9657TIP3    H250463   1.458   0.682   3.480  0.3851 -0.5254  1.2214
 9658TIP3   OH250464   0.211   3.201  10.636  0.2413  0.1635  0.1641
 9658TIP3    H150465   0.213   3.132  10.570 -1.6007  0.8551 -0.6460
 9658TIP3    H250466   0.118   3.220  10.648  0.6715  1.7491  1.1662
 9659TIP3   OH250467   0.144   5.401  12.601 -0.1111  0.0217 -0.1077
 9659TIP3    H150468   0.119   5.491  12.580  0.4337  1.3200  4.3303
 9659TIP3    H250469   0.236   5.406  12.624 -0.0427 -1.7362  0.0987
 9660TIP3   OH250470   1.969   0.306  11.201 -0.8007  0.2160 -0.4155
 9660TIP3    H150471   1.886   0.262  11.187 -1.2938  0.1892  2.3167
 9660TIP3    H250472   1.959   0.390  11.156 -1.5522 -0.5786 -1.7685
 9661TIP3   OH250473   0.101   0.486   4.810  0.0083  0.3113 -0.1501
 9661TIP3    H150474   0.131   0.574   4.834 -0.7298  0.2966  0.8579
 9661TIP3    H250475   0.175   0.448   4.763  0.6883  1.1313  0.2292
 9662TIP3   OH250476   4.225   6.182  11.598  0.1704 -0.6328 -0.4550
 9662TIP3    H150477   4.177   6.188  11.680 -1.2236  0.6165 -1.3366
 9662TIP3    H250478   4.158   6.171  11.531  1.0990  0.7679 -1.6685
 9663TIP3   OH250479   4.155   1.265  10.864  0.7633  0.2582  1.2004
 9663TIP3    H150480   4.225   1.265  10.800  0.0380 -1.3026  0.3820
 9663TIP3    H250481   4.163   1.349  10.909  1.0925  1.5186 -1.1441
 9664TIP3   OH250482   0.805   6.054  14.787 -0.1868 -0.4994  0.3066
 9664TIP3    H150483   0.878   6.116  14.790  0.5535 -1.4291  1.9105
 9664TIP3    H250484   0.730   6.104  14.821  0.8265 -0.9964  3.4325
 9665TIP3   OH250485   2.091   0.976   0.905  0.3103  0.1171  0.4451
 9665TIP3    H150486   2.002   0.980   0.870  0.4037  1.5313  0.3533
 9665TIP3    H250487   2.121   1.067   0.906  2.2204 -0.4599 -0.7190
 9666TIP3   OH250488   6.558   5.023   0.144  0.0624 -0.0850 -0.4673
 9666TIP3    H150489   6.630   5.084   0.161  1.2691 -0.7971 -2.7277
 9666TIP3    H250490   6.482   5.080   0.132  0.7081  0.8361 -0.2869
 9667TIP3   OH250491   6.818   0.289  11.581  0.0515  0.1053 -0.8575
 9667TIP3    H150492   6.799   0.279  11.675 -0.5177 -3.7530 -1.3112
 9667TIP3    H250493   6.912   0.272  11.574  0.2882  1.3455 -0.9150
 9668TIP3   OH250494   5.296   0.057  11.642  0.2542 -0.5201 -0.0714
 9668TIP3    H150495   5.339   0.059  11.557 -0.7745  1.2961 -0.5674
 9668TIP3    H250496   5.231  -0.013  11.635 -1.5900  1.3156 -1.6668
 9669TIP3   OH250497   6.280   1.699   5.341 -0.0320  0.0755  0.1879
 9669TIP3    H150498   6.291   1.763   5.411 -0.0211  1.7770 -1.3316
 9669TIP3    H250499   6.207   1.732   5.289 -0.4357 -1.4830 -0.2629
 9670TIP3   OH250500   3.775   6.433  15.011  0.1709  0.3675  0.3642
 9670TIP3    H150501   3.800   6.341  15.022  0.7870  0.4193 -0.4914
 9670TIP3    H250502   3.836   6.481  15.068 -0.6753  0.1911  1.4246
 9671TIP3   OH250503   5.547   2.880   5.025 -0.3676 -0.1871  0.6733
 9671TIP3    H150504   5.476   2.817   5.009 -0.5665 -0.7787  3.5606
 9671TIP3    H250505   5.614   2.829   5.070  2.6380  0.0058 -3.3013
 9672TIP3   OH250506   1.907   4.835   0.079  0.1845  0.1425 -1.2952
 9672TIP3    H150507   1.975   4.790   0.029 -1.0018 -3.1628 -0.0625
 9672TIP3    H250508   1.827   4.787   0.060 -1.2284  1.9721 -0.1676
 9673TIP3   OH250509   3.544   1.744   1.503  0.0378 -0.3427 -0.3687
 9673TIP3    H150510   3.490   1.760   1.580  0.5363 -0.5574  0.0320
 9673TIP3    H250511   3.606   1.817   1.502  1.2569 -1.3383  0.5272
 9674TIP3   OH250512   6.575   1.020   5.309 -0.0662 -0.0981  0.1888
 9674TIP3    H150513   6.530   0.972   5.240  0.3388  0.4399 -0.4543
 9674TIP3    H250514   6.516   1.093   5.329 -0.2183 -0.2954  0.4704
 9675TIP3   OH250515   0.530   2.403  15.345  0.2589  0.2898 -0.3832
 9675TIP3    H150516   0.617   2.362  15.342  0.0854 -0.0608 -0.5842
 9675TIP3    H250517   0.520   2.429  15.437  0.6936  0.5811 -0.4162
 9676TIP3   OH250518   6.030   5.437  12.561 -0.6317  0.4467 -0.3598
 9676TIP3    H150519   6.048   5.531  12.568 -1.3616  0.5744 -0.1623
 9676TIP3    H250520   6.107   5.396  12.601 -0.9031  0.9902  0.7441
 9677TIP3   OH250521   0.992   3.369   1.717  0.3051 -0.1731  0.5669
 9677TIP3    H150522   1.081   3.397   1.740  0.7951  0.3800 -1.7930
 9677TIP3    H250523   1.005   3.295   1.659 -0.8256 -0.8232  1.1430
 9678TIP3   OH250524   3.814   6.468  12.957 -0.3609 -0.6500 -0.0772
 9678TIP3    H150525   3.773   6.414  13.025 -0.2096 -0.4511  0.1687
 9678TIP3    H250526   3.900   6.489  12.991  0.1663 -1.5279 -0.8314
 9679TIP3   OH250527   1.831   1.967  16.574 -0.3843  0.4547 -0.2436
 9679TIP3    H150528   1.916   1.972  16.531 -0.7778  1.9421 -0.8915
 9679TIP3    H250529   1.792   1.887  16.542  0.8148 -0.2982  0.1386
 9680TIP3   OH250530   0.848   0.949   5.438  0.1924  0.1895 -0.1012
 9680TIP3    H150531   0.848   0.892   5.516 -0.0749 -0.2578 -0.4302
 9680TIP3    H250532   0.841   1.037   5.474  0.3789  0.0036  0.4033
 9681TIP3   OH250533   0.500   4.305   5.128  0.1476  0.2006 -0.0274
 9681TIP3    H150534   0.495   4.219   5.087 -0.0148 -0.0244  0.4715
 9681TIP3    H250535   0.513   4.365   5.054  0.1500 -0.2344 -0.3847
 9682TIP3   OH250536   2.171   5.966   1.448 -0.6072 -0.4151 -0.1142
 9682TIP3    H150537   2.080   5.968   1.416 -0.5063 -0.8127 -0.4293
 9682TIP3    H250538   2.169   5.904   1.521 -0.9311  0.8362  0.9570
 9683TIP3   OH250539   5.400   2.980   4.080  0.2088 -0.2997 -0.3127
 9683TIP3    H150540   5.399   2.994   4.174  2.2916  2.7442 -0.6798
 9683TIP3    H250541   5.442   2.895   4.069  0.9627 -0.1864  1.4863
 9684TIP3   OH250542   1.567   0.240  15.832 -0.4759 -0.2483 -0.0172
 9684TIP3    H150543   1.497   0.301  15.806  0.3874  1.3591  1.2999
 9684TIP3    H250544   1.646   0.295  15.837  0.3207 -1.4655  1.2380
 9685TIP3   OH250545   6.740   5.207   1.635  0.4007  0.1805  0.2839
 9685TIP3    H150546   6.804   5.184   1.703  0.8636 -1.1735 -0.5892
 9685TIP3    H250547   6.686   5.129   1.625 -1.3340  1.2736  0.9145
 9686TIP3   OH250548   3.526   0.771  15.136 -0.6313 -0.4474  0.1421
 9686TIP3    H150549   3.565   0.731  15.059 -0.2848 -0.6086  0.3973
 9686TIP3    H250550   3.546   0.864  15.128 -1.4375 -0.3192 -0.4538
 9687TIP3   OH250551   5.653   5.541   4.675  0.2924  0.2102  0.4607
 9687TIP3    H150552   5.563   5.543   4.642 -0.1197  1.7016  1.5953
 9687TIP3    H250553   5.675   5.448   4.679 -0.7293 -0.1097 -1.0593
 9688TIP3   OH250554   6.250   3.618   3.011  0.1061 -1.0917 -0.2289
 9688TIP3    H150555   6.217   3.528   3.010 -1.6776 -0.4644  0.0751
 9688TIP3    H250556   6.177   3.670   3.044  1.5097  0.3312  0.7074
 9689TIP3   OH250557   5.277   4.882  14.973 -0.5832 -0.0026 -0.2980
 9689TIP3    H150558   5.371   4.868  14.961 -0.5461 -0.5768  0.6390
 9689TIP3    H250559   5.235   4.814  14.921 -0.5182  1.1305 -1.8874
 9690TIP3   OH250560   3.939   1.682   4.146 -0.6119  0.0130  0.0035
 9690TIP3    H150561   3.852   1.657   4.177  0.0582 -1.7643  0.4915
 9690TIP3    H250562   3.922   1.733   4.067 -2.0900 -0.4629 -0.0124
 9691TIP3   OH250563   0.190   3.375  13.723  0.0471 -0.1298  0.1398
 9691TIP3    H150564   0.229   3.445  13.671 -1.4232  0.7039  0.1387
 9691TIP3    H250565   0.180   3.413  13.811  2.5517 -1.5342  1.0998
 9692TIP3   OH250566   6.779   1.896   3.592  0.1734 -0.2505 -0.6356
 9692TIP3    H150567   6.819   1.979   3.566 -2.5462  1.2921 -0.0950
 9692TIP3    H250568   6.794   1.890   3.687 -0.8691  0.3536 -0.4238
 9693TIP3   OH250569   6.132   5.788  13.022  0.0597 -0.2574  0.3715
 9693TIP3    H150570   6.126   5.882  13.002  0.4787 -0.3953 -0.4260
 9693TIP3    H250571   6.042   5.758  13.024 -0.0816  0.1721  0.6763
 9694TIP3   OH250572   5.947   3.717   4.716  0.2882 -0.9269 -0.2114
 9694TIP3    H150573   6.020   3.726   4.777 -0.7413  1.1579  0.7815
 9694TIP3    H250574   5.920   3.806   4.697 -1.3566 -1.6296 -1.3468
 9695TIP3   OH250575   0.721   2.805  13.803 -0.0549  0.1728 -0.1120
 9695TIP3    H150576   0.735   2.856  13.883 -0.6341  0.3376 -0.1173
 9695TIP3    H250577   0.658   2.738  13.828  1.8543 -1.5269  0.3144
 9696TIP3   OH250578   3.965   6.621   2.554 -0.2816 -0.1097  0.4416
 9696TIP3    H150579   3.906   6.660   2.619 -1.3656  0.7750 -1.0475
 9696TIP3    H250580   3.927   6.535   2.536  0.0495 -0.3760  1.0365
 9697TIP3   OH250581   2.485   4.575   0.063  0.5740 -0.3549 -0.2506
 9697TIP3    H150582   2.418   4.508   0.076 -0.6055  0.6827 -0.8613
 9697TIP3    H250583   2.519   4.559  -0.025  0.2912 -0.1505 -0.3983
 9698TIP3   OH250584   4.780   3.878   5.028  0.0622  0.0156  0.4130
 9698TIP3    H150585   4.858   3.842   4.986 -0.1769 -0.6325  0.5242
 9698TIP3    H250586   4.785   3.972   5.010  0.3297 -0.1558 -0.4620
 9699TIP3   OH250587   6.735   2.770  14.604  0.2032 -0.3924  0.0021
 9699TIP3    H150588   6.798   2.762  14.676  0.7616  1.1137 -0.3189
 9699TIP3    H250589   6.779   2.822  14.538 -1.2441  0.4108 -0.3645
 9700TIP3   OH250590   5.372   0.487   2.166  1.1750  0.7749 -0.1121
 9700TIP3    H150591   5.441   0.533   2.117  1.0911  0.3071 -0.6646
 9700TIP3    H250592   5.302   0.473   2.103  0.9059  0.5144  0.2408
 9701TIP3   OH250593   2.731   2.987   5.930  0.7767 -0.2931  0.4528
 9701TIP3    H150594   2.800   3.045   5.963 -0.8546  0.7651  2.1296
 9701TIP3    H250595   2.699   2.941   6.008  0.9702 -2.3109 -0.6152
 9702TIP3   OH250596   3.265   1.464   2.252  0.2593  0.0950  0.2429
 9702TIP3    H150597   3.266   1.462   2.156 -0.6122 -0.4140  0.2417
 9702TIP3    H250598   3.298   1.551   2.275 -1.7828  1.1134 -0.5602
 9703TIP3   OH250599   2.679   4.881  11.474 -0.3507 -0.9795  0.4619
 9703TIP3    H150600   2.636   4.967  11.477 -1.0309 -1.3271  0.7367
 9703TIP3    H250601   2.654   4.845  11.388  2.1638  0.2355 -0.8372
 9704TIP3   OH250602   3.832   5.558   5.307  0.2750 -0.3286 -0.0409
 9704TIP3    H150603   3.814   5.648   5.332 -0.6116 -0.9227  1.5228
 9704TIP3    H250604   3.745   5.518   5.298  0.6749 -1.2721  0.2219
 9705TIP3   OH250605   1.816   6.014   4.856 -0.1154  0.3600 -0.4907
 9705TIP3    H150606   1.721   6.005   4.855 -0.2366  1.6078 -0.7070
 9705TIP3    H250607   1.846   5.939   4.906 -1.2127 -0.0702 -0.4560
 9706TIP3   OH250608   4.317   0.455   0.311 -0.2321  0.1348  0.1229
 9706TIP3    H150609   4.248   0.405   0.355  0.7653 -0.3390  1.1768
 9706TIP3    H250610   4.295   0.546   0.328 -1.3723  0.0277 -0.7448
 9707TIP3   OH250611   1.287   5.194  13.931  0.1119 -0.0811 -0.0445
 9707TIP3    H150612   1.197   5.163  13.939  0.1918 -0.5540 -0.8902
 9707TIP3    H250613   1.280   5.288  13.920 -0.1892  0.0933  1.5292
 9708TIP3   OH250614   3.328   1.152   6.165  0.3191  0.2879  0.2943
 9708TIP3    H150615   3.408   1.149   6.217  1.8857 -0.5881 -2.0682
 9708TIP3    H250616   3.338   1.231   6.111 -0.1732 -0.1008 -0.3732
 9709TIP3   OH250617   6.089   3.243  11.280 -0.1837 -0.2789 -0.3063
 9709TIP3    H150618   6.125   3.330  11.298  3.5750 -1.6747 -0.6305
 9709TIP3    H250619   6.135   3.185  11.340 -2.6532 -2.0812 -0.0946
 9710TIP3   OH250620   4.566   0.839  16.062  0.2377  0.2125  0.6224
 9710TIP3    H150621   4.637   0.886  16.020  1.2724 -1.5296  0.3819
 9710TIP3    H250622   4.581   0.747  16.039 -1.2031 -0.3497  1.8523
 9711TIP3   OH250623   3.899   1.088   1.240  0.4001  0.3683  0.2942
 9711TIP3    H150624   3.931   1.044   1.319  0.9057 -1.0398 -0.6799
 9711TIP3    H250625   3.811   1.053   1.227  0.6371 -0.0454 -0.2313
 9712TIP3   OH250626   0.281   5.452  16.408 -0.0738  0.2363  0.7444
 9712TIP3    H150627   0.206   5.506  16.433 -0.8059 -1.5311  2.5538
 9712TIP3    H250628   0.322   5.429  16.492  1.1331 -0.7117 -0.0963
 9713TIP3   OH250629   2.487   0.901  16.469 -0.1781 -0.1470  0.8499
 9713TIP3    H150630   2.404   0.884  16.513 -0.2725  0.2593  0.8269
 9713TIP3    H250631   2.548   0.921  16.541  0.1560 -1.4628  0.9512
 9714TIP3   OH250632   4.692   0.016   1.821  0.5050  0.2726  0.0110
 9714TIP3    H150633   4.671  -0.013   1.910 -0.8257 -0.8935 -0.6615
 9714TIP3    H250634   4.716   0.108   1.830 -1.2902  0.6190  1.3423
 9715TIP3   OH250635   3.029   6.585   1.014  0.1790 -0.3119 -0.2449
 9715TIP3    H150636   3.067   6.507   0.975 -0.2853 -0.1917 -0.9524
 9715TIP3    H250637   2.942   6.592   0.973  0.0663  0.3540  0.1033
 9716TIP3   OH250638   2.717   0.533  15.714 -0.4534  0.6655  0.2366
 9716TIP3    H150639   2.778   0.538  15.787  0.0411 -0.9332 -0.0372
 9716TIP3    H250640   2.639   0.580  15.744  1.0494  3.1401  0.4054
 9717TIP3   OH250641   6.684   4.074   2.214  0.5657  0.1775 -0.0066
 9717TIP3    H150642   6.629   4.082   2.292 -1.3526  0.9782 -1.3982
 9717TIP3    H250643   6.737   4.154   2.213 -0.0846  0.6058 -0.0355
 9718TIP3   OH250644   6.165   2.568  10.791 -0.1704  0.3710 -0.2165
 9718TIP3    H150645   6.175   2.662  10.802 -0.3614  0.3468  0.1882
 9718TIP3    H250646   6.080   2.558  10.747 -1.4068  0.2655  2.1173
 9719TIP3   OH250647   0.485   1.372   4.349  0.9531 -0.6787 -0.4151
 9719TIP3    H150648   0.405   1.397   4.303 -0.0744 -1.2461  1.0384
 9719TIP3    H250649   0.475   1.279   4.366  1.8500 -0.7182 -0.0779
 9720TIP3   OH250650   4.884   5.081   3.754  0.3249  0.0617  0.0101
 9720TIP3    H150651   4.797   5.073   3.714 -0.3545  0.1141  1.4388
 9720TIP3    H250652   4.939   5.021   3.704 -1.0253 -1.5497  0.3883
 9721TIP3   OH250653   0.803   0.330   3.139  0.0503  0.0775 -0.0616
 9721TIP3    H150654   0.822   0.237   3.151  2.8756  0.1903 -2.9154
 9721TIP3    H250655   0.866   0.375   3.195  0.2522  0.2994 -0.4643
 9722TIP3   OH250656   1.953   3.888   5.730 -0.1982  0.0135 -0.7728
 9722TIP3    H150657   1.860   3.872   5.745  0.0816 -0.1141  0.9197
 9722TIP3    H250658   1.997   3.815   5.774  0.7784  1.3172  0.4367
 9723TIP3   OH250659   0.913   3.310  12.890  0.3695  0.0781  0.5657
 9723TIP3    H150660   0.932   3.232  12.942 -0.4297  0.6479  1.7284
 9723TIP3    H250661   0.830   3.342  12.925  0.2215  0.9088 -0.5476
 9724TIP3   OH250662   6.561   5.293   0.290  0.1875 -0.0634  0.3684
 9724TIP3    H150663   6.495   5.360   0.274  1.0199  0.7304  0.2367
 9724TIP3    H250664   6.643   5.341   0.295  0.7491 -1.0406  0.5912
 9725TIP3   OH250665   2.151   5.672   3.928 -0.3692 -0.2230  0.1655
 9725TIP3    H150666   2.208   5.749   3.926  0.3764 -0.7100  1.8165
 9725TIP3    H250667   2.164   5.630   3.843  1.0641  0.1702  0.1791
 9726TIP3   OH250668   1.384   2.645   1.409  0.1718 -0.0365 -0.2601
 9726TIP3    H150669   1.356   2.554   1.420  1.5555 -0.2043  2.3802
 9726TIP3    H250670   1.304   2.696   1.421 -0.1741 -0.7948  0.7664
 9727TIP3   OH250671   3.312   0.186   1.914  0.2041 -0.1980 -1.0880
 9727TIP3    H150672   3.390   0.141   1.881  1.0704  0.8251 -0.4584
 9727TIP3    H250673   3.239   0.135   1.879  1.1642 -2.0150 -0.5361
 9728TIP3   OH250674   3.829   4.258   4.393 -0.2261 -0.2867  0.0709
 9728TIP3    H150675   3.880   4.247   4.313 -0.6276 -1.2308 -0.0608
 9728TIP3    H250676   3.867   4.196   4.455 -1.3473 -1.1488 -0.1000
 9729TIP3   OH250677   5.038   1.453  16.719 -1.0228  0.2271 -0.4998
 9729TIP3    H150678   5.069   1.407  16.641 -1.0194  0.0993 -0.4239
 9729TIP3    H250679   4.955   1.492  16.692 -1.0093  0.2045 -0.5749
 9730TIP3   OH250680   0.008   4.804   4.076 -0.1919 -0.7442 -0.4920
 9730TIP3    H150681   0.074   4.737   4.093 -0.6051 -0.9567  0.3035
 9730TIP3    H250682  -0.067   4.755   4.041  0.0725 -0.5033 -1.3972
 9731TIP3   OH250683   4.800   1.624  13.093 -0.6920 -0.1825  0.7309
 9731TIP3    H150684   4.729   1.665  13.043 -0.1900 -1.0510 -0.7389
 9731TIP3    H250685   4.785   1.652  13.183 -3.0341 -0.4950  0.4879
 9732TIP3   OH250686   6.434   2.581  12.304  0.6429 -0.5299 -0.1647
 9732TIP3    H150687   6.485   2.620  12.233 -0.4578  0.5317 -0.3962
 9732TIP3    H250688   6.423   2.652  12.368  2.2875 -1.6912  1.4486
 9733TIP3   OH250689   5.134   5.662   5.892  0.3853  0.2775  0.2634
 9733TIP3    H150690   5.125   5.568   5.907 -0.9017  0.0665 -1.7683
 9733TIP3    H250691   5.188   5.692   5.965 -3.8649 -1.0531  4.2211
 9734TIP3   OH250692   3.489   4.015   3.052  0.3970  0.1438 -0.3833
 9734TIP3    H150693   3.485   4.107   3.079 -1.6896  0.8764 -2.9492
 9734TIP3    H250694   3.467   4.016   2.959 -0.7554 -3.0513 -0.2301
 9735TIP3   OH250695   6.182   1.239   5.910  0.2264  0.7123  0.5780
 9735TIP3    H150696   6.156   1.244   6.002 -0.1428 -1.4961  0.6079
 9735TIP3    H250697   6.197   1.146   5.893 -0.4375  0.9852 -1.7934
 9736TIP3   OH250698   1.649   1.760   1.992 -0.4041 -0.0644 -0.2592
 9736TIP3    H150699   1.704   1.752   2.071 -0.9316 -0.3196  0.0866
 9736TIP3    H250700   1.684   1.695   1.932 -0.4848 -0.4064  0.0595
 9737TIP3   OH250701   1.668   4.750   3.307  0.3805  0.1451  0.0274
 9737TIP3    H150702   1.578   4.777   3.328  0.4845  0.3718  0.1870
 9737TIP3    H250703   1.713   4.748   3.392  0.7891  1.0148 -0.1604
 9738TIP3   OH250704   2.227   5.002   4.873  0.0715  0.5257  0.5660
 9738TIP3    H150705   2.286   4.926   4.875 -0.7988 -0.2596 -1.8351
 9738TIP3    H250706   2.220   5.025   4.781 -1.5258  2.0951  1.0403
 9739TIP3   OH250707   3.525   4.809  14.723  0.7795 -0.4293 -0.7084
 9739TIP3    H150708   3.606   4.854  14.696  0.5456  1.4016  1.4837
 9739TIP3    H250709   3.455   4.868  14.694  0.3625 -0.6305 -0.1141
 9740TIP3   OH250710   0.154   2.761  13.661  0.1610  0.0280  0.0228
 9740TIP3    H150711   0.244   2.779  13.689 -0.3609  2.1178  0.4297
 9740TIP3    H250712   0.106   2.841  13.681 -1.2151 -0.0690 -2.6502
 9741TIP3   OH250713   2.104   6.310  13.460  0.1687 -0.1248 -0.4045
 9741TIP3    H150714   2.090   6.218  13.436 -0.6565 -0.0740 -0.1283
 9741TIP3    H250715   2.108   6.309  13.556 -1.0789  0.2908 -0.3414
 9742TIP3   OH250716   6.411   1.593  12.759 -0.2772 -0.5945 -0.3488
 9742TIP3    H150717   6.409   1.688  12.771 -0.8372 -0.6738  0.1741
 9742TIP3    H250718   6.505   1.572  12.753 -0.0539 -0.3028  1.8178
 9743TIP3   OH250719   3.490   0.979   1.465  0.3068 -0.4737  0.8638
 9743TIP3    H150720   3.509   1.055   1.520  0.4947  0.1364 -0.0317
 9743TIP3    H250721   3.471   1.015   1.379 -1.1524 -1.3512  0.8045
 9744TIP3   OH250722   4.243   4.333  13.361  0.1041 -0.2763  0.1018
 9744TIP3    H150723   4.178   4.387  13.315  1.0803  1.5087  0.7805
 9744TIP3    H250724   4.316   4.326  13.300  0.2064 -0.3383  0.2317
 9745TIP3   OH250725   5.194   2.917  15.137 -0.5643  0.3830 -0.4423
 9745TIP3    H150726   5.158   2.842  15.089 -1.2229 -0.0528  0.7036
 9745TIP3    H250727   5.121   2.951  15.188 -0.4509  2.2859 -1.5034
 9746TIP3   OH250728   5.480   3.647  14.655  0.1057 -0.3024 -0.3233
 9746TIP3    H150729   5.423   3.722  14.670  1.1114  0.1105  1.6525
 9746TIP3    H250730   5.487   3.640  14.560  0.6721  2.6050 -0.5344
 9747TIP3   OH250731   0.646   4.078  14.272 -0.4909 -0.3808  0.7377
 9747TIP3    H150732   0.676   4.083  14.181 -0.2056 -1.8332  0.7540
 9747TIP3    H250733   0.669   4.164  14.309 -1.9537  0.7695 -0.9535
 9748TIP3   OH250734   6.185   1.687   2.015  0.5898 -0.7187  0.5360
 9748TIP3    H150735   6.249   1.619   1.992  2.1899 -0.8417  4.7976
 9748TIP3    H250736   6.142   1.654   2.093 -3.0896  0.4835 -0.8731
 9749TIP3   OH250737   5.143   2.188  15.989  0.2022  0.0999  0.4955
 9749TIP3    H150738   5.186   2.111  15.952  1.1154  0.3163  1.0752
 9749TIP3    H250739   5.050   2.175  15.972  0.3546 -1.1245  0.5973
 9750TIP3   OH250740   4.488   6.080  16.982 -0.4697 -0.2370 -0.0468
 9750TIP3    H150741   4.439   6.154  17.018 -0.2831 -0.4422  0.6457
 9750TIP3    H250742   4.423   6.031  16.931 -0.3149  1.0492 -1.5056
 9751TIP3   OH250743   2.411   2.646   5.417  0.2976 -0.3429 -0.3863
 9751TIP3    H150744   2.448   2.642   5.329  2.1472 -0.5869  0.3592
 9751TIP3    H250745   2.362   2.565   5.427 -1.8510  0.7296 -1.9852
 9752TIP3   OH250746   4.506   1.419   5.685 -0.0011 -0.4130 -0.4079
 9752TIP3    H150747   4.598   1.405   5.708 -0.5248 -2.0622  0.7644
 9752TIP3    H250748   4.457   1.383   5.759 -1.5963  0.2124 -1.1438
 9753TIP3   OH250749   1.275   5.121   0.143  0.3540 -0.2450 -0.8253
 9753TIP3    H150750   1.268   5.140   0.049  1.8412 -0.5028 -0.9980
 9753TIP3    H250751   1.191   5.148   0.179 -0.2027 -0.0760 -2.2267
 9754TIP3   OH250752   1.959   0.308   3.652 -1.0076  0.4799  0.3514
 9754TIP3    H150753   1.926   0.324   3.741 -0.7451 -0.6646  0.6673
 9754TIP3    H250754   2.045   0.267   3.666 -1.4219 -0.6615 -0.4161
 9755TIP3   OH250755   4.312   1.491   0.027 -1.0323 -0.0974  0.1624
 9755TIP3    H150756   4.385   1.448  -0.017 -0.4528 -1.0824  2.0146
 9755TIP3    H250757   4.238   1.480  -0.033  0.1827  0.4000 -1.4659
 9756TIP3   OH250758   1.588   2.015  16.369  0.4011 -0.1157  0.0217
 9756TIP3    H150759   1.670   1.984  16.331  0.5262  0.6003 -0.3002
 9756TIP3    H250760   1.609   2.102  16.403 -0.1331 -0.0796  0.2638
 9757TIP3   OH250761   0.803   5.268   5.529  0.7287 -0.3283  0.0612
 9757TIP3    H150762   0.717   5.272   5.571  0.9631  0.9506  0.4369
 9757TIP3    H250763   0.790   5.311   5.444  1.4012  1.4061  0.8279
 9758TIP3   OH250764   2.454   5.577  16.767  0.1148  0.3977 -0.1770
 9758TIP3    H150765   2.381   5.620  16.810  1.7183  2.3102  0.6903
 9758TIP3    H250766   2.484   5.640  16.701  1.5960  0.0560  0.1495
 9759TIP3   OH250767   1.478   3.258  16.333  0.1663 -0.2434 -0.0842
 9759TIP3    H150768   1.545   3.219  16.276 -0.9316 -1.9052 -0.2530
 9759TIP3    H250769   1.433   3.184  16.371 -0.9071  0.8761  0.8602
 9760TIP3   OH250770   0.882   6.036  12.679 -0.4777 -0.0967  0.0321
 9760TIP3    H150771   0.890   6.124  12.714  0.8016 -0.6340  1.1097
 9760TIP3    H250772   0.914   6.043  12.589 -3.4259  1.1991 -0.9740
 9761TIP3   OH250773   5.561   1.990   2.207 -0.6025  0.6856  0.1417
 9761TIP3    H150774   5.628   2.008   2.141  0.9065 -0.4966  1.3076
 9761TIP3    H250775   5.597   2.025   2.288 -1.0068 -0.6813  0.9394
 9762TIP3   OH250776   4.614   4.411   4.475 -0.7615  0.0993  0.3554
 9762TIP3    H150777   4.697   4.437   4.513 -1.4567 -0.8207  2.5739
 9762TIP3    H250778   4.559   4.490   4.482 -0.8301 -0.0137  1.0820
 9763TIP3   OH250779   2.868   2.340   5.938 -0.4088 -0.1862  0.8190
 9763TIP3    H150780   2.912   2.425   5.928  1.2467 -1.3310 -2.3838
 9763TIP3    H250781   2.937   2.280   5.964 -1.0703 -1.0612  0.5763
 9764TIP3   OH250782   5.450   1.381  11.561  0.0174 -0.0852 -0.5959
 9764TIP3    H150783   5.432   1.292  11.589 -0.4673  0.4774  0.9331
 9764TIP3    H250784   5.538   1.400  11.594 -0.3553  0.4083  0.1211
 9765TIP3   OH250785   2.082   5.802  14.852  0.5092  0.2691  0.2416
 9765TIP3    H150786   2.126   5.881  14.884  1.0208  0.8696 -1.8282
 9765TIP3    H250787   2.006   5.791  14.910 -0.3427  3.0914 -0.2675
 9766TIP3   OH250788   6.460   0.612   0.964  0.3288  0.3253 -0.5047
 9766TIP3    H150789   6.387   0.675   0.965 -0.4870 -0.6093  0.3897
 9766TIP3    H250790   6.505   0.626   1.048  0.5870  0.2267 -0.6260
 9767TIP3   OH250791   3.380   5.497  10.507  0.5918  0.2961 -0.0840
 9767TIP3    H150792   3.410   5.532  10.424  0.7385 -0.2127 -0.2507
 9767TIP3    H250793   3.306   5.440  10.484 -0.8244  1.9126  0.3691
 9768TIP3   OH250794   1.024   2.656  10.834 -0.5503 -0.3263  0.2593
 9768TIP3    H150795   1.101   2.713  10.834 -1.0821  0.4060  1.4879
 9768TIP3    H250796   0.997   2.652  10.742  0.2100  0.4286 -0.0012
 9769TIP3   OH250797   5.798   5.323   1.646  0.0578 -0.2975  0.4906
 9769TIP3    H150798   5.871   5.261   1.656  0.7659  0.3653 -0.4364
 9769TIP3    H250799   5.773   5.315   1.554 -0.0090  0.6158  0.4298
 9770TIP3   OH250800   6.575   5.312  16.225  0.6935 -0.3443 -0.0410
 9770TIP3    H150801   6.593   5.244  16.160  1.0057  0.3699 -0.7064
 9770TIP3    H250802   6.479   5.313  16.232  0.5856  0.4167 -1.4040
 9771TIP3   OH250803   5.629   5.125   2.183  0.4589 -0.2240 -0.1873
 9771TIP3    H150804   5.673   5.163   2.107 -0.5207  1.2034 -0.0733
 9771TIP3    H250805   5.597   5.040   2.153 -2.4738  1.5419 -2.3079
 9772TIP3   OH250806   2.334   3.244   0.825 -0.0634 -0.2800 -0.4788
 9772TIP3    H150807   2.337   3.275   0.735  1.1812 -2.4533 -1.2290
 9772TIP3    H250808   2.273   3.171   0.823  0.9490 -1.1581  0.1548
 9773TIP3   OH250809   0.227   1.628  12.696  1.0541 -0.0440 -0.0963
 9773TIP3    H150810   0.165   1.698  12.678  0.0870  0.1744  3.6833
 9773TIP3    H250811   0.312   1.671  12.702  0.7332  0.5192  0.3755
 9774TIP3   OH250812   1.004   0.152   1.711  0.1502  0.3416  0.0048
 9774TIP3    H150813   1.008   0.230   1.656  0.7279  0.3733  0.0845
 9774TIP3    H250814   1.032   0.183   1.797  3.4380 -0.5812 -0.6688
 9775TIP3   OH250815   4.335   0.277   5.341 -0.2964 -0.3968  0.4396
 9775TIP3    H150816   4.276   0.343   5.304 -2.0643 -2.4032 -0.4786
 9775TIP3    H250817   4.317   0.279   5.435  1.9684  2.5782  0.8695
 9776TIP3   OH250818   6.074   3.851  13.235 -0.6786 -0.1313 -0.8012
 9776TIP3    H150819   5.980   3.835  13.224 -0.1964 -2.9814 -1.3021
 9776TIP3    H250820   6.097   3.911  13.164 -2.2463  1.1939 -0.2182
 9777TIP3   OH250821   6.097   3.879  14.867  0.6184 -0.4814 -0.5109
 9777TIP3    H150822   6.129   3.929  14.942  0.5039 -1.6636  0.3295
 9777TIP3    H250823   6.108   3.939  14.792  0.8742  0.6409  0.4121
 9778TIP3   OH250824   4.351   6.537   1.619  0.0107 -0.3111  0.0467
 9778TIP3    H150825   4.434   6.580   1.637 -0.4386  0.2656  0.7687
 9778TIP3    H250826   4.284   6.600   1.646 -0.6538 -1.0282  0.1142
 9779TIP3   OH250827   4.052   6.186   0.517  0.1413 -0.0094 -0.2661
 9779TIP3    H150828   4.139   6.226   0.520  0.5814 -0.9993  0.6149
 9779TIP3    H250829   4.063   6.102   0.563 -1.4962  0.2975  0.7300
 9780TIP3   OH250830   1.761   0.625  16.264  0.3212 -0.7526  0.2145
 9780TIP3    H150831   1.752   0.530  16.261 -0.7484 -0.6614  0.4663
 9780TIP3    H250832   1.684   0.655  16.312  1.8247  0.0710  2.1794
 9781TIP3   OH250833   6.409   0.278   6.519  0.1511  0.1546 -0.3948
 9781TIP3    H150834   6.437   0.226   6.594 -1.2389  0.1599  0.1574
 9781TIP3    H250835   6.384   0.363   6.556 -1.6834 -0.2366 -0.6707
 9782TIP3   OH250836   3.451   6.818  13.249 -0.4989  0.3556  0.3578
 9782TIP3    H150837   3.439   6.726  13.226 -1.0210  0.5626 -0.1819
 9782TIP3    H250838   3.472   6.816  13.343  0.5269 -0.3873  0.1269
 9783TIP3   OH250839   5.619   4.345  13.752 -0.0917  0.0678 -0.4735
 9783TIP3    H150840   5.676   4.324  13.826 -0.9291 -0.3572  0.0637
 9783TIP3    H250841   5.679   4.364  13.680  0.7217 -1.9816 -0.3722
 9784TIP3   OH250842   5.661   0.896   2.560  0.0604 -0.4563 -0.1400
 9784TIP3    H150843   5.691   0.975   2.605  0.4140 -0.9856  0.5898
 9784TIP3    H250844   5.735   0.836   2.567 -0.2303 -0.8762 -0.6242
 9785TIP3   OH250845   6.034   1.304   4.513  0.4531  0.2274  0.5858
 9785TIP3    H150846   6.051   1.258   4.431 -0.2011  1.3879 -0.2067
 9785TIP3    H250847   6.037   1.235   4.580  0.0255 -0.8820 -0.5171
 9786TIP3   OH250848   3.709   2.230   5.175  0.6975  0.8841 -0.2431
 9786TIP3    H150849   3.798   2.241   5.141  1.5256 -2.4559  0.6044
 9786TIP3    H250850   3.717   2.246   5.269  0.6506 -0.3360 -0.0146
 9787TIP3   OH250851   1.255   0.200   0.936  0.3179 -0.2782 -0.7448
 9787TIP3    H150852   1.234   0.120   0.983 -0.8641  0.2620 -0.3252
 9787TIP3    H250853   1.328   0.177   0.879  1.7227 -0.9504  1.3063
 9788TIP3   OH250854   4.667   4.108   5.137  0.0139  0.4620 -0.3087
 9788TIP3    H150855   4.650   4.014   5.126  0.7667  0.4237 -1.2226
 9788TIP3    H250856   4.580   4.146   5.154 -0.1482 -0.5341  1.1019
 9789TIP3   OH250857   1.885   3.337   1.720 -0.1171 -0.0022 -0.0758
 9789TIP3    H150858   1.879   3.242   1.731 -3.8083 -0.3172 -3.4476
 9789TIP3    H250859   1.844   3.373   1.798 -0.5705 -1.2603  0.2769
 9790TIP3   OH250860   3.735   4.758   2.436 -0.3793 -0.3165 -0.1444
 9790TIP3    H150861   3.688   4.840   2.426  0.5850 -0.0045 -2.5482
 9790TIP3    H250862   3.808   4.778   2.494  0.4570  0.8238 -1.5564
 9791TIP3   OH250863   4.470   3.094  14.458 -0.4014 -0.1208  0.1911
 9791TIP3    H150864   4.375   3.093  14.458 -0.3987 -0.3724  0.3829
 9791TIP3    H250865   4.495   3.097  14.551 -0.2261 -0.0538  0.1434
 9792TIP3   OH250866   3.346   1.013   1.824  0.4937 -0.0012  0.0067
 9792TIP3    H150867   3.272   0.997   1.765 -0.2824 -0.0916  1.0016
 9792TIP3    H250868   3.413   0.953   1.795  0.4470  0.5943 -1.3874
 9793TIP3   OH250869   5.540   6.121  13.819  0.7463  0.1069  0.1343
 9793TIP3    H150870   5.536   6.208  13.859  0.0989  0.3636 -0.4847
 9793TIP3    H250871   5.634   6.101  13.815  0.8927  0.7297  0.3705
 9794TIP3   OH250872   6.817   4.035  15.268  0.1526  0.2409  0.0151
 9794TIP3    H150873   6.735   4.084  15.273  0.8602  1.3321  1.0889
 9794TIP3    H250874   6.792   3.951  15.230 -1.1994  1.1511 -1.1485
 9795TIP3   OH250875   2.310   1.755   0.419  0.6273 -0.0215 -0.2538
 9795TIP3    H150876   2.382   1.785   0.364 -0.5519  1.8723 -0.7999
 9795TIP3    H250877   2.291   1.666   0.388  1.7287  0.0303 -1.0964
 9796TIP3   OH250878   4.295   2.777  12.839 -0.3011  0.1138  0.5527
 9796TIP3    H150879   4.317   2.804  12.928  1.1577  1.3400 -0.1544
 9796TIP3    H250880   4.367   2.720  12.812 -0.8945 -0.5094  0.2617
 9797TIP3   OH250881   3.212   5.062   0.989 -0.0570  1.1665  0.1293
 9797TIP3    H150882   3.183   4.989   0.935  0.2457  1.4699 -0.4486
 9797TIP3    H250883   3.200   5.031   1.079 -1.4162  0.9920 -0.0919
 9798TIP3   OH250884   4.614   2.146   3.455  0.5529  0.2669  0.5944
 9798TIP3    H150885   4.532   2.140   3.503  0.5673 -0.7569  0.5077
 9798TIP3    H250886   4.628   2.058   3.420  0.1955  1.1313 -1.8429
 9799TIP3   OH250887   5.648   4.275   3.288 -0.3051 -0.2942 -0.1639
 9799TIP3    H150888   5.694   4.348   3.331 -0.1617 -0.4524 -0.0485
 9799TIP3    H250889   5.691   4.197   3.321 -0.4484 -0.4325 -0.3029
 9800TIP3   OH250890   1.043   3.544  14.651 -0.2563  0.6194 -0.0826
 9800TIP3    H150891   1.063   3.460  14.609  1.9111  1.5404 -0.9344
 9800TIP3    H250892   0.958   3.569  14.616 -0.6348 -0.9194 -0.3051
 9801TIP3   OH250893   2.192   2.330   4.774 -0.0021 -0.2094  0.6666
 9801TIP3    H150894   2.277   2.335   4.731  0.7098 -0.3581  2.0204
 9801TIP3    H250895   2.158   2.420   4.771 -0.2011 -0.3285 -0.6636
 9802TIP3   OH250896   2.618   1.792   3.561 -0.3332 -0.6495 -0.0210
 9802TIP3    H150897   2.571   1.865   3.601 -0.0811  0.1251 -1.1309
 9802TIP3    H250898   2.636   1.733   3.634  1.0789  1.2686  1.2312
 9803TIP3   OH250899   3.369   0.419  12.734  0.1703  0.4642  0.4639
 9803TIP3    H150900   3.378   0.334  12.692 -1.2468 -0.5815  2.2321
 9803TIP3    H250901   3.304   0.465  12.682 -0.6598 -0.3543  0.7815
 9804TIP3   OH250902   1.984   2.620   4.635 -0.0812 -0.7845 -0.5108
 9804TIP3    H150903   2.050   2.628   4.704 -0.9519  1.8187  0.0708
 9804TIP3    H250904   1.902   2.608   4.682 -0.5382 -0.0713 -1.1296
 9805TIP3   OH250905   2.871   6.816  13.423 -0.0496 -0.6124  0.4904
 9805TIP3    H150906   2.960   6.833  13.392 -1.1432  1.0473 -1.9204
 9805TIP3    H250907   2.847   6.733  13.382  0.0913 -0.6689  0.5197
 9806TIP3   OH250908   0.678   4.665  14.245 -0.1319 -0.0332  0.3602
 9806TIP3    H150909   0.674   4.751  14.202 -0.4991 -0.8704 -1.3258
 9806TIP3    H250910   0.739   4.677  14.317 -0.0423  1.6048  0.0383
 9807TIP3   OH250911   2.324   4.351  12.201  0.0104  0.5825  0.1876
 9807TIP3    H150912   2.303   4.419  12.137  0.0936  0.7228  0.3081
 9807TIP3    H250913   2.243   4.299  12.208  0.1727  0.2379 -0.4304
 9808TIP3   OH250914   6.473   5.308   5.781  0.4017  0.1612 -0.1428
 9808TIP3    H150915   6.432   5.350   5.705  1.3950  0.4682 -0.5236
 9808TIP3    H250916   6.420   5.337   5.856 -2.2426 -2.3236 -0.9740
 9809TIP3   OH250917   1.389   3.151  14.794 -0.4410  0.1200  0.0346
 9809TIP3    H150918   1.366   3.171  14.885 -0.4690 -0.1139  0.0779
 9809TIP3    H250919   1.404   3.057  14.793 -0.0688  0.1763 -0.1193
 9810TIP3   OH250920   3.298   1.827  16.891 -0.0121 -0.0062  0.4978
 9810TIP3    H150921   3.224   1.885  16.907  0.4388  0.5314  0.6293
 9810TIP3    H250922   3.372   1.870  16.931  0.7791  0.4658 -1.4040
 9811TIP3   OH250923   2.067   3.465  16.722 -0.0460 -0.1504 -0.3312
 9811TIP3    H150924   1.971   3.471  16.722 -0.0279  0.2093  0.4799
 9811TIP3    H250925   2.093   3.500  16.807  0.7084 -2.0043  0.2353
 9812TIP3   OH250926   2.442   3.837   5.838  0.1055  0.7158  0.1063
 9812TIP3    H150927   2.491   3.902   5.788  2.1276 -0.0048  1.0771
 9812TIP3    H250928   2.367   3.884   5.873  0.1814  1.8956 -1.3040
 9813TIP3   OH250929   4.717   0.694   4.091 -0.1572  0.2204  0.1360
 9813TIP3    H150930   4.681   0.776   4.125 -2.6417 -0.8011  0.0592
 9813TIP3    H250931   4.662   0.673   4.016  1.5072 -0.6845 -0.8681
 9814TIP3   OH250932   3.262   4.999   3.286 -0.2402  0.2303  0.1497
 9814TIP3    H150933   3.249   5.085   3.325 -1.9818 -0.8553  2.1167
 9814TIP3    H250934   3.198   4.943   3.331  0.4297 -1.9486 -1.5155
 9815TIP3   OH250935   5.621   3.980  16.888  0.3316  0.3558 -0.3578
 9815TIP3    H150936   5.562   3.955  16.959 -0.4789  0.5795 -0.9545
 9815TIP3    H250937   5.686   4.038  16.930  1.5539 -1.7809  0.7985
 9816TIP3   OH250938   1.924   2.700   2.873 -0.0390  0.5242 -0.4095
 9816TIP3    H150939   1.932   2.655   2.958  0.7212  0.9405 -0.2564
 9816TIP3    H250940   1.954   2.789   2.891  0.3443  0.5472 -1.1744
 9817TIP3   OH250941   4.383   1.348   2.492 -0.1070  0.3027 -0.1885
 9817TIP3    H150942   4.362   1.426   2.544  0.6032  0.0610  0.4803
 9817TIP3    H250943   4.318   1.283   2.520 -0.9420  0.7686 -1.0307
 9818TIP3   OH250944   0.560   5.505   3.329  0.0835  0.0876  0.1559
 9818TIP3    H150945   0.641   5.547   3.301  0.5483 -1.0522 -0.2368
 9818TIP3    H250946   0.556   5.521   3.424  0.4464  0.6731  0.0724
 9819TIP3   OH250947   5.177   4.385  17.222 -0.5099 -0.1949  0.3568
 9819TIP3    H150948   5.214   4.438  17.293 -2.5396  1.9987 -0.1581
 9819TIP3    H250949   5.193   4.437  17.143 -1.9540 -0.6303 -0.2381
 9820TIP3   OH250950   0.765   6.244   1.002  0.3476  0.4887  0.7846
 9820TIP3    H150951   0.798   6.321   0.956  0.4906 -0.2473 -0.3575
 9820TIP3    H250952   0.789   6.170   0.946 -3.1998 -0.0932 -0.0988
 9821TIP3   OH250953   2.341   6.537   4.409  0.2381  0.1755  0.1040
 9821TIP3    H150954   2.384   6.584   4.338 -0.0324  1.1839  0.5912
 9821TIP3    H250955   2.334   6.447   4.378  1.3702  0.3112 -0.5757
 9822TIP3   OH250956   3.506   1.620  11.620  0.2202  0.8152 -0.2442
 9822TIP3    H150957   3.559   1.554  11.665 -0.6853  0.2199 -0.0548
 9822TIP3    H250958   3.503   1.591  11.529 -1.3659 -0.1746  0.1144
 9823TIP3   OH250959   5.663   5.740   3.337 -0.1827 -0.2114 -0.4358
 9823TIP3    H150960   5.741   5.698   3.300 -0.2915  1.4244 -2.5936
 9823TIP3    H250961   5.695   5.822   3.373 -0.6663 -0.2536  0.0939
 9824TIP3   OH250962   5.641   3.235   0.171 -0.1133 -0.3730 -0.5251
 9824TIP3    H150963   5.670   3.214   0.083  2.2256 -0.1929  0.1548
 9824TIP3    H250964   5.548   3.254   0.163  0.1553 -0.0405 -2.9902
 9825TIP3   OH250965   4.973   4.286   2.006  0.0525 -0.0291 -0.2981
 9825TIP3    H150966   4.940   4.374   1.988 -0.4341 -0.2826 -0.6392
 9825TIP3    H250967   4.903   4.227   1.976  1.1962 -0.5990 -1.9097
 9826TIP3   OH250968   5.852   2.830  10.913  0.3778  1.0680  0.3546
 9826TIP3    H150969   5.942   2.817  10.882  0.5672 -0.5813  1.5265
 9826TIP3    H250970   5.840   2.763  10.980 -2.3095  0.1462 -0.9659
 9827TIP3   OH250971   0.216   4.876   2.909  0.2268 -0.0564 -0.5581
 9827TIP3    H150972   0.229   4.971   2.900  0.4921  0.1803  2.0325
 9827TIP3    H250973   0.278   4.838   2.847  1.3366  1.4213 -0.3881
 9828TIP3   OH250974   3.664   3.789  12.467  0.3620  0.1389 -0.1495
 9828TIP3    H150975   3.672   3.878  12.502  0.7971 -0.2656  0.8037
 9828TIP3    H250976   3.570   3.771  12.470  0.4119  0.0475  0.9741
 9829TIP3   OH250977   3.641   6.504   0.996 -0.3897 -0.7156  0.3610
 9829TIP3    H150978   3.712   6.466   1.048 -0.4494  0.3772  1.2451
 9829TIP3    H250979   3.571   6.439   1.000 -0.4692 -0.5427  1.7983
 9830TIP3   OH250980   3.528   3.112   3.920 -0.0650 -0.3983 -0.1006
 9830TIP3    H150981   3.531   3.183   3.984  1.3228 -1.0010  0.5206
 9830TIP3    H250982   3.477   3.147   3.847 -1.1836  0.4958  1.0923
 9831TIP3   OH250983   4.907   4.247  14.152 -0.2777 -0.5743  0.1386
 9831TIP3    H150984   4.920   4.162  14.112 -0.6657 -0.9831  0.8604
 9831TIP3    H250985   4.994   4.274  14.180  0.0024 -0.2517 -1.0354
 9832TIP3   OH250986   2.081   3.269  11.822 -0.3253 -0.0045 -0.1737
 9832TIP3    H150987   2.135   3.326  11.767  2.7257 -1.3050  1.3268
 9832TIP3    H250988   2.087   3.307  11.910 -2.1597  0.0114 -0.0346
 9833TIP3   OH250989   6.563   6.022   1.723  0.2237 -0.1973 -0.7522
 9833TIP3    H150990   6.608   5.963   1.785 -1.3721 -1.9689 -1.2219
 9833TIP3    H250991   6.620   6.023   1.646  1.3043  0.5460  0.0457
 9834TIP3   OH250992   5.958   1.372   3.694 -0.0795  0.2704  0.4769
 9834TIP3    H150993   5.930   1.281   3.686  1.3237 -0.2220  0.9523
 9834TIP3    H250994   5.878   1.423   3.682 -0.9472 -1.0375  0.5821
 9835TIP3   OH250995   4.208   4.542  14.543 -0.4878 -0.9131 -0.4290
 9835TIP3    H150996   4.249   4.472  14.594  1.4869  1.4830  1.4034
 9835TIP3    H250997   4.115   4.537  14.565 -0.1414 -2.0345  0.8194
 9836TIP3   OH250998   5.314   5.020   6.406  0.4421  0.4568  0.2326
 9836TIP3    H150999   5.375   5.077   6.454 -0.9198  1.2859  1.0205
 9836TIP3    H251000   5.356   4.934   6.407  1.2463  0.8430  1.4290
 9837TIP3   OH251001   0.027   4.019   1.275 -1.0087  0.3685  0.1210
 9837TIP3    H151002  -0.040   4.040   1.340  0.3683 -1.0934  2.0466
 9837TIP3    H251003   0.056   4.104   1.243 -1.1238  1.1501  2.0331
 9838TIP3   OH251004   1.246   6.613   5.719  0.3120  1.0862  0.9793
 9838TIP3    H151005   1.222   6.627   5.810  0.0304  1.6690  0.8167
 9838TIP3    H251006   1.165   6.583   5.677  0.9050 -1.0457  1.3247
 9839TIP3   OH251007   6.522   0.876  14.111  0.0295 -0.0919 -0.2306
 9839TIP3    H151008   6.600   0.827  14.135  2.1383  2.8506 -0.7583
 9839TIP3    H251009   6.556   0.960  14.079 -3.3209  0.9622 -1.1792
 9840TIP3   OH251010   5.317   1.775  11.860 -0.2862 -0.3063  0.3131
 9840TIP3    H151011   5.222   1.768  11.866 -0.3454  0.2556  0.1034
 9840TIP3    H251012   5.336   1.866  11.886  0.0485  0.0618 -1.1323
 9841TIP3   OH251013   0.359   6.079   1.381  0.4437 -0.1231  0.0877
 9841TIP3    H151014   0.358   6.169   1.412 -1.3871  0.3258 -1.1789
 9841TIP3    H251015   0.287   6.036   1.427  1.1647 -0.8869  0.5205
 9842TIP3   OH251016   1.405   5.932   3.887 -1.0672 -0.4564  0.5404
 9842TIP3    H151017   1.336   5.866   3.879 -0.3925 -1.2189  1.0374
 9842TIP3    H251018   1.483   5.889   3.852 -1.4391  1.3849 -2.8092
 9843TIP3   OH251019   5.639   3.542   3.046 -0.6557 -0.4171 -0.6175
 9843TIP3    H151020   5.563   3.510   3.095 -1.5201  1.0019 -1.0113
 9843TIP3    H251021   5.606   3.618   2.998  1.3696  1.0928  0.3184
 9844TIP3   OH251022   5.909   4.172   4.331 -0.0687 -0.2615  0.0904
 9844TIP3    H151023   5.938   4.256   4.295 -0.7481 -0.1504 -0.2185
 9844TIP3    H251024   5.887   4.119   4.255 -3.3408  0.6358  0.3082
 9845TIP3   OH251025   6.060   0.547   4.347  0.2172  1.0146  0.8515
 9845TIP3    H151026   6.030   0.568   4.259  1.5008  0.5150  0.2684
 9845TIP3    H251027   6.084   0.454   4.342  0.9094  1.1484  1.5428
 9846TIP3   OH251028   2.997   3.043  13.910 -0.2484  0.8122  0.1042
 9846TIP3    H151029   3.083   3.047  13.867 -0.0318  2.1921  0.6360
 9846TIP3    H251030   2.939   3.007  13.843  0.5026  0.9817 -0.6634
 9847TIP3   OH251031   1.055   4.638   1.643 -0.2374 -0.1728  0.0564
 9847TIP3    H151032   1.136   4.683   1.668 -0.4728  0.0271  0.4554
 9847TIP3    H251033   1.027   4.593   1.722 -1.2066  0.7986  0.2878
 9848TIP3   OH251034   5.028   4.093  16.583 -0.1436 -0.2830 -0.0393
 9848TIP3    H151035   5.051   4.000  16.589  1.8849  0.0915 -1.6039
 9848TIP3    H251036   5.087   4.136  16.646 -1.1091 -0.0431  0.7169
 9849TIP3   OH251037   4.726   1.851   6.447  0.7370 -0.1159  0.0625
 9849TIP3    H151038   4.774   1.793   6.506 -1.1606 -0.4466  1.3301
 9849TIP3    H251039   4.697   1.924   6.503 -1.9800 -0.9546 -0.1750
 9850TIP3   OH251040   4.070   4.672   2.799 -0.1215  0.2944  0.4203
 9850TIP3    H151041   4.159   4.698   2.776 -0.3248  1.3650  0.8206
 9850TIP3    H251042   4.079   4.582   2.831  0.3981 -0.6500 -2.2165
 9851TIP3   OH251043   4.299   4.998  14.425 -0.0587  0.5697  0.2120
 9851TIP3    H151044   4.280   4.916  14.471  0.0270  0.1454 -0.5085
 9851TIP3    H251045   4.391   5.015  14.443 -0.3407  1.0626  1.2297
 9852TIP3   OH251046   4.765   6.443   0.487  0.5964 -0.1074  0.3360
 9852TIP3    H151047   4.845   6.470   0.532 -0.1787  0.1262  1.6245
 9852TIP3    H251048   4.789   6.364   0.439  1.2412 -0.9088  1.9392
 9853TIP3   OH251049   3.490   0.874   3.750  0.7475  0.0184  1.0263
 9853TIP3    H151050   3.400   0.869   3.719  2.1376 -1.2138 -3.0719
 9853TIP3    H251051   3.487   0.939   3.821 -2.8222  2.1520 -0.9315
 9854TIP3   OH251052   2.167   1.806  12.832  0.1371 -0.0801 -0.5486
 9854TIP3    H151053   2.131   1.787  12.919 -0.3426  1.5415 -0.3908
 9854TIP3    H251054   2.256   1.772  12.835  0.1781  0.1149  0.6243
 9855TIP3   OH251055   2.058   1.533   3.415  0.1141  0.3641 -0.1299
 9855TIP3    H151056   2.117   1.489   3.476 -0.8815 -0.9154 -0.0661
 9855TIP3    H251057   2.064   1.482   3.334 -1.7594 -0.4737  0.2393
 9856TIP3   OH251058   6.580   4.883  13.536  0.4764  0.6427  0.0943
 9856TIP3    H151059   6.543   4.965  13.570 -1.3246 -0.0416 -0.1469
 9856TIP3    H251060   6.508   4.843  13.486  1.2787 -1.1355  0.3131
 9857TIP3   OH251061   1.018   3.226  11.278  0.3391 -0.2411 -0.1612
 9857TIP3    H151062   1.092   3.226  11.218  0.0558 -2.8580 -0.5464
 9857TIP3    H251063   1.013   3.136  11.311 -0.0547  0.9026  3.1276
 9858TIP3   OH251064   6.343   1.323   2.650  0.2149  0.1692 -0.3877
 9858TIP3    H151065   6.407   1.289   2.588 -0.5504 -1.0186 -0.5518
 9858TIP3    H251066   6.323   1.248   2.707 -1.4171  0.3522 -0.6922
 9859TIP3   OH251067   4.972   3.500   0.861  0.0032  0.8711 -0.2756
 9859TIP3    H151068   5.050   3.555   0.868  0.6560 -0.0357 -0.3302
 9859TIP3    H251069   4.939   3.494   0.951  1.4225 -0.7718  0.1589
 9860TIP3   OH251070   0.961   1.593   2.720  0.1179  0.2553 -0.3396
 9860TIP3    H151071   1.054   1.589   2.700  0.1474  1.5608 -0.5187
 9860TIP3    H251072   0.921   1.627   2.640 -0.4616  0.0405 -0.1419
 9861TIP3   OH251073   2.375   5.450  13.751 -0.1155  0.5166  0.0096
 9861TIP3    H151074   2.301   5.507  13.730 -0.2194 -0.1595 -1.5518
 9861TIP3    H251075   2.365   5.376  13.692  1.5263  0.1692  0.1453
 9862TIP3   OH251076   4.729   6.328  17.142  0.0672  0.0041 -0.4249
 9862TIP3    H151077   4.664   6.384  17.101  1.3848  1.6930 -0.2673
 9862TIP3    H251078   4.800   6.321  17.077  0.6255 -0.1528  0.1927
 9863TIP3   OH251079   1.295   5.786  13.911 -0.0095  0.1548 -0.1769
 9863TIP3    H151080   1.208   5.789  13.870 -1.1818  0.9164  2.2603
 9863TIP3    H251081   1.318   5.878  13.923  0.7135 -0.0565  0.0495
 9864TIP3   OH251082   4.003   4.000  14.532 -0.0472 -0.4219 -0.4164
 9864TIP3    H151083   3.976   3.908  14.538 -1.4610 -0.0209 -0.6906
 9864TIP3    H251084   4.076   3.999  14.469  0.5123 -1.4708  0.2252
 9865TIP3   OH251085   2.746   0.610   4.289 -0.1625  0.5942 -0.3562
 9865TIP3    H151086   2.803   0.687   4.295  0.6261  0.0468 -0.7257
 9865TIP3    H251087   2.806   0.536   4.287 -0.9249 -0.0497  0.1641
 9866TIP3   OH251088   0.580   2.124  11.612 -0.6419 -0.2217 -0.4982
 9866TIP3    H151089   0.492   2.087  11.617 -0.2527 -1.1039 -0.1046
 9866TIP3    H251090   0.575   2.186  11.539 -1.6307 -0.1454 -0.3773
 9867TIP3   OH251091   2.133   6.264   0.837 -0.1538 -0.4929 -0.1931
 9867TIP3    H151092   2.117   6.170   0.827 -1.2025 -0.3592  0.1863
 9867TIP3    H251093   2.150   6.275   0.930 -0.6423 -0.2088 -0.1411
 9868TIP3   OH251094   3.838   0.462   0.372 -0.0460  0.1964 -0.0787
 9868TIP3    H151095   3.816   0.554   0.361  1.3506  0.4789 -0.7376
 9868TIP3    H251096   3.822   0.423   0.286 -0.8647 -0.2282  0.2648
 9869TIP3   OH251097   0.870   2.399   3.251  0.2296  0.0524  0.1188
 9869TIP3    H151098   0.936   2.331   3.239 -0.4004 -0.5535  0.1228
 9869TIP3    H251099   0.906   2.455   3.320  0.5292 -0.5272  0.4292
 9870TIP3   OH251100   1.941   4.665   3.979 -0.1143  0.3279  0.1284
 9870TIP3    H151101   1.855   4.696   4.006 -0.1684  0.6793 -0.4410
 9870TIP3    H251102   1.988   4.651   4.061 -0.0649  1.9796  0.4103
 9871TIP3   OH251103   6.720   1.963   0.906  0.3825  0.8905  0.7353
 9871TIP3    H151104   6.735   1.869   0.907 -1.6946  0.5184 -0.4432
 9871TIP3    H251105   6.770   1.995   0.831 -0.3123  0.4446  0.0692
 9872TIP3   OH251106   5.555   4.806  14.913  0.4621  0.0028 -0.0325
 9872TIP3    H151107   5.631   4.853  14.947 -0.4267 -0.2192  2.3711
 9872TIP3    H251108   5.538   4.737  14.978 -0.6690 -1.1280 -1.4805
 9873TIP3   OH251109   5.873   5.954  16.454  0.0360 -0.6827 -0.0415
 9873TIP3    H151110   5.941   6.017  16.477 -1.5056  0.3565  1.8220
 9873TIP3    H251111   5.823   5.996  16.384 -1.1844  0.3352  1.4174
 9874TIP3   OH251112   2.575   5.159   4.170 -0.2503  0.3704 -0.8944
 9874TIP3    H151113   2.531   5.115   4.097 -1.2012 -0.7115  0.2989
 9874TIP3    H251114   2.626   5.089   4.212  0.5803  1.0641 -0.7471
 9875TIP3   OH251115   3.165   1.191  12.929 -0.1117  0.4244  0.1399
 9875TIP3    H151116   3.147   1.187  13.023  2.4980  0.0435  0.6585
 9875TIP3    H251117   3.186   1.283  12.912 -0.5838  0.4944 -0.0769
 9876TIP3   OH251118   1.054   0.478  16.540  0.3499 -0.9204  0.2040
 9876TIP3    H151119   1.105   0.504  16.463  2.0597  0.3407  1.7140
 9876TIP3    H251120   0.986   0.546  16.547  0.4607 -0.7955  0.0725
 9877TIP3   OH251121   5.995   4.774  15.747 -0.6434 -0.5778 -0.7443
 9877TIP3    H151122   5.980   4.816  15.663 -3.4035 -0.8012 -0.4100
 9877TIP3    H251123   5.963   4.838  15.811  0.0916 -1.0069  0.0606
 9878TIP3   OH251124   1.271   3.940   3.121  0.2706 -0.0107 -0.0091
 9878TIP3    H151125   1.327   3.882   3.173  0.4280  0.2244  0.0815
 9878TIP3    H251126   1.306   3.932   3.032  0.6951  0.4390  0.1168
 9879TIP3   OH251127   0.954   1.028  15.197 -0.0197 -0.1397 -0.5613
 9879TIP3    H151128   0.884   0.984  15.149  0.3287 -0.9102 -0.3760
 9879TIP3    H251129   0.917   1.047  15.283  0.5553 -2.1842  0.1778
 9880TIP3   OH251130   2.519   3.621  14.234 -1.0923 -0.3369 -0.3142
 9880TIP3    H151131   2.506   3.642  14.327  0.0269 -1.2485  0.0680
 9880TIP3    H251132   2.434   3.639  14.193 -2.0484 -1.3690  1.1571
 9881TIP3   OH251133   2.512   2.449  12.941 -0.2033 -0.1044 -0.1034
 9881TIP3    H151134   2.459   2.432  13.019 -0.8805 -0.7043 -0.6925
 9881TIP3    H251135   2.602   2.437  12.971 -0.4464 -0.0801  0.6545
 9882TIP3   OH251136   1.272   2.384   6.288  0.0553 -0.2969 -0.5230
 9882TIP3    H151137   1.326   2.311   6.319 -1.3752 -1.4061 -0.5810
 9882TIP3    H251138   1.200   2.389   6.352  0.1730  1.0907 -0.4960
 9883TIP3   OH251139   4.980   1.717  15.724 -0.0134 -0.4375  0.1388
 9883TIP3    H151140   4.925   1.795  15.733 -0.2265 -0.3843 -1.4451
 9883TIP3    H251141   4.922   1.645  15.749 -0.0738 -0.1669  0.7871
 9884TIP3   OH251142   4.797   0.519  15.224  0.0109 -0.6024 -0.7854
 9884TIP3    H151143   4.766   0.594  15.274  1.4029  0.2659 -1.1958
 9884TIP3    H251144   4.849   0.468  15.286 -0.8252 -1.1775 -0.5425
 9885TIP3   OH251145   2.947   4.593  11.473  0.6105  0.4401  0.0573
 9885TIP3    H151146   2.944   4.673  11.421  1.6699 -0.5032 -1.5466
 9885TIP3    H251147   2.869   4.596  11.528 -0.5777  1.4697 -1.6455
 9886TIP3   OH251148   1.624   3.652   3.673 -0.2009  0.3392 -0.8413
 9886TIP3    H151149   1.574   3.724   3.712 -0.1574  1.7835 -3.3841
 9886TIP3    H251150   1.713   3.664   3.705 -0.2728  1.1774 -0.9630
 9887TIP3   OH251151   6.231   5.621  17.066  0.3815 -0.6360  0.2061
 9887TIP3    H151152   6.303   5.684  17.057  1.5016 -1.8797  0.3626
 9887TIP3    H251153   6.259   5.563  17.137 -0.3065 -1.7506 -0.4196
 9888TIP3   OH251154   1.407   3.951  12.582  0.1524  0.5946  0.2176
 9888TIP3    H151155   1.319   3.977  12.610 -0.8803 -0.5907 -1.8098
 9888TIP3    H251156   1.423   3.867  12.624  0.1367  0.5911  0.2167
 9889TIP3   OH251157   6.040   1.882   5.646 -0.3027  0.6673 -0.4621
 9889TIP3    H151158   6.100   1.916   5.713 -1.7650  1.3364  0.5240
 9889TIP3    H251159   6.097   1.865   5.571  1.0886  1.5591  0.3466
 9890TIP3   OH251160   1.716   1.777  11.611 -0.0697 -0.1644 -0.0375
 9890TIP3    H151161   1.634   1.771  11.659  0.1112 -0.6266  0.2159
 9890TIP3    H251162   1.748   1.687  11.606  0.9674  0.1500  0.8237
 9891TIP3   OH251163   3.691   0.466  14.966 -0.0089 -0.2470 -0.0907
 9891TIP3    H151164   3.782   0.481  14.941 -0.3253 -0.5738 -1.4717
 9891TIP3    H251165   3.651   0.553  14.961 -0.1272 -0.3518 -0.9433
 9892TIP3   OH251166   1.522   5.070  17.035 -0.1815  0.3073 -0.1264
 9892TIP3    H151167   1.585   4.998  17.030 -0.1508  0.1395  2.2393
 9892TIP3    H251168   1.544   5.126  16.960  0.0332 -1.9233 -1.7645
 9893TIP3   OH251169   3.304   6.109   0.232  0.4181  0.3709  0.1246
 9893TIP3    H151170   3.263   6.171   0.292  0.4572  1.4070 -0.8856
 9893TIP3    H251171   3.398   6.123   0.245  0.4469 -0.5692  0.9875
 9894TIP3   OH251172   0.670   0.251   3.851  0.4367  0.7863 -0.4145
 9894TIP3    H151173   0.610   0.193   3.805  2.3297 -0.5383 -1.2962
 9894TIP3    H251174   0.710   0.303   3.782 -0.0773  2.0401  0.2204
 9895TIP3   OH251175   0.114   3.666   1.006  0.0536 -0.4410 -0.4002
 9895TIP3    H151176   0.089   3.707   1.089 -1.5357  0.1546 -1.1393
 9895TIP3    H251177   0.081   3.576   1.013  0.3324 -0.5266 -0.1982
 9896TIP3   OH251178   2.502   0.486   4.375 -0.2784 -0.2805  0.2758
 9896TIP3    H151179   2.521   0.398   4.407 -0.4567 -0.8426 -1.1191
 9896TIP3    H251180   2.587   0.519   4.344 -0.5272 -0.6525 -0.8299
 9897TIP3   OH251181   2.862   4.427  13.228  0.2615  0.1655  0.3020
 9897TIP3    H151182   2.913   4.350  13.203 -0.2379  0.5812 -2.1612
 9897TIP3    H251183   2.905   4.461  13.306  0.4695 -2.6065  1.4449
 9898TIP3   OH251184   3.949   6.081   3.679  0.5761 -0.6784  0.0148
 9898TIP3    H151185   3.927   6.076   3.772  0.7646  0.6808  0.1454
 9898TIP3    H251186   3.938   6.174   3.657  2.8922 -0.5558 -0.7250
 9899TIP3   OH251187   3.166   6.578  16.546 -0.1770 -0.2311  0.0033
 9899TIP3    H151188   3.170   6.501  16.602  2.0253 -0.0635  0.1318
 9899TIP3    H251189   3.127   6.646  16.600 -3.3657 -1.5711 -0.5339
 9900TIP3   OH251190   4.817   6.648  14.236  0.5518  0.0372 -0.7014
 9900TIP3    H151191   4.834   6.710  14.165  1.7161 -0.8429 -1.1975
 9900TIP3    H251192   4.886   6.582  14.228  0.1433 -0.5770  0.6750
 9901TIP3   OH251193   4.660   1.902  12.320 -0.1152 -0.3362 -0.2822
 9901TIP3    H151194   4.750   1.934  12.318  0.6482 -2.4499 -0.2950
 9901TIP3    H251195   4.665   1.815  12.359 -2.1148 -0.5952 -0.5161
 9902TIP3   OH251196   2.779   0.545  14.883  0.1688 -0.5631  0.0859
 9902TIP3    H151197   2.809   0.636  14.880 -4.0814  0.9536  0.6169
 9902TIP3    H251198   2.736   0.531  14.799 -2.0182 -1.0252  1.2513
 9903TIP3   OH251199   4.132   2.924   4.881 -0.5259  0.1985 -0.2537
 9903TIP3    H151200   4.124   2.967   4.796  1.1254 -2.4535 -1.8215
 9903TIP3    H251201   4.105   2.833   4.864  1.8421 -0.8887  1.5402
 9904TIP3   OH251202   2.690   4.374  16.088 -0.3039 -0.3288  0.2239
 9904TIP3    H151203   2.654   4.368  15.999 -0.4468 -0.2729  0.2773
 9904TIP3    H251204   2.628   4.326  16.142  1.0220 -2.4301 -0.0595
 9905TIP3   OH251205   2.364   5.337  12.798  0.3482 -0.1521 -0.1053
 9905TIP3    H151206   2.450   5.360  12.834  0.7125 -0.9959 -0.4234
 9905TIP3    H251207   2.352   5.397  12.725 -0.6445  1.9764  1.7352
 9906TIP3   OH251208   6.483   4.035  11.270  0.3538  0.1604 -0.1202
 9906TIP3    H151209   6.574   4.053  11.250  0.5346 -0.0047  0.5458
 9906TIP3    H251210   6.466   4.081  11.352  0.5074 -1.7370  0.9991
 9907TIP3   OH251211   5.572   2.906   0.116  0.0945  0.5037 -0.2408
 9907TIP3    H151212   5.562   2.833   0.055 -2.9148  0.6552  0.0224
 9907TIP3    H251213   5.552   2.984   0.065  1.7950  1.0620 -0.1157
 9908TIP3   OH251214   6.253   0.269  13.057 -0.9518 -0.0557  0.1760
 9908TIP3    H151215   6.220   0.204  12.994 -1.1671  2.1843 -2.1264
 9908TIP3    H251216   6.347   0.253  13.061 -1.0129 -0.5753 -0.3459
 9909TIP3   OH251217   5.603   3.283  13.674  0.1194 -0.3876  0.5167
 9909TIP3    H151218   5.666   3.327  13.617 -2.0421  1.3542 -0.6033
 9909TIP3    H251219   5.633   3.192  13.678  1.7930  0.0671 -1.2909
 9910TIP3   OH251220   1.699   1.246   5.673 -0.2065 -0.1321  0.1462
 9910TIP3    H151221   1.737   1.240   5.586 -2.1902  0.1082 -0.7673
 9910TIP3    H251222   1.677   1.155   5.696 -0.3193 -0.1158  0.1022
 9911TIP3   OH251223   5.766   2.896   2.589 -0.1997  0.4501  0.1746
 9911TIP3    H151224   5.819   2.865   2.662 -1.4345  1.1322  1.3959
 9911TIP3    H251225   5.676   2.884   2.619 -0.7121  0.8661 -1.1935
 9912TIP3   OH251226   2.463   6.107   3.221  0.4423  0.1775 -0.1762
 9912TIP3    H151227   2.537   6.168   3.217 -1.5450  2.6785 -0.6148
 9912TIP3    H251228   2.461   6.066   3.134 -0.2352  2.0551 -1.0760
 9913TIP3   OH251229   1.652   4.900   5.267  0.3422 -0.2371 -0.2363
 9913TIP3    H151230   1.642   4.944   5.351 -1.0399 -1.7390  0.4083
 9913TIP3    H251231   1.731   4.938   5.229  0.9228  0.5217  1.6875
 9914TIP3   OH251232   6.187   5.118   0.141  0.1930 -0.6502  0.3378
 9914TIP3    H151233   6.237   5.160   0.071 -0.7720 -0.4744 -0.2466
 9914TIP3    H251234   6.248   5.116   0.216  1.3715 -1.2131 -0.6063
 9915TIP3   OH251235   1.093   1.629  16.660 -0.1987 -0.8046  0.3039
 9915TIP3    H151236   1.066   1.646  16.751 -1.2016 -0.9254  0.0376
 9915TIP3    H251237   1.127   1.540  16.661 -1.2295 -1.2096  0.3546
 9916TIP3   OH251238   4.360   2.199  13.941  0.2815  0.3601  0.0055
 9916TIP3    H151239   4.310   2.278  13.960 -1.3987 -0.8208  0.5677
 9916TIP3    H251240   4.435   2.204  14.001  1.3212  2.5315 -1.4014
 9917TIP3   OH251241   2.244   5.738   5.385 -0.3641  0.2389 -0.2421
 9917TIP3    H151242   2.232   5.806   5.452 -0.4733  0.4063 -0.4310
 9917TIP3    H251243   2.160   5.735   5.339 -0.6082 -0.5185  0.2279
 9918TIP3   OH251244   4.109   5.468   5.431 -0.4156  0.9365  0.0226
 9918TIP3    H151245   4.049   5.472   5.356 -0.4597  0.1989  0.0185
 9918TIP3    H251246   4.055   5.491   5.506 -0.8902 -0.4354  0.1207
 9919TIP3   OH251247   1.397   4.448  11.748 -0.0543 -0.8272  0.5463
 9919TIP3    H151248   1.435   4.470  11.663 -0.5446 -1.5684  0.1305
 9919TIP3    H251249   1.418   4.355  11.760 -0.3303 -0.8224  1.0557
 9920TIP3   OH251250   0.903   3.417  11.834  0.9717  0.3508  0.2957
 9920TIP3    H151251   0.979   3.364  11.856 -0.3595 -0.5634  2.9874
 9920TIP3    H251252   0.848   3.359  11.781  0.0911 -0.6127  2.1962
 9921TIP3   OH251253   1.076   0.603  14.942  0.7695  0.1334  0.2258
 9921TIP3    H151254   1.077   0.645  14.857  2.4077  0.0851  0.1981
 9921TIP3    H251255   1.006   0.537  14.936 -0.0842  1.1044 -0.5776
 9922TIP3   OH251256   1.613   0.761   4.613  0.2067 -0.6281 -0.2608
 9922TIP3    H151257   1.628   0.780   4.520  1.9599  0.4160  0.2060
 9922TIP3    H251258   1.521   0.736   4.618 -0.5885  1.7640 -1.9130
 9923TIP3   OH251259   0.195   2.455   0.771  0.2643  0.5275  0.5868
 9923TIP3    H151260   0.197   2.385   0.705 -0.6839 -0.0295  1.1511
 9923TIP3    H251261   0.224   2.533   0.723 -1.1804  0.2940 -0.6912
 9924TIP3   OH251262   1.844   5.044  16.816  0.2180 -0.3794  0.3273
 9924TIP3    H151263   1.782   5.114  16.837  1.1121  1.0077 -1.5642
 9924TIP3    H251264   1.795   4.964  16.835 -2.6848  0.6169 -2.4174
 9925TIP3   OH251265   6.489   0.962   1.099  0.0956  0.4176 -0.2329
 9925TIP3    H151266   6.527   0.877   1.120 -3.4675 -1.1247  0.3392
 9925TIP3    H251267   6.420   0.975   1.164 -0.9600  2.6620 -1.7126
 9926TIP3   OH251268   0.285   4.670   0.007 -0.0719  0.0750 -0.1554
 9926TIP3    H151269   0.308   4.584   0.040 -1.4365 -0.0535  0.5025
 9926TIP3    H251270   0.368   4.711  -0.015  0.6670 -0.8514  0.9119
 9927TIP3   OH251271   1.375   5.351  16.683  0.0483  0.4281 -0.2916
 9927TIP3    H151272   1.327   5.431  16.662  0.1507 -0.2005 -3.0650
 9927TIP3    H251273   1.462   5.364  16.645 -0.0702 -1.1547 -1.1564
 9928TIP3   OH251274   5.894   3.475   4.816 -0.3975 -0.1000  0.1995
 9928TIP3    H151275   5.903   3.556   4.766 -0.8089 -0.7687 -0.9732
 9928TIP3    H251276   5.850   3.414   4.756  0.3096 -1.3352  0.9169
 9929TIP3   OH251277   1.852   3.311   2.133  0.1061 -0.0935 -0.7930
 9929TIP3    H151278   1.822   3.353   2.213 -0.4985  0.1470 -1.1405
 9929TIP3    H251279   1.826   3.371   2.063 -2.4004 -1.8596 -1.4599
 9930TIP3   OH251280   2.212   3.179  12.073  0.5652  0.2530  0.4575
 9930TIP3    H151281   2.243   3.116  12.138  1.0091  1.1552  1.1425
 9930TIP3    H251282   2.132   3.216  12.111 -0.7249 -1.2062 -0.7677
 9931TIP3   OH251283   4.846   2.272   2.510  0.6403 -0.3106  0.1457
 9931TIP3    H151284   4.922   2.256   2.454 -0.0814 -0.5343 -0.7712
 9931TIP3    H251285   4.879   2.332   2.577  1.1010  1.3427 -1.4895
 9932TIP3   OH251286   3.427   6.484   5.541 -0.5236  0.1958 -0.6622
 9932TIP3    H151287   3.510   6.446   5.514  0.6795  3.0357 -1.0733
 9932TIP3    H251288   3.394   6.425   5.609  3.0364  0.4059  1.3163
 9933TIP3   OH251289   4.584   0.272  15.774  0.7654  0.4428 -0.3008
 9933TIP3    H151290   4.571   0.181  15.748  1.0088  0.0875  0.8024
 9933TIP3    H251291   4.495   0.306  15.785  0.6739  0.3197 -0.6768
 9934TIP3   OH251292   2.078   4.527   4.684 -0.2018 -0.2594  0.3447
 9934TIP3    H151293   2.144   4.458   4.696 -1.4357 -1.4850  0.2668
 9934TIP3    H251294   2.128   4.604   4.659  1.1870 -1.2152  0.0933
 9935TIP3   OH251295   4.966   4.968   0.781 -0.4019 -0.1228  0.5976
 9935TIP3    H151296   5.019   4.958   0.702  1.0078  1.1803  1.3488
 9935TIP3    H251297   4.971   4.883   0.824  0.5325 -0.2168  0.3207
 9936TIP3   OH251298   2.593   1.142   1.214 -0.1997  0.5040 -0.2693
 9936TIP3    H151299   2.506   1.104   1.212  0.8592 -1.9964 -0.5762
 9936TIP3    H251300   2.581   1.227   1.257 -2.9047  0.6144 -1.1657
 9937TIP3   OH251301   0.701   5.822   1.603 -0.5854  0.6542 -0.2930
 9937TIP3    H151302   0.662   5.835   1.516  0.6895 -0.5995 -1.0789
 9937TIP3    H251303   0.703   5.727   1.615  3.1103  0.6022 -0.7392
 9938TIP3   OH251304   0.224   6.577   3.617 -0.2180  0.0818  0.1484
 9938TIP3    H151305   0.177   6.633   3.556  0.5848 -0.8065 -1.3043
 9938TIP3    H251306   0.316   6.598   3.604 -0.0156 -0.4252  0.7425
 9939TIP3   OH251307   3.989   2.538  14.644  0.2382 -0.1430 -0.5206
 9939TIP3    H151308   3.918   2.504  14.698  0.7833 -1.9024 -0.8711
 9939TIP3    H251309   4.053   2.572  14.706 -1.0392  1.8001 -0.2086
 9940TIP3   OH251310   1.513   0.052   1.386  0.4153 -0.1225  0.1317
 9940TIP3    H151311   1.436   0.007   1.419  0.4357 -1.6662 -1.8273
 9940TIP3    H251312   1.583  -0.013   1.389  1.2052  0.7222  0.2317
 9941TIP3   OH251313   4.118   3.559  12.470  0.2241  0.6346 -0.0487
 9941TIP3    H151314   4.121   3.499  12.396 -0.3719 -0.1101  0.5169
 9941TIP3    H251315   4.024   3.575  12.484  0.3312  0.7535  0.5623
 9942TIP3   OH251316   0.843   4.620   4.401  0.4133  0.3768 -0.5923
 9942TIP3    H151317   0.803   4.666   4.474 -1.9140 -1.9698 -0.3038
 9942TIP3    H251318   0.785   4.637   4.327  2.6267  2.5464 -1.8940
 9943TIP3   OH251319   4.429   0.871   6.379 -0.5891 -0.3732  0.2628
 9943TIP3    H151320   4.520   0.843   6.388 -0.9011 -1.5750 -0.1991
 9943TIP3    H251321   4.387   0.843   6.460 -0.3693  0.9703  0.8644
 9944TIP3   OH251322   3.767   1.423   2.721 -0.0326  0.0279 -0.1638
 9944TIP3    H151323   3.743   1.392   2.809  0.6997 -1.2979 -0.4169
 9944TIP3    H251324   3.690   1.471   2.691 -0.3939  0.2671  1.1045
 9945TIP3   OH251325   5.261   1.917  15.979  0.2818  0.6273 -0.3489
 9945TIP3    H151326   5.303   1.872  16.052 -1.0330  1.4250  0.9412
 9945TIP3    H251327   5.242   1.848  15.915  1.5510 -0.0574  0.0053
 9946TIP3   OH251328   0.592   0.008  11.357  0.1808 -0.3498 -0.0859
 9946TIP3    H151329   0.604   0.029  11.450 -1.5397  0.5518 -0.0635
 9946TIP3    H251330   0.611  -0.086  11.352 -0.9729 -0.6935  1.4139
 9947TIP3   OH251331   4.652   6.250  13.133  0.5269  0.2967  0.3464
 9947TIP3    H151332   4.684   6.276  13.220  0.5918  2.0603 -0.1870
 9947TIP3    H251333   4.557   6.267  13.137  0.7722  1.9709 -0.4532
 9948TIP3   OH251334   2.529   1.053   5.590 -0.0273 -0.3147  0.0129
 9948TIP3    H151335   2.555   0.970   5.630  1.3494  0.8497  1.6223
 9948TIP3    H251336   2.607   1.083   5.543 -0.0401  0.7600  0.6620
 9949TIP3   OH251337   0.239   0.859  13.478 -0.0661 -0.1357  0.2883
 9949TIP3    H151338   0.162   0.905  13.445  0.3537  0.2438 -0.1579
 9949TIP3    H251339   0.248   0.889  13.568  0.9657  1.6517 -0.3936
 9950TIP3   OH251340   5.188   6.348   5.031  0.0514 -0.0322 -0.1046
 9950TIP3    H151341   5.164   6.279   4.969  1.1769 -0.8934  0.4120
 9950TIP3    H251342   5.208   6.302   5.112 -1.1957  1.0732  0.8688
 9951TIP3   OH251343   3.425   6.378   4.549 -0.0002 -0.1925 -0.0035
 9951TIP3    H151344   3.449   6.356   4.639  1.4392 -0.3793 -0.4220
 9951TIP3    H251345   3.352   6.439   4.558  0.5379  0.2737  1.3111
 9952TIP3   OH251346   4.813   5.110   0.528  0.1344 -0.3388  0.7299
 9952TIP3    H151347   4.899   5.152   0.520 -0.2309  0.5471  1.3416
 9952TIP3    H251348   4.801   5.098   0.622 -1.0339  0.8855  0.7596
 9953TIP3   OH251349   5.989   2.461   1.661 -0.4128 -0.2371 -0.2694
 9953TIP3    H151350   5.949   2.485   1.744 -1.0704  1.4461 -1.0391
 9953TIP3    H251351   6.027   2.374   1.676 -1.8507 -0.6134  1.3170
 9954TIP3   OH251352   5.644   6.413  14.766 -0.0176 -0.3545  0.2804
 9954TIP3    H151353   5.696   6.435  14.843 -0.5197 -0.7426  0.7330
 9954TIP3    H251354   5.647   6.318  14.761 -0.1270 -0.3407 -0.0777
 9955TIP3   OH251355   2.266   0.293  12.860  0.2212 -0.3274  0.4013
 9955TIP3    H151356   2.284   0.376  12.817  2.5787 -1.2787 -0.5115
 9955TIP3    H251357   2.291   0.226  12.796  1.1828 -1.7517  2.2086
 9956TIP3   OH251358   6.594   4.345  12.083  0.0744  0.1057  0.5618
 9956TIP3    H151359   6.618   4.407  12.015  0.0445 -1.5873 -1.0486
 9956TIP3    H251360   6.498   4.352  12.088  0.0815  0.2823  0.4734
 9957TIP3   OH251361   5.508   4.364   3.658  0.3861  0.1252  0.7431
 9957TIP3    H151362   5.588   4.312   3.649  0.3783  0.1276  0.6580
 9957TIP3    H251363   5.452   4.312   3.715 -0.3353 -0.8180 -0.7748
 9958TIP3   OH251364   5.141   0.173  14.740  0.3526  0.5898 -0.2223
 9958TIP3    H151365   5.094   0.257  14.742  0.2588  0.5578 -1.1712
 9958TIP3    H251366   5.132   0.142  14.650  1.4393  0.1456 -0.1831
 9959TIP3   OH251367   0.974   6.789  14.639  0.6344 -0.6833  0.1427
 9959TIP3    H151368   0.905   6.842  14.679  2.3842  1.0344  0.9807
 9959TIP3    H251369   1.010   6.843  14.570  0.2029 -2.1454 -1.2586
 9960TIP3   OH251370   3.481   1.891   0.978 -0.2310 -0.7202  0.1924
 9960TIP3    H151371   3.551   1.950   1.003 -0.0109 -0.9807  0.1962
 9960TIP3    H251372   3.428   1.881   1.057 -1.9165  1.7239 -0.5694
 9961TIP3   OH251373   1.461   2.656   3.406  0.3821 -0.2520 -0.3202
 9961TIP3    H151374   1.428   2.722   3.468  0.3367 -0.7754  0.2125
 9961TIP3    H251375   1.388   2.641   3.346  0.1766 -0.2722 -0.0669
 9962TIP3   OH251376   1.312   2.903   6.509 -0.4288 -0.4339  0.1272
 9962TIP3    H151377   1.404   2.922   6.494  0.6224 -4.5484  0.7985
 9962TIP3    H251378   1.278   2.881   6.422 -0.0945 -1.4855  0.2533
 9963TIP3   OH251379   4.272   2.033  12.938  0.8140 -0.5753  0.9302
 9963TIP3    H151380   4.262   1.940  12.918 -0.3634 -0.4898  1.0853
 9963TIP3    H251381   4.205   2.051  13.003  1.3060  0.2975  1.2087
 9964TIP3   OH251382   4.410   5.646   0.929 -0.3964 -0.8661  0.2073
 9964TIP3    H151383   4.457   5.718   0.886  0.4151 -1.9026 -0.7048
 9964TIP3    H251384   4.459   5.631   1.010  0.4098 -1.4123 -0.3595
 9965TIP3   OH251385   1.221   5.518   2.964  0.5380  0.5027 -0.5411
 9965TIP3    H151386   1.226   5.427   2.936  1.1607  0.0793  0.8932
 9965TIP3    H251387   1.270   5.567   2.898  0.0708 -0.1765 -1.3977
 9966TIP3   OH251388   6.729   4.018  13.941 -0.1198  0.1348 -0.3751
 9966TIP3    H151389   6.770   4.020  13.855  0.9119  0.2074  0.1124
 9966TIP3    H251390   6.714   4.111  13.963  1.0871  0.1940  0.2148
 9967TIP3   OH251391   2.217   1.874   1.665 -0.0504 -0.6543  0.0307
 9967TIP3    H151392   2.172   1.815   1.724  0.8363 -0.2881  1.0927
 9967TIP3    H251393   2.308   1.844   1.666  0.1675 -0.0117 -0.3526
 9968TIP3   OH251394   0.044   0.726  12.898 -0.2901  0.3237  0.2194
 9968TIP3    H151395   0.058   0.759  12.987 -1.0787 -0.6516  0.7210
 9968TIP3    H251396   0.092   0.787  12.842  1.5431  0.0443  1.4314
 9969TIP3   OH251397   6.812   0.093   2.892  0.3153 -0.2529  0.2866
 9969TIP3    H151398   6.752   0.168   2.884  1.3225  0.5877  0.4693
 9969TIP3    H251399   6.775   0.040   2.962  0.1866  0.6565  0.9224
 9970TIP3   OH251400   4.382   1.039  11.418 -0.3162  0.0102 -0.3891
 9970TIP3    H151401   4.375   1.070  11.508  0.9930 -1.8604  0.3693
 9970TIP3    H251402   4.443   1.100  11.377  2.4799 -1.6051  1.1815
 9971TIP3   OH251403   3.295   1.679  13.773 -0.0224 -0.3810 -0.2374
 9971TIP3    H151404   3.217   1.726  13.743  0.4020  0.6321  0.2264
 9971TIP3    H251405   3.283   1.589  13.741 -0.8969  0.0139 -1.0292
 9972TIP3   OH251406   1.251   0.472  13.145  0.0217 -0.5432 -0.6011
 9972TIP3    H151407   1.323   0.497  13.203 -0.7863 -1.7130  0.9399
 9972TIP3    H251408   1.180   0.532  13.168  0.3452  0.3308 -1.8205
 9973TIP3   OH251409   2.889   4.778  16.901  0.1253  0.0615 -0.2914
 9973TIP3    H151410   2.798   4.775  16.928  0.6374 -1.2214  1.3641
 9973TIP3    H251411   2.924   4.692  16.925  2.1089  1.0044  0.2878
 9974TIP3   OH251412   5.075   2.390   0.969  0.1867  0.0723 -0.7358
 9974TIP3    H151413   5.064   2.324   0.900  1.1644 -0.7252 -0.1365
 9974TIP3    H251414   4.987   2.399   1.007 -0.1624 -0.1421 -1.4746
 9975TIP3   OH251415   5.492   5.191   0.001  0.2958  0.0251 -0.3776
 9975TIP3    H151416   5.502   5.115  -0.056  0.0472 -0.3833  0.1250
 9975TIP3    H251417   5.399   5.212  -0.003  0.4629  0.6871 -1.0007
 9976TIP3   OH251418   0.748   5.273  14.766 -0.6919  0.1900  0.0650
 9976TIP3    H151419   0.725   5.280  14.859  0.1634 -1.0378  0.3865
 9976TIP3    H251420   0.715   5.187  14.740 -1.2543  0.6838 -0.8696
 9977TIP3   OH251421   4.386   6.061   1.498 -0.3846  0.0133 -0.5731
 9977TIP3    H151422   4.296   6.037   1.475 -0.5515  0.4560 -0.3655
 9977TIP3    H251423   4.435   6.049   1.416 -0.2004 -2.3304 -0.1754
 9978TIP3   OH251424   5.760   6.099   4.506 -0.4147  0.0824  0.7379
 9978TIP3    H151425   5.826   6.134   4.566  0.1961  0.7477 -0.3069
 9978TIP3    H251426   5.684   6.156   4.518 -0.0887  0.5777  0.4502
 9979TIP3   OH251427   6.222   0.373  15.825  0.2213  0.0586  0.4561
 9979TIP3    H151428   6.259   0.326  15.750 -0.7834  0.4350 -0.2860
 9979TIP3    H251429   6.144   0.415  15.790  0.6803  1.6425  1.3051
 9980TIP3   OH251430   2.555   6.366   4.614  0.4623 -0.0784 -0.2092
 9980TIP3    H151431   2.514   6.447   4.585  0.6186  0.3131  0.6581
 9980TIP3    H251432   2.610   6.391   4.688  2.3113 -0.5929 -1.3969
 9981TIP3   OH251433   0.084   5.082   4.181  0.2119 -0.0672 -0.1564
 9981TIP3    H151434   0.075   5.042   4.094  0.9841  3.1300 -1.7717
 9981TIP3    H251435  -0.006   5.097   4.209 -0.0275  0.2112 -1.0526
 9982TIP3   OH251436   6.060   3.763  17.164  0.1817  0.6503  0.2174
 9982TIP3    H151437   6.040   3.742  17.073  1.1498 -0.1680  0.1936
 9982TIP3    H251438   6.024   3.851  17.177 -3.9961 -0.9148  0.3268
 9983TIP3   OH251439   3.248   1.196  16.089 -0.3185  0.1168  0.1505
 9983TIP3    H151440   3.164   1.241  16.085  0.0828  0.8242 -0.5477
 9983TIP3    H251441   3.295   1.227  16.012 -0.4247 -2.3143 -0.9291
 9984TIP3   OH251442   1.507   1.431   2.912 -0.3351 -0.3657  0.8069
 9984TIP3    H151443   1.579   1.427   2.975 -1.3943 -0.2767  2.0339
 9984TIP3    H251444   1.484   1.523   2.906 -0.7992 -0.4698  0.9365
 9985TIP3   OH251445   0.891   5.128   4.431 -0.2891 -0.1025 -0.0751
 9985TIP3    H151446   0.840   5.061   4.387  1.1692 -1.2257 -0.0860
 9985TIP3    H251447   0.903   5.197   4.366 -0.0391 -0.7465 -0.7026
 9986TIP3   OH251448   1.729   5.493  17.059 -0.3274  1.0954 -0.1681
 9986TIP3    H151449   1.703   5.580  17.087 -0.9116  0.6946  0.5696
 9986TIP3    H251450   1.806   5.472  17.113  0.8836  1.8507 -1.5858
 9987TIP3   OH251451   5.285   5.471   2.162  0.2653 -0.1847  0.0335
 9987TIP3    H151452   5.366   5.519   2.148  0.8191 -0.8731  0.8202
 9987TIP3    H251453   5.228   5.497   2.089  0.6396  1.4477  0.3064
 9988TIP3   OH251454   6.369   0.708  16.982 -0.1667 -0.1482 -0.3040
 9988TIP3    H151455   6.288   0.758  16.968 -0.9954 -1.5175 -0.4407
 9988TIP3    H251456   6.400   0.688  16.893 -0.6663 -1.1909 -0.2524
 9989TIP3   OH251457   3.014   6.007   4.948 -0.4689 -0.2907 -0.5096
 9989TIP3    H151458   3.088   6.059   4.979 -1.4097  0.8518 -0.1370
 9989TIP3    H251459   3.053   5.928   4.913  0.6992 -1.3641  3.0370
 9990TIP3   OH251460   5.023   0.001  13.836 -0.2137  0.3415  0.5112
 9990TIP3    H151461   5.106   0.008  13.883 -0.8555 -0.8885  1.8907
 9990TIP3    H251462   5.020   0.078  13.780  1.3167  1.0160  1.3290
 9991TIP3   OH251463   4.321   3.363   1.944  0.8549  0.6764 -0.8345
 9991TIP3    H151464   4.268   3.286   1.924  0.4092  0.8772 -0.4315
 9991TIP3    H251465   4.367   3.340   2.024  1.1380  0.6262 -1.0087
 9992TIP3   OH251466   2.722   1.496   4.255 -0.2369  0.4346 -0.5785
 9992TIP3    H151467   2.695   1.506   4.164 -1.6124 -0.6152 -0.3066
 9992TIP3    H251468   2.749   1.404   4.262 -1.5132  0.1282  0.4156
 9993TIP3   OH251469   4.421   4.631   5.831 -0.2154 -0.4787  0.2830
 9993TIP3    H151470   4.331   4.600   5.826  0.1696 -1.5840  0.1892
 9993TIP3    H251471   4.454   4.595   5.913  0.2817 -0.4443  0.0966
 9994TIP3   OH251472   4.982   2.022  16.830 -0.0049 -0.3363 -0.1091
 9994TIP3    H151473   4.894   1.986  16.839 -0.6892  0.3430 -3.4739
 9994TIP3    H251474   5.031   1.954  16.782  0.6018  0.3139 -0.4191
 9995TIP3   OH251475   2.394   0.232  14.415  0.6588  0.2352 -0.0866
 9995TIP3    H151476   2.452   0.293  14.368  0.5574  0.2701 -0.1671
 9995TIP3    H251477   2.312   0.235  14.366  0.5138  0.3624  0.1639
 9996TIP3   OH251478   2.500   4.348  12.774  0.6768 -0.2092  0.5013
 9996TIP3    H151479   2.485   4.271  12.720  0.1002 -0.5885  1.1811
 9996TIP3    H251480   2.414   4.389  12.782  1.2937  1.5427 -1.3593
 9997TIP3   OH251481   2.285   2.338   1.462 -0.4638  0.1457  0.2557
 9997TIP3    H151482   2.279   2.433   1.464 -0.8556  0.1299 -0.1113
 9997TIP3    H251483   2.206   2.307   1.506  0.0003 -0.0064  0.9879
 9998TIP3   OH251484   2.125   1.471  12.923 -0.2684  0.0179  0.1365
 9998TIP3    H151485   2.031   1.457  12.920  0.0789 -2.1971 -3.9848
 9998TIP3    H251486   2.161   1.387  12.949  0.6691 -0.0618 -1.3218
 9999TIP3   OH251487   4.591   2.503  12.454 -0.2695 -0.0648 -0.0295
 9999TIP3    H151488   4.624   2.420  12.489 -1.0951  0.7309  2.7588
 9999TIP3    H251489   4.649   2.570  12.490 -0.9549  0.7630 -0.4315
10000TIP3   OH251490   2.463   4.420   2.588 -0.6018  0.0486  0.0047
10000TIP3    H151491   2.452   4.441   2.681  0.7920  1.0363 -0.0440
10000TIP3    H251492   2.383   4.454   2.547 -0.7158  0.6160  0.6805
10001TIP3   OH251493   3.071   1.692   6.660 -0.0844 -0.0468  0.3391
10001TIP3    H151494   3.092   1.776   6.701 -1.9383  0.1961  0.8542
10001TIP3    H251495   2.998   1.712   6.600  0.2621 -1.0606 -0.4295
10002TIP3   OH251496   5.908   1.140  14.254 -0.7027  0.2466  0.3662
10002TIP3    H151497   5.939   1.088  14.179  0.5071 -0.1837  1.1312
10002TIP3    H251498   5.883   1.224  14.217 -1.7988 -0.5743 -0.7726
10003TIP3   OH251499   0.122   6.102   4.856  0.7165 -0.2376  0.1369
10003TIP3    H151500   0.142   6.052   4.935 -0.7945  1.4090  1.5869
10003TIP3    H251501   0.201   6.154   4.840  0.4261  0.6424  1.5141
10004TIP3   OH251502   4.656   3.064   2.362  0.0480 -0.4293 -0.1342
10004TIP3    H151503   4.603   3.134   2.402  0.8661 -0.3888  0.9152
10004TIP3    H251504   4.674   3.095   2.274  0.9585  1.0069  0.5336
10005TIP3   OH251505   2.128   3.794   5.430 -0.0104  0.7290  0.0317
10005TIP3    H151506   2.177   3.862   5.477 -0.1008  0.6813  0.1963
10005TIP3    H251507   2.045   3.789   5.477  0.6318 -0.6736  1.0494
10006TIP3   OH251508   3.309   0.661   1.137 -0.7664  0.3113 -0.2542
10006TIP3    H151509   3.238   0.710   1.093 -0.8028  1.7186  1.3340
10006TIP3    H251510   3.322   0.707   1.219  0.9470 -0.8930  0.1621
10007TIP3   OH251511   5.018   3.603   3.366 -0.1165  0.1108  0.0224
10007TIP3    H151512   4.931   3.642   3.356  0.1236  0.5445 -0.4391
10007TIP3    H251513   5.006   3.533   3.429 -0.3038  1.7494  1.8377
10008TIP3   OH251514   5.727   1.467   1.222  0.3053  0.2260  0.0716
10008TIP3    H151515   5.731   1.529   1.294 -1.6164  0.9542 -0.4247
10008TIP3    H251516   5.721   1.381   1.265  0.1244  0.5822  0.7653
10009TIP3   OH251517   2.795   4.910   5.035 -0.1986  0.5063 -0.4137
10009TIP3    H151518   2.769   4.863   4.956  0.1179 -1.0879  0.4017
10009TIP3    H251519   2.750   4.994   5.030  1.1647  1.1144 -3.1187
10010TIP3   OH251520   3.645   0.940  12.393 -0.3387  1.2087  0.5057
10010TIP3    H151521   3.650   0.974  12.303 -3.1733 -1.4051 -0.7319
10010TIP3    H251522   3.702   0.863  12.392 -1.6354  0.2257  0.4324
10011TIP3   OH251523   3.841   4.520  10.920  0.2137 -0.2310  0.1243
10011TIP3    H151524   3.750   4.527  10.949  0.2637 -0.4825  0.3422
10011TIP3    H251525   3.836   4.474  10.836  0.2151 -1.0444  0.5671
10012TIP3   OH251526   4.257   0.139   3.260 -0.2772 -0.2326  0.5457
10012TIP3    H151527   4.241   0.226   3.298 -0.5780 -0.2848  0.5399
10012TIP3    H251528   4.187   0.085   3.294 -1.8999  0.2650 -1.8521
10013TIP3   OH251529   5.809   1.704  15.257  0.4386 -0.0795 -0.0608
10013TIP3    H151530   5.729   1.730  15.211  1.7743  1.1767 -1.7188
10013TIP3    H251531   5.813   1.764  15.332 -0.0391  0.0045 -0.0993
10014TIP3   OH251532   4.114   2.220   2.202  0.4214  0.1243 -0.2925
10014TIP3    H151533   4.085   2.149   2.259  0.0872  0.7805  0.3611
10014TIP3    H251534   4.210   2.216   2.205  0.4121  1.3791  1.8495
10015TIP3   OH251535   4.960   5.200   0.076 -0.3590 -0.5670 -0.3234
10015TIP3    H151536   4.870   5.228   0.063 -0.4336 -0.4546  0.3977
10015TIP3    H251537   4.955   5.135   0.147  0.3506  0.8392  1.0384
10016TIP3   OH251538   3.500   6.715   4.814 -0.1468 -0.7826 -0.1003
10016TIP3    H151539   3.481   6.650   4.882 -1.3649 -3.3506 -2.8205
10016TIP3    H251540   3.415   6.735   4.776  0.9382 -2.3954 -3.5214
10017TIP3   OH251541   4.868   2.139  11.385  0.4304 -0.3758  0.3103
10017TIP3    H151542   4.916   2.121  11.304  2.4953 -0.1695  1.4703
10017TIP3    H251543   4.903   2.076  11.448 -0.5039  0.0954  1.3048
10018TIP3   OH251544   4.745   3.152   5.487  0.2532 -0.2763 -0.2746
10018TIP3    H151545   4.702   3.103   5.556 -0.9965  1.4993  0.2433
10018TIP3    H251546   4.807   3.209   5.532 -1.6848  2.0282 -0.4393
10019TIP3   OH251547   3.955   5.612  15.085 -0.3387  0.1394 -0.1715
10019TIP3    H151548   3.888   5.657  15.137 -0.7737  1.3525 -1.7208
10019TIP3    H251549   3.948   5.520  15.111 -2.9764  0.1518 -0.6341
10020TIP3   OH251550   0.734   4.217   0.455 -0.1285  0.0416 -0.2180
10020TIP3    H151551   0.693   4.153   0.396 -1.0146  0.5542 -0.1772
10020TIP3    H251552   0.743   4.170   0.538 -1.4290  0.1692  0.0146
10021TIP3   OH251553   2.703   3.866  14.559 -0.1989  0.5404 -0.4957
10021TIP3    H151554   2.692   3.959  14.578  0.5765  0.3667  0.8833
10021TIP3    H251555   2.748   3.831  14.636 -1.2885 -1.1530 -0.5921
10022TIP3   OH251556   5.776   5.738  15.675 -0.3536 -0.4779 -0.2208
10022TIP3    H151557   5.742   5.821  15.642 -0.9620 -0.9354 -0.7242
10022TIP3    H251558   5.869   5.757  15.693 -0.4108  0.2185 -0.6301
10023TIP3   OH251559   5.448   2.980  16.108  0.2609 -1.0705  0.1051
10023TIP3    H151560   5.372   3.038  16.107 -0.0012 -1.4269 -0.7931
10023TIP3    H251561   5.497   3.007  16.186 -0.2889 -0.2073  0.1625
10024TIP3   OH251562   0.696   6.655  16.681 -0.1675  0.1618 -0.2752
10024TIP3    H151563   0.762   6.723  16.695 -0.2073  0.1359  0.0387
10024TIP3    H251564   0.719   6.586  16.743 -0.6514  0.2680  0.0206
10025TIP3   OH251565   2.458   4.702  10.930 -0.1758  0.1213  0.0197
10025TIP3    H151566   2.434   4.656  10.849  2.5954 -0.7237 -0.3478
10025TIP3    H251567   2.544   4.740  10.912  0.1920  0.4832  2.3674
10026TIP3   OH251568   6.077   2.527   4.617 -0.1808  0.3498  0.0171
10026TIP3    H151569   6.002   2.565   4.663  0.7146 -0.7524  2.4448
10026TIP3    H251570   6.153   2.561   4.664  0.7599 -0.6726 -0.7686
10027TIP3   OH251571   3.379   3.889   4.519 -0.0408  0.4519  0.3397
10027TIP3    H151572   3.440   3.963   4.513  0.6253 -0.0289  1.1022
10027TIP3    H251573   3.362   3.865   4.428  0.8434  0.6424  0.1143
10028TIP3   OH251574   6.809   1.160   2.735 -0.1289  0.0698  0.0476
10028TIP3    H151575   6.859   1.155   2.816  0.9075  1.6241 -0.4833
10028TIP3    H251576   6.760   1.242   2.742  0.8339  0.7786 -1.3823
10029TIP3   OH251577   2.700   0.948   0.149 -0.2039  0.3558 -0.1026
10029TIP3    H151578   2.681   1.032   0.191 -0.0221  0.0650  0.5703
10029TIP3    H251579   2.640   0.886   0.190 -0.4291  0.1800 -0.6903
10030TIP3   OH251580   6.549   6.425  12.415 -0.2565 -0.0380  0.2068
10030TIP3    H151581   6.592   6.482  12.479 -1.3722  0.5376  0.4686
10030TIP3    H251582   6.590   6.447  12.331 -0.7370  1.2282  0.2911
10031TIP3   OH251583   0.392   0.688   2.998  0.4119 -0.4407 -0.0345
10031TIP3    H151584   0.415   0.726   2.914  0.4531  1.7958  0.9651
10031TIP3    H251585   0.304   0.722   3.017  0.8636 -0.0165  1.3508
10032TIP3   OH251586   6.215   3.692  13.409 -0.9259  0.1043  0.0322
10032TIP3    H151587   6.216   3.779  13.449 -0.7301  0.2095 -0.2024
10032TIP3    H251588   6.179   3.706  13.321 -0.4549  0.0178 -0.1753
10033TIP3   OH251589   3.412   3.969   1.373 -0.3230  0.8578 -0.6952
10033TIP3    H151590   3.333   3.953   1.425  0.3577 -1.3732 -0.2875
10033TIP3    H251591   3.459   4.038   1.420  0.3822 -1.2714  1.7943
10034TIP3   OH251592   1.673   5.662   6.514  0.8099  0.6927  0.6228
10034TIP3    H151593   1.733   5.694   6.582  1.1259 -1.1394  1.2287
10034TIP3    H251594   1.699   5.571   6.499  0.4194  0.9116 -1.6142
10035TIP3   OH251595   1.093   5.462   4.473 -0.4027  0.1923  0.1493
10035TIP3    H151596   1.159   5.404   4.434  0.9517  0.4246  2.0031
10035TIP3    H251597   1.122   5.550   4.447 -0.9405  0.2026 -0.4241
10036TIP3   OH251598   0.853   2.900  16.894  0.1298  0.2012 -0.4074
10036TIP3    H151599   0.873   2.991  16.916 -1.3352  0.5247 -0.3342
10036TIP3    H251600   0.764   2.886  16.927  0.4371 -1.3406 -0.1824
10037TIP3   OH251601   0.500   3.499   0.393 -0.4507 -0.7013  0.0350
10037TIP3    H151602   0.431   3.497   0.326 -1.2389 -0.7226  0.8398
10037TIP3    H251603   0.581   3.483   0.344 -0.8175  0.9831 -1.1727
10038TIP3   OH251604   2.175   0.985   3.251 -1.1474 -0.4272  0.3330
10038TIP3    H151605   2.259   0.997   3.208 -0.5867  1.5064  1.8951
10038TIP3    H251606   2.179   0.897   3.289  0.2200 -0.2924  0.5095
10039TIP3   OH251607   3.783   5.847   2.341  0.4547  0.2183 -0.0633
10039TIP3    H151608   3.773   5.820   2.249 -1.7959 -0.0003  0.2108
10039TIP3    H251609   3.847   5.786   2.377 -0.3765 -1.1728 -0.9039
10040TIP3   OH251610   6.014   1.434  13.753 -0.4133  0.0960 -0.0481
10040TIP3    H151611   5.989   1.526  13.759  0.5382  0.3411  0.3446
10040TIP3    H251612   6.025   1.418  13.660  2.3338  1.2105  0.0346
10041TIP3   OH251613   5.836   6.326  14.200  0.1798  0.4838 -0.4167
10041TIP3    H151614   5.795   6.252  14.155  0.6538  0.0431 -0.1233
10041TIP3    H251615   5.852   6.295  14.289 -0.0018  1.0827 -0.1657
10042TIP3   OH251616   2.715   2.979   0.321 -0.2191  0.1090 -0.0322
10042TIP3    H151617   2.799   2.974   0.274 -0.1428  1.3507 -0.0400
10042TIP3    H251618   2.649   2.975   0.251 -0.1114  1.5418 -0.2426
10043TIP3   OH251619   0.423   0.021  11.929 -0.3908  0.2413 -0.1134
10043TIP3    H151620   0.340   0.002  11.972  0.5562 -0.5116  1.4559
10043TIP3    H251621   0.425   0.117  11.921 -1.1095  0.3082  0.4703
10044TIP3   OH251622   0.871   0.063   2.469  0.0081  0.4297 -0.1318
10044TIP3    H151623   0.963   0.039   2.470 -0.2626 -0.6607 -0.6907
10044TIP3    H251624   0.824  -0.017   2.494 -1.0444 -0.4006 -4.3734
10045TIP3   OH251625   5.304   4.647  15.611  0.2462 -0.4239  0.7025
10045TIP3    H151626   5.309   4.667  15.517 -0.5512 -2.7954  0.1059
10045TIP3    H251627   5.332   4.727  15.655  1.5806  0.3981 -1.5888
10046TIP3   OH251628   6.432   5.579  14.596  0.5323  0.2537 -0.3199
10046TIP3    H151629   6.444   5.557  14.504  2.6112 -1.7420  0.3667
10046TIP3    H251630   6.518   5.610  14.625  0.4861 -1.1300  1.4140
10047TIP3   OH251631   3.406   6.286  15.705 -0.0052 -0.4729 -0.1960
10047TIP3    H151632   3.357   6.338  15.768 -0.0642 -1.6134  0.7000
10047TIP3    H251633   3.437   6.350  15.641  1.3375  0.9048  1.7910
10048TIP3   OH251634   0.382   3.135   4.622 -0.1169  0.5288  0.5075
10048TIP3    H151635   0.291   3.108   4.620 -0.3673  1.3334  0.7075
10048TIP3    H251636   0.383   3.220   4.576  0.1511  1.5907  2.4258
10049TIP3   OH251637   3.725   5.491  15.459 -1.1659 -0.0383  0.6056
10049TIP3    H151638   3.663   5.472  15.388 -0.8361  0.2851  0.2291
10049TIP3    H251639   3.729   5.586  15.462  0.3188 -0.0568 -0.2578
10050TIP3   OH251640   0.180   4.020  12.249  0.3133 -0.5518 -0.4325
10050TIP3    H151641   0.203   4.098  12.198 -0.2377 -0.2257 -0.1872
10050TIP3    H251642   0.122   4.053  12.318  0.9892 -0.9966  0.3683
10051TIP3   OH251643   0.264   5.194   3.859 -0.0555  0.1373 -0.0413
10051TIP3    H151644   0.197   5.228   3.919  0.8611  2.0529 -0.0501
10051TIP3    H251645   0.322   5.141   3.914  1.8006  3.3017  1.2002
10052TIP3   OH251646   3.535   2.345   4.977  0.1145 -0.3825 -0.7243
10052TIP3    H151647   3.598   2.354   4.905  0.0837  0.7831 -0.6115
10052TIP3    H251648   3.587   2.359   5.056 -0.0793 -0.4981 -0.5755
10053TIP3   OH251649   6.160   5.484   3.761  0.5435  0.0261  0.1703
10053TIP3    H151650   6.126   5.425   3.828 -0.3079  0.4691  0.1376
10053TIP3    H251651   6.149   5.436   3.679  1.3444 -0.4108  0.3143
10054TIP3   OH251652   0.767   1.100   2.120  0.0195  0.0098  0.2479
10054TIP3    H151653   0.689   1.108   2.175 -0.2090  0.6431 -0.1695
10054TIP3    H251654   0.838   1.133   2.175  0.0850 -1.0823  0.8265
10055TIP3   OH251655   2.224   6.698   4.626 -0.6643  0.0922 -0.3284
10055TIP3    H151656   2.282   6.629   4.658  0.5087  0.2175 -2.0906
10055TIP3    H251657   2.142   6.653   4.604 -1.1783 -0.1260  1.9177
10056TIP3   OH251658   1.496   6.636   3.570 -0.2193  0.3059  0.2248
10056TIP3    H151659   1.530   6.548   3.553 -0.7870  0.3273 -1.1013
10056TIP3    H251660   1.473   6.636   3.663 -2.2849 -1.6959 -0.2447
10057TIP3   OH251661   5.438   6.343  15.566 -0.1539  0.1965 -0.0986
10057TIP3    H151662   5.427   6.262  15.516 -1.6106 -0.5442  1.4001
10057TIP3    H251663   5.384   6.407  15.520 -1.9819 -0.6399  0.8408
10058TIP3   OH251664   3.851   5.252  12.431  0.0684  0.0893  0.3288
10058TIP3    H151665   3.890   5.269  12.516 -0.2042 -0.3348  0.5400
10058TIP3    H251666   3.785   5.321  12.420  0.4766  0.4634  0.2230
10059TIP3   OH251667   6.414   2.276   5.288  0.2876 -0.8239  0.5028
10059TIP3    H151668   6.472   2.231   5.349  1.1949 -0.7839 -0.3145
10059TIP3    H251669   6.336   2.296   5.339  0.9829 -0.9069  1.6076
10060TIP3   OH251670   0.317   4.648  15.204 -0.3324 -0.0924 -0.5641
10060TIP3    H151671   0.259   4.573  15.190 -1.4169  0.7120 -0.4583
10060TIP3    H251672   0.310   4.699  15.123  0.7837 -0.3415 -0.8315
10061TIP3   OH251673   1.649   5.727   3.398  0.3228 -0.1714  0.2257
10061TIP3    H151674   1.689   5.643   3.419  1.3188 -0.2842 -1.9832
10061TIP3    H251675   1.686   5.751   3.313 -0.0159  2.4626  0.7642
10062TIP3   OH251676   2.850   4.338   5.273  0.3003 -0.1374  0.2227
10062TIP3    H151677   2.929   4.362   5.224 -0.4800  1.2668 -0.4015
10062TIP3    H251678   2.865   4.248   5.301  1.2149 -0.6359 -1.7588
10063TIP3   OH251679   5.300   0.371   3.624 -0.1736  0.0072  0.1750
10063TIP3    H151680   5.219   0.326   3.601  2.0282 -2.7824 -2.5244
10063TIP3    H251681   5.333   0.322   3.700  1.3426 -1.9880 -1.6980
10064TIP3   OH251682   5.104   5.890  16.763 -0.2141 -0.3102  0.0696
10064TIP3    H151683   5.066   5.901  16.850 -1.0423  0.5659 -0.3994
10064TIP3    H251684   5.064   5.958  16.710  1.0463 -0.1887 -0.7585
10065TIP3   OH251685   3.253   6.652   2.414 -0.5800 -0.2800  0.3209
10065TIP3    H151686   3.298   6.568   2.409 -0.5842 -0.3775  1.7647
10065TIP3    H251687   3.268   6.693   2.329  1.3591 -0.7615  0.4204
10066TIP3   OH251688   3.135   1.715   1.758  0.4052  0.5948 -0.0096
10066TIP3    H151689   3.088   1.696   1.676 -1.0291  0.9439  0.7262
10066TIP3    H251690   3.109   1.804   1.780  0.4981  0.3604  1.0423
10067TIP3   OH251691   5.756   2.705  14.428  0.2471  0.1308 -0.3246
10067TIP3    H151692   5.841   2.671  14.454 -0.0696  0.1416  0.7275
10067TIP3    H251693   5.776   2.772  14.362  1.0218 -0.1746 -0.4018
10068TIP3   OH251694   2.431   5.333   5.250  0.1597 -0.0664  0.1141
10068TIP3    H151695   2.462   5.272   5.183 -0.5228 -0.4003  0.0959
10068TIP3    H251696   2.340   5.351   5.226 -0.7348 -1.7836  2.0641
10069TIP3   OH251697   2.615   0.096   6.608  0.4494  0.4641  0.2259
10069TIP3    H151698   2.657   0.044   6.677 -1.7367 -0.3560  0.9915
10069TIP3    H251699   2.673   0.087   6.532  1.6313 -0.6403  1.2304
10070TIP3   OH251700   6.674   0.917   2.174  0.3172  0.0773  0.4624
10070TIP3    H151701   6.638   0.831   2.195  0.5296 -0.0173  0.4490
10070TIP3    H251702   6.610   0.979   2.209 -1.7229 -0.0614 -2.8520
10071TIP3   OH251703   0.930   3.684   1.976  0.2576  0.0654  0.2448
10071TIP3    H151704   0.910   3.612   1.916  0.3418 -1.1331  1.6037
10071TIP3    H251705   1.018   3.712   1.953 -0.0110  0.1360 -0.6942
10072TIP3   OH251706   5.027   2.672   5.328 -0.2546  0.2107 -0.0275
10072TIP3    H151707   5.073   2.656   5.411 -0.8516  0.4947  0.3584
10072TIP3    H251708   5.012   2.767   5.327 -1.6146  0.0082  0.2603
10073TIP3   OH251709   1.954   5.120   1.141  0.4537  0.4418  0.0606
10073TIP3    H151710   1.909   5.037   1.126  1.9837 -0.2347 -0.9926
10073TIP3    H251711   1.906   5.161   1.212 -0.8488 -0.9577  0.0213
10074TIP3   OH251712   3.284   1.745   1.139  0.0773  0.5635 -0.4863
10074TIP3    H151713   3.198   1.742   1.181  0.2447 -0.8418 -0.2212
10074TIP3    H251714   3.266   1.726   1.046  0.1755 -0.4006 -0.3102
10075TIP3   OH251715   0.018   6.570  14.384 -0.1069 -0.0138  0.3281
10075TIP3    H151716   0.021   6.664  14.364 -1.1119 -0.2205 -0.8527
10075TIP3    H251717  -0.048   6.535  14.324 -1.4992 -1.0525  2.4029
10076TIP3   OH251718   6.149   6.319   2.011 -0.2298  0.3318  0.1965
10076TIP3    H151719   6.109   6.344   1.927  1.5385 -2.1602 -1.4719
10076TIP3    H251720   6.175   6.227   1.998  2.9774  0.8685  2.3588
10077TIP3   OH251721   5.568   5.277   3.206 -0.2455  0.0276  0.0194
10077TIP3    H151722   5.508   5.351   3.207  0.2214  0.4155 -0.4109
10077TIP3    H251723   5.612   5.284   3.121  1.0158  0.2262  0.6852
10078TIP3   OH251724   3.226   6.757   2.141 -0.1387  0.8030 -0.2332
10078TIP3    H151725   3.187   6.844   2.140 -1.6729  0.1131 -0.7049
10078TIP3    H251726   3.235   6.733   2.048  3.1953  1.7331 -0.2102
10079TIP3   OH251727   2.132   3.636   0.257  0.2510  0.4464  0.1734
10079TIP3    H151728   2.146   3.616   0.165  0.2761 -1.3005  0.5451
10079TIP3    H251729   2.122   3.732   0.259  0.0691  0.4886 -1.6480
10080TIP3   OH251730   2.394   4.457   2.860 -0.2170  0.7729 -0.3030
10080TIP3    H151731   2.309   4.500   2.866 -0.2639  0.7512 -0.8203
10080TIP3    H251732   2.396   4.397   2.935 -0.4352  1.1616  0.0159
10081TIP3   OH251733   4.009   1.323   2.688 -0.2576 -0.5754  0.2099
10081TIP3    H151734   3.926   1.362   2.661 -0.4593 -2.1467 -1.5600
10081TIP3    H251735   4.050   1.389   2.743 -3.7646 -0.6903  3.1632
10082TIP3   OH251736   3.412   4.396   2.919  0.3496  0.1810  0.3411
10082TIP3    H151737   3.347   4.387   2.989  0.0121  1.4921  0.2155
10082TIP3    H251738   3.362   4.383   2.838  0.7437 -1.3575  0.3329
10083TIP3   OH251739   0.137   6.267  14.736  0.5336  0.0936 -0.5276
10083TIP3    H151740   0.122   6.347  14.686 -0.4233  0.4108  0.2435
10083TIP3    H251741   0.064   6.264  14.799  1.9758 -0.0175  1.1790
10084TIP3   OH251742   3.113   4.810   3.953  0.1543  0.1064 -0.1671
10084TIP3    H151743   3.173   4.737   3.965  0.0980  0.4159  2.3695
10084TIP3    H251744   3.072   4.795   3.868  1.2051 -2.0223 -0.3076
10085TIP3   OH251745   5.957   2.862  12.699 -0.2112  0.6621  0.1596
10085TIP3    H151746   5.933   2.769  12.700 -1.6138  1.0127  1.7684
10085TIP3    H251747   5.874   2.909  12.697  0.4889  1.8971 -1.0347
10086TIP3   OH251748   4.667   4.394   2.042  0.9902 -0.1102 -0.1501
10086TIP3    H151749   4.710   4.446   1.974  0.7641  0.9632  0.5118
10086TIP3    H251750   4.673   4.304   2.011  2.0039  0.2355 -0.9869
10087TIP3   OH251751   2.887   2.215   4.513 -0.0012  0.3172 -0.5266
10087TIP3    H151752   2.896   2.296   4.564 -1.7106  0.6437 -0.6998
10087TIP3    H251753   2.950   2.224   4.441  2.9287 -0.4295  1.8228
10088TIP3   OH251754   2.695   3.105  14.655 -0.5691 -0.3261 -0.8095
10088TIP3    H151755   2.725   3.164  14.725  0.7783 -0.8176 -0.9573
10088TIP3    H251756   2.767   3.103  14.592 -0.8343 -1.6678 -1.0953
10089TIP3   OH251757   6.546   1.823   0.426 -0.3535 -0.4167  0.0110
10089TIP3    H151758   6.584   1.820   0.514  0.5230 -0.2345 -0.3543
10089TIP3    H251759   6.562   1.736   0.389  0.4507 -0.0866 -0.4409
10090TIP3   OH251760   0.486   2.593  17.226  0.0031  0.1851  0.0850
10090TIP3    H151761   0.425   2.592  17.152 -0.3995  2.0881  0.3576
10090TIP3    H251762   0.570   2.565  17.188 -0.2564  0.8898 -1.0414
10091TIP3   OH251763   4.664   3.964  13.903 -0.1326  0.5652 -0.1338
10091TIP3    H151764   4.652   4.007  13.988 -1.7838  1.3087 -0.7247
10091TIP3    H251765   4.633   3.875  13.916 -0.1539  0.6077  0.1022
10092TIP3   OH251766   3.091   6.677  14.015  0.2504 -0.4384 -0.9454
10092TIP3    H151767   3.016   6.659  14.072 -2.1232  1.7522 -3.2816
10092TIP3    H251768   3.160   6.706  14.075 -1.4592 -0.3355  1.0141
10093TIP3   OH251769   5.149   6.240   0.985 -0.1141  0.4059 -0.2373
10093TIP3    H151770   5.056   6.223   0.970 -0.6203  1.4421  1.4977
10093TIP3    H251771   5.194   6.166   0.946 -1.7823 -0.9692  0.3730
10094TIP3   OH251772   1.103   5.449   1.814  0.0482 -0.3856  0.1117
10094TIP3    H151773   1.152   5.475   1.736 -0.4792 -0.1299 -0.1369
10094TIP3    H251774   1.101   5.527   1.869 -1.0247 -0.0790 -0.3690
10095TIP3   OH251775   3.321   6.798  12.989  0.1007  0.2272  0.8596
10095TIP3    H151776   3.329   6.869  12.925  0.1428 -0.0200  0.5903
10095TIP3    H251777   3.363   6.833  13.068  2.6577 -0.5219 -0.1107
10096TIP3   OH251778   3.179   4.620   1.195  0.6192  0.0460  0.2273
10096TIP3    H151779   3.209   4.578   1.276 -2.5705 -0.6537  1.1233
10096TIP3    H251780   3.096   4.661   1.219 -0.0763  0.3754 -2.5529
10097TIP3   OH251781   5.733   1.967  17.034  0.0323 -0.4661 -0.0116
10097TIP3    H151782   5.664   1.986  17.097  0.5310 -2.0270  1.0348
10097TIP3    H251783   5.689   1.918  16.964 -0.4895  1.1320 -0.8327
10098TIP3   OH251784   2.521   1.565   5.499 -0.2700  0.1454 -0.3423
10098TIP3    H151785   2.536   1.599   5.587 -0.6539 -0.6828  0.0404
10098TIP3    H251786   2.522   1.643   5.443 -2.9209  0.9824  0.7465
10099TIP3   OH251787   3.043   3.815  14.242  0.0988  0.0913 -0.3777
10099TIP3    H151788   3.138   3.814  14.231  0.5540 -1.5159  2.8244
10099TIP3    H251789   3.020   3.906  14.257  1.3920  0.2837  0.4576
10100TIP3   OH251790   5.166   4.776  14.531 -0.2897 -0.1173  0.0582
10100TIP3    H151791   5.103   4.711  14.500  0.1517  0.1982 -1.5393
10100TIP3    H251792   5.241   4.725  14.561 -0.9679 -0.4543  1.2266
10101TIP3   OH251793   5.871   3.487  11.812 -0.0759  0.0628  0.4892
10101TIP3    H151794   5.920   3.418  11.767 -3.3256 -2.3337  0.4085
10101TIP3    H251795   5.855   3.451  11.899  1.2847  2.2925  1.6989
10102TIP3   OH251796   4.288   3.145   1.619  0.7018  0.4098 -0.6378
10102TIP3    H151797   4.221   3.134   1.686  3.6057  1.7858  2.6843
10102TIP3    H251798   4.243   3.129   1.536 -3.4986  0.6405  1.4815
10103TIP3   OH251799   6.307   3.057  15.133  0.2901 -0.3504 -0.5195
10103TIP3    H151800   6.362   3.124  15.093 -0.7364  0.5366 -0.4664
10103TIP3    H251801   6.309   3.076  15.226 -1.0828  0.4371 -0.6367
10104TIP3   OH251802   1.672   1.524  13.187  0.4058 -0.0585 -0.0602
10104TIP3    H151803   1.749   1.555  13.234  0.5799 -0.8242  0.1769
10104TIP3    H251804   1.600   1.535  13.249  0.2657  0.9574 -0.3972
10105TIP3   OH251805   2.051   5.038  12.556 -0.3294  0.3959  0.0501
10105TIP3    H151806   1.972   4.986  12.544  0.2561 -1.0128  1.9627
10105TIP3    H251807   2.044   5.108  12.492 -3.0635  0.2288  0.1012
10106TIP3   OH251808   6.642   4.515  14.407  0.0738 -0.0389  0.0587
10106TIP3    H151809   6.690   4.569  14.344 -0.7769  0.2112 -0.3857
10106TIP3    H251810   6.584   4.576  14.452  0.8624 -0.1724  1.2842
10107TIP3   OH251811   6.319   5.045   2.352  0.5567  0.5999  0.0076
10107TIP3    H151812   6.370   5.014   2.277 -1.0827 -0.7964 -0.5656
10107TIP3    H251813   6.268   4.969   2.379 -0.2879  1.6208  1.3459
10108TIP3   OH251814   5.532   3.473  16.915  0.7139 -0.2939  0.6101
10108TIP3    H151815   5.505   3.553  16.869 -1.0254 -1.5779 -0.6477
10108TIP3    H251816   5.453   3.420  16.919  2.1518 -2.5129  0.2626
10109TIP3   OH251817   5.405   6.670   0.359  0.5984 -0.3172  0.7768
10109TIP3    H151818   5.342   6.622   0.306  0.4306 -1.3527  1.8967
10109TIP3    H251819   5.356   6.700   0.435  0.2684  3.1632 -0.6997
10110TIP3   OH251820   4.372   2.682  14.090  0.0908 -0.1480  0.0780
10110TIP3    H151821   4.412   2.721  14.167 -1.2690  1.8817 -0.1872
10110TIP3    H251822   4.429   2.708  14.017  1.0287 -1.5322  0.3065
10111TIP3   OH251823   5.256   0.167  13.860  0.0332  0.1926  0.5441
10111TIP3    H151824   5.198   0.175  13.784  1.0598 -1.1402 -0.4030
10111TIP3    H251825   5.309   0.246  13.858  1.2837 -0.6503 -1.2056
10112TIP3   OH251826   4.664   1.384   0.640 -0.2229 -0.3979  0.0116
10112TIP3    H151827   4.578   1.417   0.617  0.6305  1.0936 -1.1112
10112TIP3    H251828   4.691   1.438   0.715  0.6166  0.6026 -0.9918
10113TIP3   OH251829   1.729   2.324   3.637  0.3146 -0.0081  0.5544
10113TIP3    H151830   1.719   2.328   3.733  1.1089  0.2698  0.6388
10113TIP3    H251831   1.749   2.233   3.619  1.3500  0.1550  0.7982
10114TIP3   OH251832   2.225   5.514  10.817  0.3206 -0.4838  0.0302
10114TIP3    H151833   2.216   5.478  10.729 -0.3020  1.1911 -0.6153
10114TIP3    H251834   2.184   5.600  10.811  1.7511  0.3082  1.5338
10115TIP3   OH251835   6.268   5.799   5.699  0.2761 -0.2233  0.3049
10115TIP3    H151836   6.276   5.753   5.782  1.0443 -1.2482 -0.3296
10115TIP3    H251837   6.179   5.781   5.670  0.2525 -0.4740  0.5344
10116TIP3   OH251838   0.472   4.338   0.495  0.1940  0.0050  0.0802
10116TIP3    H151839   0.496   4.324   0.586  0.8683 -0.2932 -0.1405
10116TIP3    H251840   0.555   4.336   0.448 -0.2115 -0.5358 -0.6249
10117TIP3   OH251841   0.026   3.265  14.085 -0.1075 -0.2236 -0.1209
10117TIP3    H151842   0.102   3.322  14.078 -0.8751  0.4573 -4.0429
10117TIP3    H251843   0.062   3.177  14.096  1.3505 -0.0136 -2.7787
10118TIP3   OH251844   3.955   1.679   4.482  0.3271 -0.0024 -0.2680
10118TIP3    H151845   4.030   1.737   4.496  0.4814  0.2899 -2.0755
10118TIP3    H251846   3.935   1.643   4.568  1.1420  1.6330  0.6234
10119TIP3   OH251847   0.874   1.969   4.054 -0.5648  0.0765  0.0536
10119TIP3    H151848   0.935   2.007   4.117 -2.4830  1.3561  1.1704
10119TIP3    H251849   0.917   1.982   3.969  0.3209  1.7609  0.7283
10120TIP3   OH251850   5.965   3.713  12.808 -0.4621 -0.6544 -1.2352
10120TIP3    H151851   5.915   3.671  12.878  0.4442  0.1803 -0.0749
10120TIP3    H251852   6.043   3.659  12.799 -0.3484 -0.4805 -1.2735
10121TIP3   OH251853   6.448   3.720   2.331 -0.3705 -0.2923 -0.1809
10121TIP3    H151854   6.387   3.658   2.372  1.1752 -0.9936  1.1428
10121TIP3    H251855   6.463   3.684   2.243 -1.6597 -0.2417 -0.4343
10122TIP3   OH251856   6.082   2.725   0.005  0.0926  0.4176  0.1316
10122TIP3    H151857   6.004   2.764   0.044 -2.0521 -1.9865 -1.5578
10122TIP3    H251858   6.068   2.732  -0.090  2.7937  1.5549 -0.2287
10123TIP3   OH251859   2.005   6.657  13.643 -0.9052  0.3917 -0.7575
10123TIP3    H151860   2.039   6.580  13.688 -1.5832  1.2999  1.3720
10123TIP3    H251861   1.949   6.700  13.708 -1.3876  2.1064 -2.2624
10124TIP3   OH251862   1.538   2.225  14.997  0.2471 -0.0948  0.4553
10124TIP3    H151863   1.586   2.196  14.919 -2.1446 -1.5513 -0.5547
10124TIP3    H251864   1.495   2.306  14.970  0.0476 -0.1839  0.5050
10125TIP3   OH251865   5.671   3.729  12.000 -0.3604 -0.0086 -0.1142
10125TIP3    H151866   5.616   3.654  11.978  0.5136 -0.5526 -0.4726
10125TIP3    H251867   5.756   3.708  11.962  0.6671 -0.1066  2.1658
10126TIP3   OH251868   2.289   1.506  11.612  0.1483  0.2671 -0.1200
10126TIP3    H151869   2.258   1.471  11.695 -0.2650 -0.9075 -0.7616
10126TIP3    H251870   2.269   1.438  11.548  2.0203  0.4236 -0.9083
10127TIP3   OH251871   4.677   6.349   3.171  0.8224  0.3837  0.2209
10127TIP3    H151872   4.691   6.391   3.086 -0.1184  2.3199  0.9977
10127TIP3    H251873   4.647   6.261   3.149 -1.2265  1.4633 -1.4878
10128TIP3   OH251874   6.122   5.043  14.799 -0.3265  0.3603 -0.7204
10128TIP3    H151875   6.114   5.012  14.890  1.4356 -0.6400 -0.8825
10128TIP3    H251876   6.046   5.006  14.755 -0.0581 -0.9487 -0.1189
10129TIP3   OH251877   2.187   6.762   0.778 -0.0313 -0.1212 -0.1160
10129TIP3    H151878   2.203   6.828   0.710 -0.7383 -0.3346 -0.4881
10129TIP3    H251879   2.108   6.791   0.822 -0.1990 -0.5811 -0.1097
10130TIP3   OH251880   1.460   2.269   3.161  0.3061 -0.0528  0.6201
10130TIP3    H151881   1.514   2.201   3.120  1.0846  0.0632  1.4439
10130TIP3    H251882   1.421   2.225   3.237  0.8902  0.4602  1.2093
10131TIP3   OH251883   6.630   4.618  14.919  0.3276 -0.0366  0.3784
10131TIP3    H151884   6.706   4.595  14.972  0.4242 -0.7809 -0.0774
10131TIP3    H251885   6.560   4.633  14.982  1.4413  3.1032  0.9918
10132TIP3   OH251886   1.608   1.227   2.735 -0.0423  0.1410 -0.3589
10132TIP3    H151887   1.532   1.271   2.774 -0.6997 -1.4750  0.2490
10132TIP3    H251888   1.665   1.209   2.810  0.4492  0.4111 -0.6709
10133TIP3   OH251889   1.097   0.946  13.361  0.1513 -0.2580 -0.1990
10133TIP3    H151890   1.153   1.021  13.340  0.2799  0.4467  2.5422
10133TIP3    H251891   1.009   0.973  13.335  0.3402  0.4909 -0.0617
10134TIP3   OH251892   2.235   5.883  16.463 -0.2537 -0.4569 -0.1441
10134TIP3    H151893   2.271   5.795  16.458  0.1181 -0.2644 -0.9363
10134TIP3    H251894   2.142   5.872  16.446 -0.1551 -0.6691 -0.5669
10135TIP3   OH251895   1.543   5.655  13.178 -0.5128 -0.0241  0.0701
10135TIP3    H151896   1.611   5.690  13.119 -0.4170  0.7788  0.6571
10135TIP3    H251897   1.592   5.620  13.253 -0.7605  0.7198  0.5787
10136TIP3   OH251898   4.250   2.210   1.663 -0.0675 -0.0873  0.1283
10136TIP3    H151899   4.263   2.230   1.755 -1.3115 -0.2109  0.3366
10136TIP3    H251900   4.218   2.292   1.625 -0.1781 -0.2172 -0.0613
10137TIP3   OH251901   5.350   5.567  15.282 -0.2937  0.4727  0.7433
10137TIP3    H151902   5.267   5.601  15.246 -0.6392 -0.1881  0.9130
10137TIP3    H251903   5.418   5.607  15.228 -0.8751 -2.4009 -2.2370
10138TIP3   OH251904   3.464   6.634  12.541  0.5894  0.0001  0.1034
10138TIP3    H151905   3.478   6.727  12.558  0.5921  0.3946 -1.9705
10138TIP3    H251906   3.441   6.629  12.448 -0.6650 -1.9465  0.4887
10139TIP3   OH251907   0.069   6.675  15.197 -0.4739 -1.0523  0.5984
10139TIP3    H151908   0.098   6.619  15.269  2.5958 -0.0140  0.2470
10139TIP3    H251909   0.140   6.670  15.133 -0.8884  1.9489 -0.1535
10140TIP3   OH251910   5.170   4.996   2.361  0.3527  0.2804 -0.4488
10140TIP3    H151911   5.148   4.914   2.404  2.0799 -0.4485 -0.9186
10140TIP3    H251912   5.090   5.048   2.366 -0.1860 -0.7085  1.4896
10141TIP3   OH251913   5.816   3.374  11.410 -0.0589  0.6923 -0.4865
10141TIP3    H151914   5.872   3.383  11.486 -1.3208  0.5776  0.4794
10141TIP3    H251915   5.727   3.387  11.444 -0.5502  1.9759 -2.1642
10142TIP3   OH251916   4.989   3.071   5.154 -0.1030 -0.3980  0.2769
10142TIP3    H151917   4.947   3.092   5.070  3.1577  0.4203 -1.2119
10142TIP3    H251918   4.999   3.156   5.197 -1.5741 -0.7960  1.4541
10143TIP3   OH251919   0.068   4.899   5.448 -0.2585 -0.3543  0.5011
10143TIP3    H151920   0.114   4.937   5.523 -1.7702  0.6316  0.9437
10143TIP3    H251921   0.040   4.974   5.396  0.8280 -1.0308 -1.1058
10144TIP3   OH251922   6.712   2.177  13.627 -0.0195 -0.0640  0.2734
10144TIP3    H151923   6.690   2.238  13.697  0.9043 -0.3294  0.8117
10144TIP3    H251924   6.689   2.090  13.662 -1.0929 -0.0507 -0.3894
10145TIP3   OH251925   0.727   3.075   2.390  0.1150 -0.8729  0.0124
10145TIP3    H151926   0.750   2.986   2.365 -0.0460 -0.3782 -2.0250
10145TIP3    H251927   0.787   3.130   2.340 -0.9105  0.2162 -0.0411
10146TIP3   OH251928   3.398   5.569  13.435 -0.2431 -0.1495 -0.2268
10146TIP3    H151929   3.361   5.640  13.488 -0.0058 -0.0261 -0.2271
10146TIP3    H251930   3.323   5.533  13.387 -0.7512 -1.2987  1.3730
10147TIP3   OH251931   5.215   1.055   5.182  0.5553  0.4173 -0.2167
10147TIP3    H151932   5.128   1.082   5.153  0.5855  0.4862 -0.2420
10147TIP3    H251933   5.251   1.005   5.109  0.4207  0.1336 -0.0947
10148TIP3   OH251934   6.228   6.324  13.039 -0.2060  0.1170 -0.7876
10148TIP3    H151935   6.309   6.283  13.068 -1.1491 -0.6964  0.7706
10148TIP3    H251936   6.206   6.385  13.109 -2.5281 -1.8890  0.3136
10149TIP3   OH251937   0.182   0.040   4.118  0.5230 -0.2571 -0.3186
10149TIP3    H151938   0.201  -0.002   4.034  1.0986  1.7879 -1.2293
10149TIP3    H251939   0.268   0.053   4.158  0.4059  0.7649 -0.3917
10150TIP3   OH251940   4.036   5.148  15.593 -0.1492  0.1015  0.6453
10150TIP3    H151941   4.034   5.244  15.588 -2.5069  0.1009  1.1574
10150TIP3    H251942   4.073   5.129  15.679  1.6227  0.5185 -0.0049
10151TIP3   OH251943   1.226   2.891  15.225 -0.3740 -0.3609  0.1969
10151TIP3    H151944   1.216   2.923  15.314 -1.9167  0.1848 -0.1531
10151TIP3    H251945   1.163   2.941  15.174 -0.8606 -2.0036 -0.8724
10152TIP3   OH251946   4.997   1.271   4.197 -0.8204  0.1525 -0.6771
10152TIP3    H151947   4.971   1.258   4.288  0.8661  1.6669  0.0579
10152TIP3    H251948   5.073   1.214   4.185  1.6195  3.0878  0.1889
10153TIP3   OH251949   5.845   2.179   2.243 -0.0444 -0.0645 -0.4091
10153TIP3    H151950   5.761   2.224   2.256 -0.7109 -1.4325  0.1864
10153TIP3    H251951   5.911   2.240   2.276 -0.7834  1.1373 -1.1201
10154TIP3   OH251952   0.645   0.308  12.881 -0.7743 -0.2192  0.0718
10154TIP3    H151953   0.569   0.265  12.843 -0.9959  0.3704 -0.1697
10154TIP3    H251954   0.719   0.281  12.826 -1.2054  1.2135 -1.2550
10155TIP3   OH251955   4.015   4.330  14.789 -0.0589  0.6018  0.9855
10155TIP3    H151956   3.953   4.373  14.730  0.0869  0.5348  0.7824
10155TIP3    H251957   3.962   4.269  14.840  0.0628 -0.5283 -0.2154
10156TIP3   OH251958   0.982   3.513   0.281 -0.2419  0.3844 -0.0301
10156TIP3    H151959   1.000   3.428   0.241 -0.9914 -0.0822  0.6120
10156TIP3    H251960   1.067   3.556   0.284  0.0441 -0.1081 -0.9044
10157TIP3   OH251961   1.325   2.589   4.054  0.1067  0.3913  0.1421
10157TIP3    H151962   1.337   2.560   4.145 -2.3958  0.8757  0.6645
10157TIP3    H251963   1.231   2.583   4.040  0.4575  0.5243 -2.3802
10158TIP3   OH251964   6.251   5.167  11.873 -0.2723  0.4755  0.0226
10158TIP3    H151965   6.221   5.077  11.862  0.2955  0.2814  0.0408
10158TIP3    H251966   6.188   5.207  11.933 -0.0622 -0.1408  0.6464
10159TIP3   OH251967   3.268   6.708   5.883 -1.0229  0.3264  0.5020
10159TIP3    H151968   3.303   6.714   5.794 -2.5164  0.1616 -0.1166
10159TIP3    H251969   3.273   6.798   5.917 -0.8291  0.4626  0.1166
10160TIP3   OH251970   2.498   1.478   2.247  0.1213  0.4342  0.3037
10160TIP3    H151971   2.563   1.526   2.196  1.5218  1.3065  2.8401
10160TIP3    H251972   2.448   1.545   2.293 -1.2504 -0.3262 -0.0323
10161TIP3   OH251973   0.304   2.201  12.145  0.3650 -0.1731  0.5200
10161TIP3    H151974   0.380   2.149  12.171  1.1826  0.7822  0.0983
10161TIP3    H251975   0.332   2.247  12.065 -1.1766 -0.9685 -0.5022
10162TIP3   OH251976   1.891   2.814  13.449  0.4633 -0.4797 -0.6634
10162TIP3    H151977   1.889   2.903  13.485 -1.6453 -0.4040 -0.8899
10162TIP3    H251978   1.861   2.758  13.520  0.1066 -0.8084 -1.0713
10163TIP3   OH251979   0.748   5.655   4.270  0.4237  0.5609 -0.3230
10163TIP3    H151980   0.718   5.665   4.180  0.9729  0.2857 -0.5446
10163TIP3    H251981   0.669   5.657   4.323  0.1461  1.3869 -0.7539
10164TIP3   OH251982   2.142   2.983   1.777 -0.3621 -0.9408  0.4578
10164TIP3    H151983   2.143   2.967   1.871  0.6870 -0.7746  0.4804
10164TIP3    H251984   2.049   2.996   1.756 -0.4515  0.8021  1.7788
10165TIP3   OH251985   0.256   4.752  14.968  0.2855  0.0312  0.2602
10165TIP3    H151986   0.174   4.783  15.005  0.4813 -0.2405  0.9332
10165TIP3    H251987   0.241   4.751  14.874 -0.8827 -1.1307  0.4403
10166TIP3   OH251988   3.000   6.107   1.586 -0.7571 -0.3550 -0.3873
10166TIP3    H151989   3.059   6.150   1.525 -0.6613  0.1050  0.0324
10166TIP3    H251990   2.967   6.177   1.642 -2.2673 -0.4882 -1.0871
10167TIP3   OH251991   1.326   2.025   4.497 -0.5937  1.4738 -0.0146
10167TIP3    H151992   1.364   2.090   4.556 -0.7677 -0.0560  1.8286
10167TIP3    H251993   1.246   1.996   4.540  0.2616 -1.0678 -0.0249
10168TIP3   OH251994   0.850   4.951  11.842 -0.0628  0.7434  0.0568
10168TIP3    H151995   0.810   4.999  11.914  0.5509 -0.0896  0.9764
10168TIP3    H251996   0.815   4.992  11.763 -1.4547  1.0765  0.8272
10169TIP3   OH251997   6.035   5.948   3.029  1.0071  0.1048 -0.2489
10169TIP3    H151998   5.953   5.991   3.009  0.7238 -0.0275  0.6038
10169TIP3    H251999   6.083   6.011   3.084  1.6455  0.3484 -1.0723
10170TIP3   OH252000   1.081   1.750  16.026 -0.3397  0.5287 -0.2335
10170TIP3    H152001   1.156   1.709  15.983  0.4601  1.8872 -0.1545
10170TIP3    H252002   1.119   1.805  16.095 -1.4880  0.1406  0.7326
10171TIP3   OH252003   2.705   0.061   6.369 -0.1953 -0.1996  0.0557
10171TIP3    H152004   2.728  -0.021   6.325 -0.9149 -0.4190  0.0837
10171TIP3    H252005   2.768   0.125   6.335  1.1160 -1.0124  0.8970
10172TIP3   OH252006   0.688   5.357   2.293  0.0576  0.4997 -0.1794
10172TIP3    H152007   0.634   5.385   2.219  0.2063  1.2610  0.0071
10172TIP3    H252008   0.628   5.304   2.347  0.0672 -0.4436 -1.0672
10173TIP3   OH252009   1.602   0.345   2.263 -0.0644 -0.0564 -0.4914
10173TIP3    H152010   1.572   0.272   2.209 -1.2444  1.4204 -1.8827
10173TIP3    H252011   1.697   0.343   2.255 -0.0684 -1.5885 -0.2983
10174TIP3   OH252012   1.253   2.349   0.160 -0.2434  0.2680 -0.0797
10174TIP3    H152013   1.265   2.297   0.240 -0.3679  1.7446  0.9349
10174TIP3    H252014   1.332   2.334   0.109  0.5817  0.6033  1.0836
10175TIP3   OH252015   4.476   4.947   5.753 -0.4415 -0.3144  0.0639
10175TIP3    H152016   4.537   4.996   5.808 -0.6755  0.1913 -0.1276
10175TIP3    H252017   4.467   4.862   5.797  0.1291 -0.2670  0.2788
10176TIP3   OH252018   0.518   4.217  16.770  0.1986 -0.2120  0.0398
10176TIP3    H152019   0.448   4.258  16.718  0.2653  0.9236  0.8270
10176TIP3    H252020   0.578   4.289  16.789 -0.5519 -0.2801  2.9008
10177TIP3   OH252021   1.231   4.698   2.175 -0.1873  0.1241 -0.1889
10177TIP3    H152022   1.247   4.786   2.142 -0.3913 -0.6831 -2.5608
10177TIP3    H252023   1.318   4.660   2.187 -0.1163  0.2795 -0.2184
10178TIP3   OH252024   6.525   2.667  14.178  0.2001 -0.4189 -0.5758
10178TIP3    H152025   6.607   2.647  14.132 -0.3339 -1.1229 -1.2316
10178TIP3    H252026   6.456   2.633  14.120 -0.4648 -1.8507  1.0314
10179TIP3   OH252027   0.286   0.828   6.954 -0.0955 -0.3636 -0.3258
10179TIP3    H152028   0.297   0.915   6.916  0.8148 -0.4594 -0.2922
10179TIP3    H252029   0.343   0.828   7.031 -1.5370 -0.3423  0.7630
10180TIP3   OH252030   2.028   2.474   3.333  0.5080 -0.7676 -0.1885
10180TIP3    H152031   2.072   2.396   3.366  0.4860 -0.7622 -0.1467
10180TIP3    H252032   2.011   2.527   3.411  0.2146 -0.8798 -0.1770
10181TIP3   OH252033   1.164   5.996   3.571  0.1288  0.0980 -0.1200
10181TIP3    H152034   1.146   5.959   3.658  1.1313 -2.3070 -0.9109
10181TIP3    H252035   1.193   5.922   3.518  2.5872  2.0500 -1.6596
10182TIP3   OH252036   5.497   1.401   5.570 -0.5822  0.0013 -0.1813
10182TIP3    H152037   5.574   1.403   5.513 -1.1413  1.0733 -0.8948
10182TIP3    H252038   5.425   1.429   5.515 -0.9787  1.9760  1.2866
10183TIP3   OH252039   1.645   2.054   2.037  0.3317 -0.6601 -0.0061
10183TIP3    H152040   1.665   1.966   2.067 -2.6379 -0.7582  1.8217
10183TIP3    H252041   1.551   2.063   2.047  0.4649  2.4497 -0.8938
10184TIP3   OH252042   2.047   1.884  13.519 -0.1908 -0.2256  0.3918
10184TIP3    H152043   1.992   1.807  13.531 -1.3135  0.3058 -1.2200
10184TIP3    H252044   2.098   1.890  13.600 -3.6808  0.2618  2.6496
10185TIP3   OH252045   6.088   1.031  14.429  0.2457  0.2583  0.3457
10185TIP3    H152046   6.018   1.074  14.379  0.4305 -0.0775 -0.2074
10185TIP3    H252047   6.147   0.997  14.362  0.1810 -0.7243  0.7828
10186TIP3   OH252048   5.455   4.562   5.406 -0.1864 -0.3412  0.3618
10186TIP3    H152049   5.444   4.608   5.322  1.0947  1.2544  1.0431
10186TIP3    H252050   5.370   4.571   5.450 -0.9682 -1.4583 -0.8755
10187TIP3   OH252051   3.912   6.716   6.219  0.2234 -0.5852 -0.4872
10187TIP3    H152052   3.897   6.654   6.290 -2.1259  0.1501 -0.2881
10187TIP3    H252053   3.990   6.764   6.246  0.0354 -1.0939  1.0599
10188TIP3   OH252054   4.498   0.943   5.735  0.2194  0.6249  0.1480
10188TIP3    H152055   4.585   0.952   5.696  0.3183 -0.9451 -0.0515
10188TIP3    H252056   4.504   0.990   5.818  1.4262  0.1073  0.3732
10189TIP3   OH252057   5.820   5.636   4.875  0.2533  0.3019  0.2859
10189TIP3    H152058   5.888   5.580   4.913  1.1115  1.1395  0.0161
10189TIP3    H252059   5.755   5.575   4.840 -0.4749 -0.4775  2.9409
10190TIP3   OH252060   3.824   2.352  16.699 -0.5078 -0.5345 -0.2855
10190TIP3    H152061   3.791   2.356  16.789  0.7713  1.6644  0.1175
10190TIP3    H252062   3.810   2.440  16.664 -0.7205 -1.2853 -2.1599
10191TIP3   OH252063   4.437   6.780   3.346  0.0456  0.0792  0.4453
10191TIP3    H152064   4.359   6.833   3.338  1.4222  2.0759 -0.0403
10191TIP3    H252065   4.470   6.800   3.434 -0.2169 -1.1024  0.8249
10192TIP3   OH252066   6.523   5.006   5.158 -0.0258 -0.0254  0.1724
10192TIP3    H152067   6.525   4.919   5.118 -2.4565 -0.1421  0.2502
10192TIP3    H252068   6.430   5.026   5.167  0.5056  1.8260  1.8042
10193TIP3   OH252069   2.192   3.520  14.486 -0.2145  0.3690  0.0325
10193TIP3    H152070   2.141   3.463  14.544 -0.4273  2.0709  1.5591
10193TIP3    H252071   2.136   3.532  14.409 -0.6965 -0.4504  0.2487
10194TIP3   OH252072   3.299   0.255   0.877  0.3040  0.2076 -0.1471
10194TIP3    H152073   3.357   0.249   0.801 -0.4403 -0.9839 -0.6378
10194TIP3    H252074   3.351   0.219   0.949  0.6436  0.3823 -0.3022
10195TIP3   OH252075   2.191   1.641  15.399 -0.3851  0.4689 -0.1927
10195TIP3    H152076   2.239   1.684  15.329 -1.7545 -0.7809 -1.9370
10195TIP3    H252077   2.138   1.711  15.438  0.4942  1.1960 -0.2737
10196TIP3   OH252078   1.568   4.354  15.657  0.3489 -0.6163  0.3168
10196TIP3    H152079   1.543   4.308  15.577 -0.3154  0.6626 -0.2199
10196TIP3    H252080   1.629   4.294  15.700 -1.4537 -2.5582  0.2646
10197TIP3   OH252081   0.263   1.468  10.632  0.2498  0.8130  0.1110
10197TIP3    H152082   0.338   1.522  10.605 -0.3844  1.6117 -0.0875
10197TIP3    H252083   0.209   1.461  10.554  0.9257 -1.1640 -0.2045
10198TIP3   OH252084   4.854   2.258   1.072  0.3259  0.0071 -0.5761
10198TIP3    H152085   4.840   2.179   1.021  1.3981 -0.0301 -0.8111
10198TIP3    H252086   4.770   2.305   1.066  1.1135  1.1087 -4.2746
10199TIP3   OH252087   0.017   5.120  15.405  0.1741 -0.4744  0.1461
10199TIP3    H152088   0.082   5.187  15.425  0.2522  0.0892 -1.9938
10199TIP3    H252089  -0.013   5.139  15.317  0.1635 -3.2191 -0.4999
10200TIP3   OH252090   3.109   6.562  15.584 -0.4200  0.0052 -0.0760
10200TIP3    H152091   3.198   6.555  15.549  0.3377 -1.8398  2.1358
10200TIP3    H252092   3.110   6.641  15.638  0.1494 -0.5041  0.6673
10201TIP3   OH252093   3.304   3.506   3.332 -0.1059 -0.2423  0.0450
10201TIP3    H152094   3.370   3.436   3.339  0.1128  0.0212  0.7064
10201TIP3    H252095   3.222   3.464   3.357  0.0274 -0.2645  0.4512
10202TIP3   OH252096   5.082   4.107  11.194 -0.1355 -0.8518 -0.0729
10202TIP3    H152097   5.144   4.134  11.261 -0.0924  0.6569 -0.7065
10202TIP3    H252098   5.106   4.158  11.116 -0.8292 -1.8159 -0.9319
10203TIP3   OH252099   5.132   1.535   6.605  0.6429  0.5215 -0.5149
10203TIP3    H152100   5.169   1.473   6.668  0.1920  0.6004 -0.1725
10203TIP3    H252101   5.164   1.504   6.520 -0.1691 -0.6186 -0.4211
10204TIP3   OH252102   3.437   4.518   4.138 -0.1649  0.1191  0.0300
10204TIP3    H152103   3.523   4.552   4.110  0.1307 -0.2753  0.4555
10204TIP3    H252104   3.443   4.514   4.233 -0.7549  0.3427  0.0752
10205TIP3   OH252105   6.632   4.802  14.690  0.7002  0.1111  0.5758
10205TIP3    H152106   6.608   4.888  14.724 -2.6473 -0.7569  0.5152
10205TIP3    H252107   6.664   4.754  14.766 -1.5378  0.0051  1.4773
10206TIP3   OH252108   4.514   2.309  13.100  0.1759  0.0581 -0.3941
10206TIP3    H152109   4.432   2.311  13.150  0.1238  0.4246 -0.4935
10206TIP3    H252110   4.499   2.369  13.027  0.4699 -0.0133 -0.5129
10207TIP3   OH252111   0.703   6.447   0.560  0.2834 -0.3483  0.1687
10207TIP3    H152112   0.711   6.534   0.522 -1.6695 -0.4233 -0.4784
10207TIP3    H252113   0.700   6.388   0.485 -1.3192 -0.7007  0.5025
10208TIP3   OH252114   2.498   5.026  16.490  0.2944 -0.6405  0.1029
10208TIP3    H152115   2.524   4.947  16.539  2.3186  0.6915  1.2318
10208TIP3    H252116   2.424   5.061  16.538 -0.2112 -1.4914 -0.0433
10209TIP3   OH252117   3.721   4.899  13.193 -0.1938  0.3747  0.8524
10209TIP3    H152118   3.647   4.845  13.222  0.2573  0.3797  2.0538
10209TIP3    H252119   3.698   4.926  13.104  0.1420 -2.8020 -0.2470
10210TIP3   OH252120   1.424   4.033   0.355 -0.0534 -0.0933 -0.1794
10210TIP3    H152121   1.419   4.127   0.337  0.3827  0.3181  1.7199
10210TIP3    H252122   1.379   4.023   0.439  1.2931 -1.3450  0.4017
10211TIP3   OH252123   2.863   2.734   3.979 -0.4287 -0.0875 -0.4463
10211TIP3    H152124   2.886   2.712   3.889 -1.3948  1.1419 -0.9976
10211TIP3    H252125   2.779   2.689   3.994 -1.1708  1.1754 -0.7619
10212TIP3   OH252126   1.492   5.955   6.098 -0.1283 -0.2926  0.3271
10212TIP3    H152127   1.405   5.924   6.124 -0.1619 -2.7995 -2.5395
10212TIP3    H252128   1.550   5.925   6.168 -1.3242  0.2249  1.5782
10213TIP3   OH252129   1.037   4.640  13.475  0.3142  0.3042 -0.3141
10213TIP3    H152130   0.943   4.623  13.487  0.3751  1.0061  1.2222
10213TIP3    H252131   1.041   4.733  13.451  0.7655  0.8630  1.8387
10214TIP3   OH252132   2.530   0.540   5.486  0.1208 -0.3339 -0.8393
10214TIP3    H152133   2.470   0.614   5.499  0.6503  0.1464 -1.0821
10214TIP3    H252134   2.484   0.482   5.426  0.0021  0.1648 -1.2361
10215TIP3   OH252135   4.125   2.725  13.905  0.2359  0.4438  0.3250
10215TIP3    H152136   4.203   2.673  13.926  0.3730  0.3922 -0.3035
10215TIP3    H252137   4.052   2.673  13.939  0.3838 -0.0949 -0.1743
10216TIP3   OH252138   5.644   5.376  15.545 -0.3561  0.1026 -0.2963
10216TIP3    H152139   5.585   5.359  15.618  1.2000 -0.0415  0.9549
10216TIP3    H252140   5.617   5.461  15.511  0.1119  1.0490  1.6555
10217TIP3   OH252141   6.729   4.561   5.658 -0.4480  0.1928  0.2700
10217TIP3    H152142   6.788   4.629   5.626 -0.9483  0.1855 -0.6902
10217TIP3    H252143   6.642   4.600   5.648 -0.7014 -0.3887  0.2091
10218TIP3   OH252144   4.604   3.010  12.395 -0.6595  0.0620 -0.0174
10218TIP3    H152145   4.656   3.008  12.315  0.2729  0.0158  0.5882
10218TIP3    H252146   4.579   3.102  12.406  1.9069  0.6437  1.3554
10219TIP3   OH252147   2.124   1.464  14.637 -0.7045  0.2726  0.4984
10219TIP3    H152148   2.132   1.502  14.724 -3.0169  1.8731  0.0801
10219TIP3    H252149   2.052   1.401  14.645  1.6769 -2.5242  0.6553
10220TIP3   OH252150   6.560   2.956   1.996 -0.6064  0.1315  0.1637
10220TIP3    H152151   6.537   2.865   2.017 -1.7827  0.6645  1.2836
10220TIP3    H252152   6.479   3.005   2.010 -0.2560  1.2124 -1.4207
10221TIP3   OH252153   1.809   4.446  15.866  0.3280  0.4266 -0.1157
10221TIP3    H152154   1.807   4.455  15.771 -0.9931 -0.9333 -0.2362
10221TIP3    H252155   1.742   4.380  15.886  1.1035  0.1301  1.6895
10222TIP3   OH252156   1.189   1.765   0.282 -0.2365  0.3453 -0.6346
10222TIP3    H152157   1.185   1.762   0.187 -0.7959  2.0857 -0.6698
10222TIP3    H252158   1.115   1.712   0.311 -0.0751 -0.1718 -1.1516
10223TIP3   OH252159   5.385   3.330  10.440  0.1635 -0.0615 -0.3071
10223TIP3    H152160   5.312   3.356  10.497  0.9476 -2.3141  1.8207
10223TIP3    H252161   5.349   3.261  10.385 -0.2279  1.2151 -1.6883
10224TIP3   OH252162   3.514   5.363  14.986 -0.2638  0.2469 -0.2623
10224TIP3    H152163   3.501   5.347  14.892 -0.3122 -1.2254 -0.0319
10224TIP3    H252164   3.581   5.300  15.012  0.0027  0.8865  0.6271
10225TIP3   OH252165   5.500   2.160  12.497 -0.1602  1.0047 -0.0906
10225TIP3    H152166   5.416   2.175  12.454  0.7754  1.0836 -1.9178
10225TIP3    H252167   5.556   2.231  12.465  0.8388  0.4783  0.4832
10226TIP3   OH252168   1.185   0.214  15.541  0.0999 -0.3315 -0.2543
10226TIP3    H152169   1.261   0.249  15.496 -1.3158  0.8801 -1.7174
10226TIP3    H252170   1.154   0.143  15.485 -0.4968 -0.1077 -0.2130
10227TIP3   OH252171   6.641   1.879   1.820 -0.1486  0.0194 -0.6639
10227TIP3    H152172   6.613   1.919   1.738  0.4969 -2.3704 -2.0827
10227TIP3    H252173   6.559   1.861   1.867 -0.4879  1.9043 -0.5013
10228TIP3   OH252174   3.636   1.278  13.872  0.4546  0.1622  0.4569
10228TIP3    H152175   3.666   1.309  13.786 -1.4093  0.5916 -0.0590
10228TIP3    H252176   3.617   1.358  13.921  0.8324 -0.0954  1.0300
10229TIP3   OH252177   2.175   5.000   3.087 -0.0631 -0.0002  0.4063
10229TIP3    H152178   2.203   4.972   3.174  1.6313 -2.5280 -0.8898
10229TIP3    H252179   2.247   5.055   3.056  0.1423 -0.5404 -0.0766
10230TIP3   OH252180   5.238   3.845   3.616 -0.6578  0.0996 -0.1368
10230TIP3    H152181   5.288   3.776   3.661  1.8318  1.4229 -0.7914
10230TIP3    H252182   5.229   3.812   3.527 -0.9226 -0.1080 -0.0360
10231TIP3   OH252183   1.360   3.706  15.753 -0.2479 -0.6452  0.0762
10231TIP3    H152184   1.435   3.691  15.696 -1.0074 -0.0239 -1.1258
10231TIP3    H252185   1.287   3.719  15.692 -0.7355  1.8680  1.1428
10232TIP3   OH252186   6.444   6.223   2.479 -0.7171 -0.1241 -0.4079
10232TIP3    H152187   6.433   6.192   2.389 -1.1419  0.8228 -0.6859
10232TIP3    H252188   6.538   6.214   2.495 -0.5830  0.0071 -1.0716
10233TIP3   OH252189   4.651   1.457  11.569 -0.2800  0.4123  0.1815
10233TIP3    H152190   4.694   1.482  11.488  0.9129  0.2496  0.7545
10233TIP3    H252191   4.646   1.539  11.620 -0.9363  0.4953 -0.0071
10234TIP3   OH252192   1.990   1.983  12.394 -0.4271  0.3278  0.4776
10234TIP3    H152193   1.966   1.894  12.420 -1.1927  1.2768  3.1384
10234TIP3    H252194   1.958   2.039  12.465  0.8257  2.6560 -0.7209
10235TIP3   OH252195   2.490   5.021  15.302  0.0637 -0.2131 -0.0767
10235TIP3    H152196   2.448   4.969  15.234  1.9300 -0.5586 -1.0057
10235TIP3    H252197   2.582   4.995  15.299  0.3469  0.4465  1.9639
10236TIP3   OH252198   0.195   1.078   5.896  0.1865 -0.1326  0.0527
10236TIP3    H152199   0.245   1.014   5.948 -0.8113 -0.3185  0.7980
10236TIP3    H252200   0.261   1.139   5.863  0.8962 -0.2845  1.1659
10237TIP3   OH252201   2.891   2.567  16.738  0.6837  0.2696 -0.5791
10237TIP3    H152202   2.978   2.607  16.750  2.0590 -2.6331 -0.3844
10237TIP3    H252203   2.861   2.602  16.654  1.1073  2.8982  0.2951
10238TIP3   OH252204   4.407   4.256  14.901 -0.1674 -0.3830  0.6824
10238TIP3    H152205   4.466   4.327  14.928 -0.9636 -0.1739  1.9093
10238TIP3    H252206   4.337   4.257  14.966 -3.2134  1.4256 -2.5093
10239TIP3   OH252207   1.302   3.467   2.632 -0.5195 -0.7400  0.0624
10239TIP3    H152208   1.209   3.472   2.612 -0.2519  1.2443 -0.8685
10239TIP3    H252209   1.309   3.496   2.723 -0.7647 -0.2430 -0.0730
10240TIP3   OH252210   4.586   5.822  10.941 -0.0532 -0.0161 -0.1122
10240TIP3    H152211   4.557   5.799  11.030 -1.0229 -1.2540 -0.7243
10240TIP3    H252212   4.527   5.892  10.915  0.8616  1.0182  0.5828
10241TIP3   OH252213   5.425   3.030   3.550  0.2063 -0.1719 -0.0658
10241TIP3    H152214   5.439   3.036   3.645 -0.4398 -0.0545  0.0194
10241TIP3    H252215   5.479   2.955   3.523  1.4289  0.5962  0.1893
10242TIP3   OH252216   4.514   4.348   2.701  0.1530 -0.1898  0.1758
10242TIP3    H152217   4.467   4.266   2.719  0.2642  0.0056  1.4031
10242TIP3    H252218   4.569   4.361   2.778  1.1125  0.3667 -0.5929
10243TIP3   OH252219   5.282   4.343   5.184  0.0948 -0.4085  0.3650
10243TIP3    H152220   5.213   4.396   5.225 -0.1438  0.8045 -1.5340
10243TIP3    H252221   5.236   4.267   5.149 -0.6280  1.2469 -2.4350
10244TIP3   OH252222   3.885   2.399  10.873 -0.4049 -0.2659  0.0124
10244TIP3    H152223   3.841   2.475  10.912 -0.8424 -0.4556 -0.1117
10244TIP3    H252224   3.844   2.323  10.915 -0.5378 -0.4567 -0.4532
10245TIP3   OH252225   3.346   1.393   3.121 -0.8959  0.4392 -0.3550
10245TIP3    H152226   3.358   1.411   3.028  2.6860 -1.0865 -0.2749
10245TIP3    H252227   3.346   1.297   3.126  0.4633  0.5145  1.3651
10246TIP3   OH252228   1.434   5.940   1.967  0.0683  0.4170  0.2475
10246TIP3    H152229   1.359   5.999   1.979 -0.9795 -0.5751 -1.1301
10246TIP3    H252230   1.498   5.992   1.919  0.2591  1.2692  1.4126
10247TIP3   OH252231   2.066   0.782   1.108 -0.2689  0.3696 -0.0616
10247TIP3    H152232   2.079   0.829   1.025  0.2205  1.0682  0.4019
10247TIP3    H252233   2.068   0.689   1.084  0.1219  0.5678 -0.7963
10248TIP3   OH252234   5.720   0.876   4.052 -0.7727 -0.3614  0.4769
10248TIP3    H152235   5.691   0.878   4.143 -1.0299 -2.2987  0.4636
10248TIP3    H252236   5.771   0.795   4.045  0.4336  0.4831 -0.7474
10249TIP3   OH252237   0.670   0.687  14.149 -0.1703  0.0175 -0.1283
10249TIP3    H152238   0.753   0.678  14.194  0.5579 -3.6094 -2.0354
10249TIP3    H252239   0.613   0.731  14.212  1.9682 -1.1874  2.7268
10250TIP3   OH252240   2.156   3.853  11.088  0.7803 -0.4880 -0.3703
10250TIP3    H152241   2.218   3.799  11.039 -1.3539 -1.9056 -1.5801
10250TIP3    H252242   2.086   3.872  11.025 -0.7375 -0.1436  1.3915
10251TIP3   OH252243   3.921   2.530  10.622 -0.1711 -0.2628  0.0059
10251TIP3    H152244   3.909   2.510  10.715 -2.3674 -1.0234 -0.3981
10251TIP3    H252245   4.005   2.491  10.599  0.9267  0.9221  1.9230
10252TIP3   OH252246   4.730   4.683  17.162  0.1311 -0.4690  0.1715
10252TIP3    H152247   4.671   4.664  17.089  1.8327 -1.7517 -0.9105
10252TIP3    H252248   4.725   4.605  17.217  2.5839 -1.6497 -1.1775
10253TIP3   OH252249   1.484   6.783   4.176  0.6614 -0.2765 -0.0445
10253TIP3    H152250   1.429   6.751   4.247  0.4567 -0.8710 -0.4663
10253TIP3    H252251   1.574   6.770   4.208  0.5708  1.4643  0.9801
10254TIP3   OH252252   4.491   5.196  11.220 -0.5269 -0.1607  0.8302
10254TIP3    H152253   4.490   5.291  11.232 -1.7239 -0.1231  0.5851
10254TIP3    H252254   4.468   5.160  11.305 -1.9555 -0.1468  0.4733
10255TIP3   OH252255   4.432   3.222  11.328  0.1002 -0.7141  0.2232
10255TIP3    H152256   4.343   3.243  11.359  0.5642 -0.2346  1.2858
10255TIP3    H252257   4.483   3.300  11.349  0.3351 -0.1752 -2.2841
10256TIP3   OH252258   3.513   4.085  16.131  0.3174 -0.5306 -0.1676
10256TIP3    H152259   3.535   4.165  16.178 -0.1234  0.1881 -1.1692
10256TIP3    H252260   3.418   4.088  16.120  0.3520 -0.9601 -0.6221
10257TIP3   OH252261   6.550   1.161  11.529 -0.3248 -0.2448  0.4454
10257TIP3    H152262   6.599   1.207  11.597  0.7425  1.1384 -1.1966
10257TIP3    H252263   6.537   1.226  11.460 -0.8688 -1.7452 -0.9265
10258TIP3   OH252264   6.622   5.294  14.272 -0.5013  0.5402  0.3593
10258TIP3    H152265   6.646   5.356  14.203  0.4474  0.6302  0.7702
10258TIP3    H252266   6.703   5.278  14.319 -0.7640 -0.9565  0.3121
10259TIP3   OH252267   4.889   6.284  14.801 -0.0039  0.3082 -0.0332
10259TIP3    H152268   4.966   6.233  14.827 -1.3765 -0.8124  1.9721
10259TIP3    H252269   4.911   6.374  14.825  1.3614  0.2723 -1.0904
10260TIP3   OH252270   5.967   6.395  15.331  0.2900 -0.0313  0.3368
10260TIP3    H152271   5.873   6.394  15.310  0.2554  2.2799  0.2951
10260TIP3    H252272   5.970   6.414  15.425  0.6864 -2.1526  0.7825
10261TIP3   OH252273   6.392   6.367   1.481  0.0431  0.1569  0.2397
10261TIP3    H152274   6.312   6.324   1.513 -0.2610 -0.5888 -1.4806
10261TIP3    H252275   6.415   6.319   1.402  0.0093  2.8159 -1.4239
10262TIP3   OH252276   1.714   6.143   0.096  0.1649 -0.3154 -0.1657
10262TIP3    H152277   1.702   6.095   0.014 -0.4368  0.1312 -0.3379
10262TIP3    H252278   1.809   6.146   0.108  0.2362 -0.8333 -0.5763
10263TIP3   OH252279   5.650   1.669   2.161 -0.6675  0.0728 -0.0546
10263TIP3    H152280   5.672   1.748   2.112  0.3720 -0.1575  0.0213
10263TIP3    H252281   5.575   1.694   2.214  0.1094  1.2310  0.5193
10264TIP3   OH252282   3.530   0.158   5.665  0.3405 -0.3437 -0.7424
10264TIP3    H152283   3.551   0.167   5.572 -2.9302  1.0023 -1.3948
10264TIP3    H252284   3.484   0.074   5.671  1.1621 -0.7647 -0.1907
10265TIP3   OH252285   6.738   0.593  14.956 -0.6247 -0.0785 -0.7164
10265TIP3    H152286   6.703   0.505  14.971  0.1854  0.1779  2.8835
10265TIP3    H252287   6.660   0.650  14.957 -0.7514 -0.2716  1.0127
10266TIP3   OH252288   6.234   1.783  14.182  0.1199 -0.0066  0.2759
10266TIP3    H152289   6.168   1.815  14.242 -0.1377  0.3997 -0.2163
10266TIP3    H252290   6.304   1.751  14.238 -0.4826 -0.4171  0.7973
10267TIP3   OH252291   0.600   5.338  16.538  0.1909 -0.2452  0.1024
10267TIP3    H152292   0.593   5.299  16.451 -0.5926  1.3088 -0.5304
10267TIP3    H252293   0.685   5.307  16.571  0.9035 -0.0877 -1.5595
10268TIP3   OH252294   5.632   4.756  13.779  0.0462  0.5089  0.6252
10268TIP3    H152295   5.709   4.705  13.753 -0.0904 -0.4645  2.0366
10268TIP3    H252296   5.666   4.843  13.798  0.4967  0.5963 -0.5623
10269TIP3   OH252297   1.447   2.697   2.182  0.2000 -0.2743  0.5598
10269TIP3    H152298   1.512   2.698   2.111 -0.0098  1.4133  0.3809
10269TIP3    H252299   1.499   2.683   2.261  1.1413  3.4743  0.7080
10270TIP3   OH252300   3.587   5.982  11.517  0.1772  0.1067  0.2063
10270TIP3    H152301   3.651   5.936  11.571 -0.2347 -1.3013 -0.4823
10270TIP3    H252302   3.640   6.038  11.460  0.7255 -0.1511  0.4570
10271TIP3   OH252303   4.146   1.416  12.682 -0.1389  0.1403 -0.5025
10271TIP3    H152304   4.235   1.422  12.646 -0.5741  1.4118 -1.3889
10271TIP3    H252305   4.136   1.323  12.706  1.6572  0.1164  0.2316
10272TIP3   OH252306   3.722   1.151  11.746 -0.5441 -0.0379 -0.3443
10272TIP3    H152307   3.780   1.168  11.672 -0.4149  1.7419  0.1414
10272TIP3    H252308   3.644   1.203  11.728 -0.2623  0.8993  1.0467
10273TIP3   OH252309   6.001   3.830   2.336  0.2836 -0.3300  0.4476
10273TIP3    H152310   5.957   3.745   2.334  0.8324 -0.6238  0.6904
10273TIP3    H252311   5.957   3.878   2.406  1.6988 -1.3695  2.0942
10274TIP3   OH252312   1.709   4.056   4.716 -0.2393 -0.4583  0.4551
10274TIP3    H152313   1.650   4.068   4.642  1.2763 -0.3959 -0.7620
10274TIP3    H252314   1.751   4.141   4.728  0.7526 -0.9190  0.3108
10275TIP3   OH252315   3.498   6.181  14.344 -0.1072  0.7304  0.0301
10275TIP3    H152316   3.469   6.220  14.262  0.0380  0.2947 -0.2316
10275TIP3    H252317   3.478   6.088  14.334 -2.4220  1.0199  1.4775
10276TIP3   OH252318   6.500   2.680   2.399  0.4156  0.5795  0.0141
10276TIP3    H152319   6.494   2.603   2.343  0.5117  0.7307 -0.2088
10276TIP3    H252320   6.542   2.649   2.479 -4.0018 -0.6836  1.9780
10277TIP3   OH252321   2.972   0.257   1.780 -0.1514 -0.0015  0.6334
10277TIP3    H152322   3.015   0.299   1.855 -0.3203  0.7439  0.3218
10277TIP3    H252323   2.959   0.328   1.717 -0.3349 -0.5534  0.0430
10278TIP3   OH252324   0.474   0.222  13.655  0.4058  0.3593  0.1177
10278TIP3    H152325   0.540   0.154  13.637 -0.0794 -0.2526  0.6303
10278TIP3    H252326   0.524   0.303  13.658  1.7024 -0.5128  4.0912
10279TIP3   OH252327   3.154   6.453   4.831  0.3324 -0.2980 -0.4017
10279TIP3    H152328   3.154   6.529   4.889 -3.8931 -0.3479 -0.1706
10279TIP3    H252329   3.208   6.480   4.757  0.5407  2.1711  0.5840
10280TIP3   OH252330   0.649   0.107  13.076  0.2539  0.6724  0.1054
10280TIP3    H152331   0.625   0.127  13.167 -0.1148 -1.8619  0.5786
10280TIP3    H252332   0.631   0.189  13.029 -3.1096  0.9339  1.6578
10281TIP3   OH252333   2.698   3.566  16.394 -0.2527  0.3826 -0.1433
10281TIP3    H152334   2.788   3.557  16.424 -0.3439 -1.0956 -0.3034
10281TIP3    H252335   2.703   3.622  16.317  0.4928  0.4754 -0.0271
10282TIP3   OH252336   0.057   5.161  12.166  0.4116 -0.1466  0.3029
10282TIP3    H152337   0.090   5.159  12.255 -0.0368 -1.7254  0.4445
10282TIP3    H252338  -0.011   5.228  12.167  1.0024  0.4523  0.9196
10283TIP3   OH252339   0.695   5.903   6.414 -0.3193  0.3267 -0.2811
10283TIP3    H152340   0.614   5.954   6.413 -1.1430 -0.9486  0.2907
10283TIP3    H252341   0.764   5.966   6.391 -1.6042  1.1721 -1.8264
10284TIP3   OH252342   6.225   6.151  11.439  0.3282 -0.1129  0.5833
10284TIP3    H152343   6.216   6.102  11.521  2.9195 -1.9550 -0.1854
10284TIP3    H252344   6.252   6.239  11.468 -0.8187 -0.1290  1.7813
10285TIP3   OH252345   3.870   3.129  14.752 -0.1606 -0.0544 -0.3677
10285TIP3    H152346   3.871   3.164  14.663 -0.9635 -0.2352 -0.4479
10285TIP3    H252347   3.841   3.038  14.741  1.4721 -0.6243 -0.1150
10286TIP3   OH252348   3.502   5.397  13.734 -0.7351  0.0032  0.2125
10286TIP3    H152349   3.507   5.486  13.769  0.9835  0.2488 -0.6026
10286TIP3    H252350   3.409   5.377  13.733 -1.2119  2.1169 -0.3474
10287TIP3   OH252351   0.055   5.649   1.726  0.4915  0.7765  0.6029
10287TIP3    H152352   0.084   5.559   1.714 -0.7955  0.2201  1.5339
10287TIP3    H252353   0.124   5.691   1.776  1.0422  0.2747  0.2642
10288TIP3   OH252354   0.054   3.552  14.929  0.0744  0.4421  0.2261
10288TIP3    H152355   0.024   3.461  14.924 -0.5286  0.6792 -0.5856
10288TIP3    H252356   0.036   3.588  14.842 -1.2541  1.8218  1.0542
10289TIP3   OH252357   0.091   2.326   0.424  0.3685  0.4158  0.2497
10289TIP3    H152358   0.038   2.252   0.453 -0.4745 -0.1073 -2.4267
10289TIP3    H252359   0.173   2.316   0.471 -0.0115 -1.8077  0.5224
10290TIP3   OH252360   2.989   4.646  14.452 -0.1463 -0.6979 -0.1314
10290TIP3    H152361   2.930   4.720  14.469  0.5244 -0.8704  3.3027
10290TIP3    H252362   3.032   4.669  14.370 -1.2232  1.8978 -0.0334
10291TIP3   OH252363   2.011   6.449   1.401 -0.1432  0.9877  0.1047
10291TIP3    H152364   1.964   6.420   1.323  1.4579  3.2383 -1.7489
10291TIP3    H252365   1.969   6.401   1.473 -1.6655 -1.1098 -2.0971
10292TIP3   OH252366   4.299   6.547   2.192  0.1313 -0.4891  0.2533
10292TIP3    H152367   4.207   6.542   2.167 -0.3992  0.8075  1.7959
10292TIP3    H252368   4.297   6.569   2.286  2.0015  0.3813  0.1208
10293TIP3   OH252369   1.211   6.178   3.211 -0.6054 -0.0597  0.4297
10293TIP3    H152370   1.194   6.259   3.163  0.3567 -0.5281 -0.7469
10293TIP3    H252371   1.286   6.198   3.266 -1.6264  0.4397  1.6403
10294TIP3   OH252372   5.091   4.660  11.293  0.1023 -0.1232 -0.5381
10294TIP3    H152373   5.002   4.656  11.258 -0.7516  1.1323  1.4056
10294TIP3    H252374   5.139   4.717  11.231 -1.4152  2.1836  0.3429
10295TIP3   OH252375   4.922   4.250  11.903  0.4011  0.7082 -0.6914
10295TIP3    H152376   4.850   4.290  11.855 -0.4965 -1.1074 -0.8822
10295TIP3    H252377   4.993   4.314  11.897 -0.5580  1.6665 -2.1438
10296TIP3   OH252378   5.283   6.510   0.817 -0.4553  0.1819 -0.0380
10296TIP3    H152379   5.268   6.425   0.860  0.3833  0.3913  0.6697
10296TIP3    H252380   5.344   6.490   0.746  1.3572  0.5283  1.3862
10297TIP3   OH252381   5.761   2.660  13.411 -0.0726  0.7472 -0.1201
10297TIP3    H152382   5.687   2.642  13.469  0.2029  0.7144  0.2232
10297TIP3    H252383   5.723   2.711  13.340 -0.4532  0.6142 -0.0168
10298TIP3   OH252384   4.293   4.742   1.537 -0.1154  0.5337  0.7068
10298TIP3    H152385   4.254   4.737   1.624 -0.2031  2.4428  0.8056
10298TIP3    H252386   4.383   4.711   1.549 -0.3308  0.1420  1.3376
10299TIP3   OH252387   4.500   2.624  16.782 -1.2680  0.2869 -0.4164
10299TIP3    H152388   4.550   2.543  16.777 -0.5048  0.7201  0.0719
10299TIP3    H252389   4.566   2.693  16.772 -1.3775  0.9358  2.9506
10300TIP3   OH252390   5.361   6.026   2.700  0.7825  0.2491  0.3756
10300TIP3    H152391   5.341   5.981   2.782  0.2984 -0.2416 -0.0070
10300TIP3    H252392   5.399   5.958   2.643 -0.1695  0.2534 -0.2849
10301TIP3   OH252393   1.303   2.919   0.114  0.8660  0.0037 -0.2897
10301TIP3    H152394   1.294   2.831   0.077  0.7059 -0.1817  0.1918
10301TIP3    H252395   1.396   2.927   0.135  0.4952 -0.9398  1.8580
10302TIP3   OH252396   4.985   5.670  12.594  0.7431 -0.1849  0.0061
10302TIP3    H152397   5.034   5.634  12.668 -1.2764  0.3883  1.6689
10302TIP3    H252398   5.029   5.635  12.516  1.5673 -2.5644  1.5001
10303TIP3   OH252399   1.440   4.407   5.098 -0.0980 -0.7148 -0.3522
10303TIP3    H152400   1.481   4.355   5.029  0.1098  0.3949 -1.0745
10303TIP3    H252401   1.472   4.368   5.179  1.9825 -0.1972 -0.9007
10304TIP3   OH252402   3.676   1.691  12.207 -0.2399  0.2679 -0.3858
10304TIP3    H152403   3.680   1.605  12.250 -0.3013 -0.2919 -1.4892
10304TIP3    H252404   3.645   1.672  12.119 -4.2425  1.8825  0.5888
10305TIP3   OH252405   6.089   2.146  14.178 -0.0097 -0.3617 -0.4370
10305TIP3    H152406   6.146   2.157  14.102  1.7499  0.8411  1.0063
10305TIP3    H252407   6.060   2.055  14.174  2.7945 -1.2915 -0.7094
10306TIP3   OH252408   1.727   3.503   4.144 -0.6707 -0.1247 -0.0202
10306TIP3    H152409   1.701   3.499   4.052 -1.0274  0.9868  0.0294
10306TIP3    H252410   1.813   3.461   4.146 -1.5346 -1.9829 -0.5193
10307TIP3   OH252411   6.343   2.058   0.666  0.6671 -0.1122  0.0919
10307TIP3    H152412   6.400   2.055   0.742  0.2684 -2.8610  0.3305
10307TIP3    H252413   6.269   2.111   0.693  0.7598 -0.6801  1.4812
10308TIP3   OH252414   1.697   4.012  11.251  0.0503  0.5515 -0.2781
10308TIP3    H152415   1.643   3.999  11.174  0.1831 -0.6382 -0.1874
10308TIP3    H252416   1.732   4.101  11.242 -1.4415  1.1142 -0.6177
10309TIP3   OH252417   4.512   2.460  14.226  0.0464 -0.3035 -0.2240
10309TIP3    H152418   4.534   2.445  14.318  2.5829  1.2802 -0.5272
10309TIP3    H252419   4.436   2.518  14.228  1.2579  1.2872  0.9011
10310TIP3   OH252420   0.760   4.941  16.340  0.2634  0.5304  0.3613
10310TIP3    H152421   0.715   5.021  16.314  0.8498  1.1505  1.2342
10310TIP3    H252422   0.838   4.938  16.284 -0.5657 -0.2806 -0.7904
10311TIP3   OH252423   1.384   3.668   5.840  0.0449  0.4233  0.2906
10311TIP3    H152424   1.304   3.665   5.893  0.4391  3.2038  1.1118
10311TIP3    H252425   1.454   3.684   5.904  1.1228 -0.7585 -0.5676
10312TIP3   OH252426   2.735   2.823  15.223  0.0682  0.0800 -0.0829
10312TIP3    H152427   2.691   2.738  15.214 -0.4341  0.4562 -1.3029
10312TIP3    H252428   2.816   2.803  15.269 -0.0592 -1.0690 -0.3342
10313TIP3   OH252429   1.683   6.436  16.772 -0.1424 -0.0136 -0.3324
10313TIP3    H152430   1.665   6.351  16.814  0.1936  0.5442  0.9723
10313TIP3    H252431   1.758   6.419  16.715  0.5720 -0.3715  0.6907
10314TIP3   OH252432   1.864   3.954  11.870  0.1488 -0.4200  0.3680
10314TIP3    H152433   1.796   3.978  11.932  0.5332 -0.1104  0.6780
10314TIP3    H252434   1.944   3.948  11.923  0.8177  1.5084 -0.3371
10315TIP3   OH252435   5.048   3.656   3.828  0.4573 -0.3680  0.3760
10315TIP3    H152436   5.042   3.693   3.916 -1.8861 -1.8673  0.8788
10315TIP3    H252437   4.996   3.715   3.773 -2.2700 -2.1482  0.9577
10316TIP3   OH252438   1.384   3.460   0.176  0.0338 -0.4800  0.4771
10316TIP3    H152439   1.365   3.499   0.091 -0.3408 -0.2842  0.6504
10316TIP3    H252440   1.471   3.494   0.199  0.3223 -0.8723 -0.0204
10317TIP3   OH252441   1.078   4.091   2.960 -0.5499 -0.3630 -0.2414
10317TIP3    H152442   1.139   4.037   3.010  0.1587 -1.4965 -2.2443
10317TIP3    H252443   0.993   4.052   2.976 -0.4609 -0.1393  0.8038
10318TIP3   OH252444   1.144   3.437  14.416  0.4765  0.1298 -0.1183
10318TIP3    H152445   1.207   3.413  14.348 -0.9112  0.2491 -1.4797
10318TIP3    H252446   1.156   3.531  14.428  0.7368  0.1075 -0.2017
10319TIP3   OH252447   2.920   4.071   2.166  0.2135  0.0186  0.3528
10319TIP3    H152448   2.984   4.091   2.234 -0.4244 -0.1209  1.0138
10319TIP3    H252449   2.915   3.975   2.165  0.4780  0.0121 -0.1301
10320TIP3   OH252450   3.534   6.288  16.797 -0.1319  0.6707  0.8417
10320TIP3    H152451   3.610   6.247  16.839 -0.5263 -1.2382 -0.2789
10320TIP3    H252452   3.466   6.286  16.864 -0.9757 -3.0186 -0.0443
10321TIP3   OH252453   1.575   2.264  16.109  0.0267  0.3046 -0.3526
10321TIP3    H152454   1.585   2.242  16.202 -2.0769  1.8054  0.2755
10321TIP3    H252455   1.481   2.277  16.098  0.4290  1.7554 -2.3275
10322TIP3   OH252456   4.179   2.021  12.005 -0.2289 -0.0901  0.2538
10322TIP3    H152457   4.252   2.031  11.944 -0.9794 -0.0813 -0.6570
10322TIP3    H252458   4.145   2.109  12.017 -1.0901 -0.2997 -0.5844
10323TIP3   OH252459   0.488   0.952  15.330 -0.5260  0.3645 -0.3387
10323TIP3    H152460   0.467   1.036  15.289  0.3745  1.0418  0.5746
10323TIP3    H252461   0.549   0.910  15.269  0.8385  1.3856  0.3027
10324TIP3   OH252462   5.804   1.922  15.454  0.4495  0.3674 -0.6266
10324TIP3    H152463   5.755   1.993  15.412 -1.2731 -0.0933  0.5184
10324TIP3    H252464   5.891   1.959  15.471 -0.7143  2.5511  0.8329
10325TIP3   OH252465   2.878   5.889   5.993  0.7788  0.2696  0.0839
10325TIP3    H152466   2.825   5.830   6.047  0.9821  1.0477  1.1369
10325TIP3    H252467   2.828   5.970   5.987  0.7180  0.1706 -0.9815
10326TIP3   OH252468   3.342   2.709  17.070  0.1952 -0.8276 -0.4009
10326TIP3    H152469   3.413   2.695  17.132  1.7955  1.5349 -1.6113
10326TIP3    H252470   3.357   2.644  17.001 -0.3181 -2.0042  0.5732
10327TIP3   OH252471   3.980   4.797   2.275  0.3249  0.2227  0.1833
10327TIP3    H152472   3.897   4.753   2.257  1.3851 -0.9647 -1.8628
10327TIP3    H252473   4.017   4.749   2.349  0.1879 -0.5586 -0.2610
10328TIP3   OH252474   2.154   2.138   3.637  0.3919  0.1451  0.1429
10328TIP3    H152475   2.125   2.156   3.547  0.1864 -1.7413 -0.1815
10328TIP3    H252476   2.169   2.044   3.640  2.6129  0.4887  1.4680
10329TIP3   OH252477   6.445   2.703   2.079 -0.1210 -0.1996 -0.2121
10329TIP3    H152478   6.355   2.702   2.044  0.2347 -0.0611 -1.1540
10329TIP3    H252479   6.439   2.754   2.160 -1.1059 -1.1310  0.3216
10330TIP3   OH252480   1.683   0.305  15.409 -0.1221 -0.7234  0.3965
10330TIP3    H152481   1.747   0.373  15.427  1.2672 -2.5360  2.5469
10330TIP3    H252482   1.705   0.234  15.470 -3.8915 -1.5796  0.8908
10331TIP3   OH252483   5.784   2.050   4.598  0.2562 -0.2989 -0.1234
10331TIP3    H152484   5.880   2.051   4.596  0.2295  0.4030 -1.1909
10331TIP3    H252485   5.761   1.959   4.617  1.0953 -1.0031 -2.3982
10332TIP3   OH252486   3.515   4.284  16.833 -0.4639 -0.4189  0.4237
10332TIP3    H152487   3.552   4.273  16.920 -1.4816 -0.1337  0.8933
10332TIP3    H252488   3.473   4.370  16.835  0.3275  0.0102 -0.6559
10333TIP3   OH252489   4.825   1.187   3.981 -0.8201 -0.1039 -0.3773
10333TIP3    H152490   4.849   1.215   4.069 -1.8284 -0.9239  0.1699
10333TIP3    H252491   4.887   1.116   3.961  0.2420  0.9468 -0.8479
10334TIP3   OH252492   1.273   4.896   6.226  0.4975  0.7584 -0.3980
10334TIP3    H152493   1.279   4.830   6.295 -0.1801  1.4388  0.3269
10334TIP3    H252494   1.237   4.974   6.270  2.1823  1.9130 -1.0338
10335TIP3   OH252495   5.334   0.300   0.496  0.4203  0.0668 -0.5502
10335TIP3    H152496   5.245   0.313   0.528  0.0227 -1.1881 -1.1407
10335TIP3    H252497   5.384   0.277   0.575 -0.4784 -2.6204 -0.7072
10336TIP3   OH252498   0.531   3.218  13.621  0.3316 -0.0506  0.4351
10336TIP3    H152499   0.531   3.122  13.624  0.3445 -0.1338 -1.6291
10336TIP3    H252500   0.496   3.244  13.707 -1.3005 -1.9310  0.3921
10337TIP3   OH252501   5.239   4.492  14.984 -0.3434 -0.0493 -0.0482
10337TIP3    H152502   5.317   4.439  15.000 -0.6501 -0.0671  1.4113
10337TIP3    H252503   5.223   4.483  14.890  0.6342 -1.1206 -0.1190
10338TIP3   OH252504   1.498   4.365  13.393 -0.1848 -0.3286 -0.0837
10338TIP3    H152505   1.463   4.304  13.327 -0.5083  1.4958 -1.6315
10338TIP3    H252506   1.421   4.402  13.435 -0.0998  1.5069 -1.4805
10339TIP3   OH252507   5.579   4.894  13.415 -0.1403  0.2444 -0.6252
10339TIP3    H152508   5.570   4.802  13.391 -1.6153  0.9490 -2.9371
10339TIP3    H252509   5.671   4.915  13.397 -0.2430 -0.3066 -1.7967
10340TIP3   OH252510   3.076   5.643   1.972  0.3400 -0.8146 -0.2162
10340TIP3    H152511   3.014   5.694   1.920 -1.0292 -0.9704  1.2134
10340TIP3    H252512   3.161   5.660   1.932 -0.4997  0.1356 -1.6488
10341TIP3   OH252513   4.794   1.865   1.417  0.1229 -0.4559 -0.3931
10341TIP3    H152514   4.782   1.950   1.375 -1.5305 -0.9133 -0.9080
10341TIP3    H252515   4.861   1.821   1.364 -3.4684 -1.8990 -4.0824
10342TIP3   OH252516   1.098   1.381  14.278 -0.1237 -0.0973 -0.1068
10342TIP3    H152517   1.171   1.331  14.241  1.4541  1.9307  0.1638
10342TIP3    H252518   1.068   1.436  14.205  0.8600  1.5185  0.6652
10343TIP3   OH252519   3.722   6.803  14.479 -0.1059  0.1319 -0.0862
10343TIP3    H152520   3.645   6.746  14.482  0.2829 -0.3460  1.8593
10343TIP3    H252521   3.692   6.881  14.433 -1.1209 -0.9552 -1.2921
10344TIP3   OH252522   3.460   4.286  11.983  0.2461 -0.2148  0.3021
10344TIP3    H152523   3.488   4.200  11.951  0.6339 -0.1483  0.4569
10344TIP3    H252524   3.540   4.324  12.020 -0.2060 -0.2967  1.3540
10345TIP3   OH252525   2.888   5.221   2.766 -0.1466 -0.6492 -0.4284
10345TIP3    H152526   2.922   5.154   2.707  0.5020 -1.9327  1.3607
10345TIP3    H252527   2.883   5.300   2.712  2.7864 -1.1745 -1.5664
10346TIP3   OH252528   0.338   1.916   5.738 -0.4725  0.3349  0.0242
10346TIP3    H152529   0.306   1.827   5.754 -1.8902  0.5724 -1.3779
10346TIP3    H252530   0.347   1.955   5.825 -0.9850 -0.7886  0.5842
10347TIP3   OH252531   1.975   6.810  13.336  0.0206  0.0672  0.8543
10347TIP3    H152532   2.054   6.822  13.389  1.5082  2.7809 -1.7957
10347TIP3    H252533   1.912   6.870  13.374 -0.1913 -0.7671  1.8486
10348TIP3   OH252534   5.266   3.813   6.205  0.4245 -0.6729 -0.2328
10348TIP3    H152535   5.242   3.842   6.293  0.9064 -0.9151 -0.0189
10348TIP3    H252536   5.244   3.719   6.205 -1.8525 -0.1775 -1.1691
10349TIP3   OH252537   4.824   5.933  11.964  0.1725 -0.5429 -0.6722
10349TIP3    H152538   4.738   5.946  12.004 -0.5623  0.7683 -2.5989
10349TIP3    H252539   4.884   5.924  12.038 -1.0212  2.5326  0.7749
10350TIP3   OH252540   0.584   6.167  12.844 -0.0901  0.2921 -0.1633
10350TIP3    H152541   0.564   6.144  12.753 -0.4637 -1.4593  0.3489
10350TIP3    H252542   0.517   6.230  12.868  1.4820  2.7137 -1.8807
10351TIP3   OH252543   2.532   3.181  13.419 -0.0408  0.2072 -0.2778
10351TIP3    H152544   2.584   3.169  13.499  0.0799  0.5829 -0.2942
10351TIP3    H252545   2.576   3.128  13.353  2.1650  2.8981 -1.0841
10352TIP3   OH252546   1.394   6.282   5.738 -0.5803 -0.2407  0.1180
10352TIP3    H152547   1.361   6.226   5.808 -1.2194  1.9784  1.6569
10352TIP3    H252548   1.489   6.283   5.752 -0.3700 -2.2473 -0.9658
10353TIP3   OH252549   3.831   3.354  16.160 -0.6405  0.1438  0.4385
10353TIP3    H152550   3.777   3.422  16.199 -1.5083 -1.4994  2.1644
10353TIP3    H252551   3.775   3.276  16.160  0.5640 -0.7482 -0.8957
10354TIP3   OH252552   4.490   2.323  14.458 -0.2248  0.2932  0.3124
10354TIP3    H152553   4.549   2.252  14.483 -0.0281  0.6443  0.8364
10354TIP3    H252554   4.404   2.281  14.452 -0.1419  0.0494  0.8148
10355TIP3   OH252555   5.736   4.010  13.975  0.2389 -0.1639  0.2322
10355TIP3    H152556   5.760   4.026  14.067 -0.1895 -0.3341  0.3737
10355TIP3    H252557   5.659   4.065  13.960  0.8796  0.6085 -0.3085
10356TIP3   OH252558   2.681   5.843   0.933 -0.1105  0.0248 -0.6668
10356TIP3    H152559   2.679   5.913   0.998  1.3382 -0.9076  0.4153
10356TIP3    H252560   2.598   5.797   0.944 -0.5516  0.8395 -0.5688
10357TIP3   OH252561   6.536   5.332   5.233  0.1784  0.6625 -0.7464
10357TIP3    H152562   6.542   5.238   5.214  0.6771  0.6730 -0.6456
10357TIP3    H252563   6.450   5.357   5.201  0.4637  0.3926 -1.7448
10358TIP3   OH252564   5.043   1.770   1.298 -0.2653 -0.3453  0.2059
10358TIP3    H152565   5.052   1.799   1.207  0.7222  1.5584  0.8888
10358TIP3    H252566   5.131   1.738   1.321  0.2912  1.9992  1.4266
10359TIP3   OH252567   5.755   1.042  16.768  0.2387  0.2460 -0.5031
10359TIP3    H152568   5.716   0.980  16.706  1.8171  1.1520 -2.4397
10359TIP3    H252569   5.764   0.992  16.849 -0.0908 -1.5398 -1.5464
10360TIP3   OH252570   2.865   5.025   2.000  0.5247  0.2290  0.1196
10360TIP3    H152571   2.774   5.017   1.973  0.6787  1.3570 -0.7947
10360TIP3    H252572   2.862   5.032   2.095 -0.1588 -2.0610  0.2863
10361TIP3   OH252573   4.067   4.147   4.833  0.6269 -0.4759  0.3381
10361TIP3    H152574   4.055   4.110   4.745  1.0531 -1.8885  0.8612
10361TIP3    H252575   4.154   4.119   4.860  1.0466  1.1115  0.6726
10362TIP3   OH252576   0.436   6.000   3.917  0.1148  0.1365 -0.4301
10362TIP3    H152577   0.394   5.945   3.983 -0.6168  0.5272 -0.5659
10362TIP3    H252578   0.528   5.974   3.918  0.2829  0.7356  1.3660
10363TIP3   OH252579   0.183   5.562   3.324 -0.1445 -0.0616  0.1406
10363TIP3    H152580   0.252   5.574   3.259 -1.3437 -1.1470 -1.3794
10363TIP3    H252581   0.180   5.468   3.339 -2.0516 -0.1620 -0.6898
10364TIP3   OH252582   5.038   3.995  11.943 -0.5011  0.5342 -0.0474
10364TIP3    H152583   4.989   3.954  11.872  0.2152 -0.3084 -0.0595
10364TIP3    H252584   5.018   4.088  11.935  0.9077  0.6722 -2.4203
10365TIP3   OH252585   5.640   1.587  16.260 -0.0208  0.9986  0.4725
10365TIP3    H152586   5.712   1.645  16.234  1.2987 -0.8123  0.0430
10365TIP3    H252587   5.655   1.569  16.353  0.6642 -0.2096  0.1287
10366TIP3   OH252588   5.572   5.370  15.204  0.1769  0.2110  0.2382
10366TIP3    H152589   5.520   5.440  15.244  1.4419  1.2794  0.0318
10366TIP3    H252590   5.632   5.415  15.145  0.4439 -1.1239 -0.5352
10367TIP3   OH252591   2.379   5.237  15.437 -0.4145 -0.0051  0.5481
10367TIP3    H152592   2.333   5.195  15.510 -1.4942 -1.6335 -1.0093
10367TIP3    H252593   2.423   5.165  15.392  1.1686  1.1355  0.2425
10368TIP3   OH252594   0.633   5.235  16.263 -0.2525  0.4952  0.0205
10368TIP3    H152595   0.626   5.331  16.262 -0.2159  0.5547 -3.9322
10368TIP3    H252596   0.611   5.209  16.173  1.1819 -3.1117  0.6386
10369TIP3   OH252597   2.210   3.181  16.063  0.2223  0.0046 -0.1143
10369TIP3    H152598   2.169   3.179  16.150 -1.0806  1.6272 -0.6703
10369TIP3    H252599   2.300   3.152  16.079 -0.0467  0.0951  1.7447
10370TIP3   OH252600   4.415   2.926   5.428  0.1209  0.2987  0.3470
10370TIP3    H152601   4.333   2.931   5.380  0.8142  1.4622 -0.7421
10370TIP3    H252602   4.409   2.994   5.494  1.1844  2.0573 -1.3126
10371TIP3   OH252603   5.726   2.332   2.872  0.1420  0.2895  0.1231
10371TIP3    H152604   5.792   2.370   2.931  1.6014  0.3697 -1.5073
10371TIP3    H252605   5.695   2.254   2.918  1.8513 -0.1151  0.6387
10372TIP3   OH252606   1.630   4.284   1.283 -0.0654  0.1610 -0.4365
10372TIP3    H152607   1.585   4.304   1.365 -0.4130  0.7297 -0.7616
10372TIP3    H252608   1.563   4.242   1.229 -0.3579  1.4404 -1.0982
10373TIP3   OH252609   1.468   6.059  13.606 -0.5041 -0.2424 -0.0610
10373TIP3    H152610   1.544   6.007  13.632  0.6434  0.8868 -1.1387
10373TIP3    H252611   1.485   6.146  13.642 -0.4611  0.4641 -1.7481
10374TIP3   OH252612   5.799   3.599  14.500  0.6081 -0.1579  1.0117
10374TIP3    H152613   5.885   3.640  14.503 -0.5529  2.3534  1.2818
10374TIP3    H252614   5.737   3.672  14.501 -1.5589 -1.9293  1.9560
10375TIP3   OH252615   3.902   6.293  12.727 -0.7498 -0.0193 -0.4694
10375TIP3    H152616   3.878   6.366  12.784  0.1585 -0.6289  0.7069
10375TIP3    H252617   3.957   6.333  12.659 -0.0362  0.3506  0.3157
10376TIP3   OH252618   3.098   2.396  11.178  0.1811 -0.3776 -0.4733
10376TIP3    H152619   3.151   2.438  11.110 -1.4136  0.1264 -1.4250
10376TIP3    H252620   3.007   2.406  11.148 -0.5178 -0.5785  1.4985
10377TIP3   OH252621   2.196   0.475  15.425  0.0084 -0.1442 -0.0391
10377TIP3    H152622   2.213   0.423  15.347 -0.9187 -1.4160  0.5941
10377TIP3    H252623   2.282   0.502  15.456  0.5226 -1.7023 -0.1058
10378TIP3   OH252624   4.154   5.077   1.968 -0.7294 -0.6017  0.1412
10378TIP3    H152625   4.182   5.100   2.057 -0.3843  0.3498 -0.2158
10378TIP3    H252626   4.234   5.049   1.924 -0.6541  0.3192 -0.3097
10379TIP3   OH252627   2.270   2.847   4.667 -0.0989  0.2289  0.4363
10379TIP3    H152628   2.274   2.832   4.572 -0.0519  0.9251  0.3269
10379TIP3    H252629   2.228   2.933   4.676  0.1940  0.3108  1.0408
10380TIP3   OH252630   3.485   4.759  16.661 -0.4806 -0.3839  0.0862
10380TIP3    H152631   3.408   4.815  16.646  0.0547  0.3586  0.0839
10380TIP3    H252632   3.556   4.804  16.616 -0.0212 -1.0175  0.1815
10381TIP3   OH252633   6.408   2.976  16.183 -0.7992 -0.1291 -0.1670
10381TIP3    H152634   6.453   2.951  16.103 -0.1934  3.2624 -0.9546
10381TIP3    H252635   6.429   2.906  16.245  1.0519 -1.3764 -2.1334
10382TIP3   OH252636   4.632   6.560  12.954 -0.1462  0.7962 -0.1299
10382TIP3    H152637   4.635   6.506  12.875 -2.7363  0.0122  0.2458
10382TIP3    H252638   4.539   6.578  12.967  0.5006  3.7779  0.8569
10383TIP3   OH252639   0.560   1.835  16.038 -0.6384 -1.1370 -0.6231
10383TIP3    H152640   0.587   1.785  16.115 -1.5990 -1.6181 -0.5857
10383TIP3    H252641   0.641   1.872  16.004 -0.1752 -1.0870  0.5004
10384TIP3   OH252642   4.862   1.647   1.853  0.3335  0.0092  0.0774
10384TIP3    H152643   4.856   1.575   1.790 -1.5300 -1.2532  1.6247
10384TIP3    H252644   4.771   1.675   1.865  0.8064  1.0573  1.2704
10385TIP3   OH252645   1.158   0.637  11.931  0.3453  0.2338  0.0165
10385TIP3    H152646   1.137   0.724  11.897 -0.4462  0.2202  0.4596
10385TIP3    H252647   1.128   0.577  11.862  3.8413  0.3998 -1.7824
10386TIP3   OH252648   3.196   4.463   0.306  0.3142 -0.2612 -0.2229
10386TIP3    H152649   3.206   4.392   0.370  0.3368 -0.5467 -0.5415
10386TIP3    H252650   3.119   4.511   0.336 -0.4072 -1.1208 -0.6597
10387TIP3   OH252651   1.249   5.905  12.982  0.4281 -0.3912 -0.4528
10387TIP3    H152652   1.171   5.859  12.952  0.2787  0.1421 -0.8921
10387TIP3    H252653   1.215   5.982  13.028  0.6722 -0.7925  0.4144
10388TIP3   OH252654   1.349   2.635  12.572 -0.2904  0.4791  0.5235
10388TIP3    H152655   1.367   2.728  12.590  1.7731  0.3637 -0.8565
10388TIP3    H252656   1.415   2.610  12.508 -0.8115 -1.9850  0.9251
10389TIP3   OH252657   5.526   5.126  11.939 -0.3832  0.2509 -0.1062
10389TIP3    H152658   5.589   5.113  11.868 -0.8760 -0.4785 -0.4211
10389TIP3    H252659   5.513   5.039  11.976  0.5640  0.7723  1.4838
10390TIP3   OH252660   4.026   2.976  13.855 -0.4106  0.2133  0.3948
10390TIP3    H152661   3.932   2.996  13.861 -0.5069 -0.2416  0.4076
10390TIP3    H252662   4.033   2.886  13.885 -0.1188 -0.1336 -0.7043
10391TIP3   OH252663   2.094   4.394   1.126  0.3899 -0.4356  0.1076
10391TIP3    H152664   2.151   4.460   1.086 -0.5797  0.8480  0.8025
10391TIP3    H252665   2.142   4.364   1.203  1.1507 -1.0795 -0.6098
10392TIP3   OH252666   5.965   0.920   2.937 -0.7344  0.0322  0.2127
10392TIP3    H152667   5.974   0.891   3.028  0.9072 -1.6492 -0.4556
10392TIP3    H252668   6.047   0.964   2.917 -1.6362  1.6505 -0.0602
10393TIP3   OH252669   5.539   1.157  17.081  0.6982  0.2767 -0.1003
10393TIP3    H152670   5.550   1.087  17.145 -1.1463 -1.1349 -1.2856
10393TIP3    H252671   5.445   1.165  17.069  0.8845  2.7610 -0.2420
10394TIP3   OH252672   1.809   1.453   0.949 -0.3356  0.5002 -0.9332
10394TIP3    H152673   1.759   1.532   0.928 -2.9231 -0.5140  1.1286
10394TIP3    H252674   1.864   1.479   1.023 -0.4578  0.6220 -0.8860
10395TIP3   OH252675   1.500   5.389   1.800 -0.2463 -0.2933 -0.3526
10395TIP3    H152676   1.468   5.316   1.852  3.8259  0.2133  3.1219
10395TIP3    H252677   1.444   5.463   1.825 -0.0962 -0.7088  1.2519
10396TIP3   OH252678   4.846   6.550  12.129  0.0994 -0.0785  0.5127
10396TIP3    H152679   4.773   6.584  12.180 -0.0721  1.0765 -0.4841
10396TIP3    H252680   4.859   6.614  12.060  1.2943 -0.8769 -0.0189
10397TIP3   OH252681   0.165   4.112   3.332  0.1066  0.4705  0.5070
10397TIP3    H152682   0.081   4.067   3.333  0.5508 -0.3763  2.1153
10397TIP3    H252683   0.227   4.047   3.299  0.2157  0.9455 -0.2398
10398TIP3   OH252684   4.713   3.811   2.610 -0.2036 -0.5712  0.0672
10398TIP3    H152685   4.705   3.728   2.659 -2.0883  0.1443  0.9946
10398TIP3    H252686   4.623   3.836   2.590  0.1938  2.2896  1.5744
10399TIP3   OH252687   5.957   5.861  11.537 -0.2852  0.1042 -0.0050
10399TIP3    H152688   6.048   5.836  11.547 -0.5219  0.2329  2.7280
10399TIP3    H252689   5.959   5.932  11.473  1.4515 -0.2238 -0.3430
10400TIP3   OH252690   1.495   2.046   6.783  0.0125  0.1362 -0.2255
10400TIP3    H152691   1.489   2.134   6.819 -0.6608 -1.1294  2.8888
10400TIP3    H252692   1.587   2.037   6.757  0.0852  1.7262 -0.5714
10401TIP3   OH252693   0.061   4.149   0.922 -0.1067  0.3327  0.3254
10401TIP3    H152694  -0.007   4.190   0.975 -0.6757 -0.1768  0.0028
10401TIP3    H252695   0.016   4.078   0.876  0.3992  0.6935 -0.7548
10402TIP3   OH252696   6.459   3.597  17.179 -0.5845 -0.3018 -0.3438
10402TIP3    H152697   6.541   3.555  17.206  0.6141  1.7417 -0.6897
10402TIP3    H252698   6.468   3.607  17.084 -1.4832 -0.5570 -0.4562
10403TIP3   OH252699   0.973   3.632  13.445  0.5195 -0.1463  0.8246
10403TIP3    H152700   1.062   3.664  13.455  0.7987 -0.8128  0.4504
10403TIP3    H252701   0.981   3.551  13.394 -0.0452 -1.5787  2.9460
10404TIP3   OH252702   2.327   0.885  11.853  1.1056  0.3179  0.2483
10404TIP3    H152703   2.373   0.944  11.793  1.7513 -1.2343 -0.8008
10404TIP3    H252704   2.294   0.815  11.797 -0.9595  0.4512  1.2605
10405TIP3   OH252705   5.535   5.765  13.902 -1.1705  0.4248  0.5443
10405TIP3    H152706   5.610   5.824  13.905 -0.2313 -0.8073  1.6774
10405TIP3    H252707   5.476   5.805  13.838 -0.3222  2.3058  0.9133
10406TIP3   OH252708   1.646   1.040   5.398 -0.0699 -0.0582  0.4105
10406TIP3    H152709   1.556   1.012   5.383 -0.0830  0.3557 -0.2604
10406TIP3    H252710   1.649   1.131   5.369  1.1592 -0.7759 -1.8715
10407TIP3   OH252711   5.947   0.908   3.502  0.4204  0.2413  0.3886
10407TIP3    H152712   5.862   0.891   3.544 -0.3310  1.0505 -0.7560
10407TIP3    H252713   6.010   0.905   3.573 -0.3411 -2.0626  1.0144
10408TIP3   OH252714   0.144   0.235   2.728  0.4010  0.1939 -0.1593
10408TIP3    H152715   0.120   0.161   2.785 -0.4938 -0.1941 -1.0162
10408TIP3    H252716   0.115   0.208   2.641  0.3427  1.4382 -0.5336
10409TIP3   OH252717   6.434   5.513  11.566  0.4499  0.0834  0.3786
10409TIP3    H152718   6.515   5.546  11.604 -0.4083  0.4859  1.8887
10409TIP3    H252719   6.369   5.522  11.635 -0.8311 -0.5053 -0.7170
10410TIP3   OH252720   6.011   6.364  13.944 -0.1104  0.1482 -0.0144
10410TIP3    H152721   5.969   6.414  13.874 -1.8268  1.0471  1.6319
10410TIP3    H252722   5.950   6.292  13.963  0.8200 -0.6864 -0.1245
10411TIP3   OH252723   1.306   2.861   3.225  0.2604 -0.1185 -0.3198
10411TIP3    H152724   1.284   2.781   3.176  1.1154 -1.3087  1.1783
10411TIP3    H252725   1.398   2.850   3.249 -0.0350  0.6127  1.2126
10412TIP3   OH252726   2.498   2.559  14.779  0.2260 -0.0047  0.0449
10412TIP3    H152727   2.414   2.534  14.817  0.7074 -0.0650  1.0926
10412TIP3    H252728   2.549   2.592  14.854  1.3749 -0.6356 -0.4584
10413TIP3   OH252729   1.881   3.881   0.598  0.4570 -0.2080  0.1836
10413TIP3    H152730   1.789   3.904   0.583  0.1498 -0.9357  0.8741
10413TIP3    H252731   1.892   3.796   0.556  1.3026  0.6820 -1.4448
10414TIP3   OH252732   1.032   3.220   0.955 -0.6347  0.2555 -0.3739
10414TIP3    H152733   1.055   3.287   0.891 -1.3858 -0.4544 -1.4119
10414TIP3    H252734   1.074   3.249   1.036  0.4042  1.1325 -1.1951
10415TIP3   OH252735   2.828   4.156   4.220  0.0356 -0.3430  0.2214
10415TIP3    H152736   2.756   4.218   4.226  0.3228 -0.1136  1.7346
10415TIP3    H252737   2.793   4.081   4.172 -0.8289  0.2857 -0.1234
10416TIP3   OH252738   6.782   5.134   5.281  0.3426  0.3363 -0.0266
10416TIP3    H152739   6.708   5.142   5.342  0.7863  2.3517  0.2855
10416TIP3    H252740   6.846   5.198   5.312  0.7836  1.0707 -2.3216
10417TIP3   OH252741   5.264   1.304  12.509 -0.1814 -0.4919  0.0522
10417TIP3    H152742   5.304   1.317  12.595  0.9500 -0.6811 -0.4327
10417TIP3    H252743   5.228   1.389  12.485 -0.4317 -0.4202  0.6715
10418TIP3   OH252744   4.576   2.460   4.581 -0.0800  0.2492  0.4118
10418TIP3    H152745   4.637   2.427   4.647 -0.4096 -1.0860  0.0655
10418TIP3    H252746   4.490   2.432   4.612 -0.5267  1.9622  0.8025
10419TIP3   OH252747   4.685   4.970   4.749  0.3284  0.4908 -0.9482
10419TIP3    H152748   4.679   4.991   4.655 -0.6644  0.0968 -0.9788
10419TIP3    H252749   4.656   5.049   4.794 -0.2492  0.3122 -1.0002
10420TIP3   OH252750   0.256   6.730  15.017  0.3149 -0.2283  0.4810
10420TIP3    H152751   0.327   6.667  15.004 -0.1493 -0.7727  0.5630
10420TIP3    H252752   0.268   6.795  14.947  0.0442 -1.1003 -0.3929
10421TIP3   OH252753   2.770   5.449  15.230 -0.3811 -0.0569  0.1053
10421TIP3    H152754   2.864   5.438  15.211 -0.1288  0.2096  1.1643
10421TIP3    H252755   2.735   5.492  15.152  0.2560 -0.7231 -0.5642
10422TIP3   OH252756   2.788   5.770  13.548 -0.2762  0.0548  0.0124
10422TIP3    H152757   2.752   5.684  13.570  1.9039 -1.0139 -0.5088
10422TIP3    H252758   2.820   5.804  13.631 -1.1619  0.3914  0.2232
10423TIP3   OH252759   2.740   6.740   2.796  0.1809 -0.0766  0.9236
10423TIP3    H152760   2.656   6.721   2.839  0.5480  0.8317  2.0461
10423TIP3    H252761   2.752   6.667   2.735 -3.0394  1.4190 -1.6603
10424TIP3   OH252762   3.127   6.587  14.492  0.4587  0.1855 -0.1559
10424TIP3    H152763   3.165   6.596  14.580  3.4625 -2.3851 -1.0788
10424TIP3    H252764   3.066   6.514  14.500  0.9689 -0.2565 -0.2563
10425TIP3   OH252765   6.605   4.937   1.583  0.1652 -0.1145 -0.2401
10425TIP3    H152766   6.558   4.882   1.520  0.4798 -1.0555  0.3313
10425TIP3    H252767   6.588   4.895   1.668  0.9660  0.2876  0.1185
10426TIP3   OH252768   6.209   1.408  17.248  0.6972  0.0463 -0.3253
10426TIP3    H152769   6.242   1.330  17.203  1.7828 -0.8741  1.9507
10426TIP3    H252770   6.115   1.409  17.229  1.3171  0.3883 -3.5506
10427TIP3   OH252771   5.835   1.683   5.634 -0.4349 -0.5531  0.2314
10427TIP3    H152772   5.809   1.677   5.726  1.8700 -1.6068  0.8538
10427TIP3    H252773   5.914   1.736   5.635  1.4094 -3.2018 -0.7487
10428TIP3   OH252774   5.075   5.138   4.455  0.5258  0.3992 -0.2315
10428TIP3    H152775   5.101   5.107   4.368  1.6344 -0.2670  0.3266
10428TIP3    H252776   5.152   5.185   4.487  0.9108 -1.2332  1.2786
10429TIP3   OH252777   4.953   0.284   5.290 -0.0829 -0.0986  0.6356
10429TIP3    H152778   4.981   0.201   5.329  0.2207  0.0227  0.6805
10429TIP3    H252779   4.975   0.275   5.197  0.5603  0.1830  0.7544
10430TIP3   OH252780   3.538   4.755   3.691  0.0915  0.2209  0.3894
10430TIP3    H152781   3.459   4.796   3.655  1.0854  0.1599 -2.0026
10430TIP3    H252782   3.588   4.827   3.728  0.2752  0.7063 -0.7801
10431TIP3   OH252783   1.356   1.454  15.554  0.2656 -0.4977  0.6564
10431TIP3    H152784   1.420   1.510  15.596  1.8655 -2.7137  1.2617
10431TIP3    H252785   1.373   1.367  15.589 -0.5983 -1.8003 -2.0035
10432TIP3   OH252786   3.372   1.767  15.856 -0.4435  0.3684  0.0648
10432TIP3    H152787   3.380   1.715  15.936 -2.2198  0.2068  0.1591
10432TIP3    H252788   3.365   1.857  15.887 -0.7225  0.3454  0.0668
10433TIP3   OH252789   2.305   6.450  11.450 -0.1288 -0.0746  0.3532
10433TIP3    H152790   2.322   6.360  11.480 -0.7858 -0.7711 -1.2805
10433TIP3    H252791   2.303   6.502  11.530 -0.3625 -1.6265  1.3832
10434TIP3   OH252792   6.079   1.905  14.386  0.2389  0.3463  0.5947
10434TIP3    H152793   5.986   1.899  14.408  0.0727  1.0550  0.1017
10434TIP3    H252794   6.106   1.991  14.417  0.1547  1.1130 -1.3583
10435TIP3   OH252795   2.100   3.935   3.375  0.1511  0.4304  0.1149
10435TIP3    H152796   2.139   3.861   3.422  0.2703  0.9000  0.7544
10435TIP3    H252797   2.165   3.958   3.309  0.4325  0.4320  0.3909
10436TIP3   OH252798   0.627   5.302   0.463 -0.3464 -0.0227 -0.1416
10436TIP3    H152799   0.685   5.248   0.516  0.7867  0.2555 -1.0776
10436TIP3    H252800   0.678   5.379   0.442 -0.0679 -0.9957 -3.2529
10437TIP3   OH252801   0.395   0.256  11.794  0.1725 -0.1984 -0.0110
10437TIP3    H152802   0.470   0.307  11.825  0.2009 -0.8833  1.0910
10437TIP3    H252803   0.318   0.305  11.823  0.1901  0.7730 -1.5953
10438TIP3   OH252804   2.716   0.011   1.416 -0.2295 -0.0584 -0.3189
10438TIP3    H152805   2.701   0.080   1.481  2.1607  0.6939 -0.5171
10438TIP3    H252806   2.674   0.044   1.336 -1.3450 -0.0275  0.2744
10439TIP3   OH252807   6.105   1.588  13.552  0.2835 -0.2643  0.5752
10439TIP3    H152808   6.138   1.669  13.512 -0.6018 -0.6301 -0.8825
10439TIP3    H252809   6.175   1.524  13.539 -0.0767 -0.4282 -0.5179
10440TIP3   OH252810   0.943   1.343  16.492  0.3086 -0.3555 -0.2808
10440TIP3    H152811   0.979   1.366  16.407 -0.3561  0.2028 -0.4116
10440TIP3    H252812   0.900   1.423  16.523 -0.5317 -0.9077  0.0121
10441TIP3   OH252813   5.846   4.853   5.852 -0.1860  0.4648  0.0341
10441TIP3    H152814   5.841   4.757   5.857  1.5395  0.4279  1.2545
10441TIP3    H252815   5.933   4.875   5.885  0.2615  2.3341 -2.2987
10442TIP3   OH252816   4.145   2.276  15.557 -0.7005 -0.6001 -0.2650
10442TIP3    H152817   4.223   2.235  15.593 -1.5042 -0.7215  1.4144
10442TIP3    H252818   4.093   2.203  15.522  0.6684 -0.3571 -2.9261
10443TIP3   OH252819   5.714   4.327  12.718  0.7338 -0.2093 -0.1907
10443TIP3    H152820   5.650   4.311  12.788  1.0532  0.3559  0.2318
10443TIP3    H252821   5.773   4.253  12.723 -0.1146 -0.9410 -0.8366
10444TIP3   OH252822   2.912   1.290  11.727 -0.2584 -0.2395  0.7256
10444TIP3    H152823   2.875   1.342  11.655  0.4211 -0.6338  0.0868
10444TIP3    H252824   2.983   1.343  11.761 -0.3354 -0.2204  0.8571
10445TIP3   OH252825   3.626   4.583  10.499  0.0974 -0.6374  0.1759
10445TIP3    H152826   3.683   4.597  10.423 -0.7906  2.0732 -0.0559
10445TIP3    H252827   3.561   4.654  10.493 -0.1418 -0.5497  3.3055
10446TIP3   OH252828   5.633   3.524   0.165 -0.8940 -0.3916  0.4255
10446TIP3    H152829   5.608   3.442   0.123  1.9470 -1.2755  0.3307
10446TIP3    H252830   5.681   3.572   0.098 -1.2561  0.6850  0.9361
10447TIP3   OH252831   5.818   1.953   6.127 -0.3310  0.5112 -0.0507
10447TIP3    H152832   5.878   1.899   6.179  1.0742  1.4545 -0.6578
10447TIP3    H252833   5.733   1.908   6.134  0.2469 -0.3986  1.5017
10448TIP3   OH252834   0.815   5.457   5.797  0.0233  0.7072 -0.1023
10448TIP3    H152835   0.780   5.391   5.857 -0.3616  0.5978 -0.4479
10448TIP3    H252836   0.760   5.451   5.720  0.2159  1.1873 -0.2782
10449TIP3   OH252837   2.744   4.820   4.133  0.2869  0.0520 -0.0648
10449TIP3    H152838   2.655   4.856   4.145  0.6705  1.3841 -1.0856
10449TIP3    H252839   2.799   4.874   4.190  0.6061 -0.0237 -0.3022
10450TIP3   OH252840   4.889   5.445  16.914  0.4585  0.2826 -0.4009
10450TIP3    H152841   4.947   5.399  16.853  0.1024  0.2379 -0.7100
10450TIP3    H252842   4.810   5.390  16.918  1.4474 -1.0411  2.0571
10451TIP3   OH252843   3.422   3.328   3.077  0.2382 -0.1043 -0.0828
10451TIP3    H152844   3.387   3.381   3.004  0.8840  1.8597  0.9844
10451TIP3    H252845   3.347   3.281   3.111 -0.4889  0.5830 -0.7029
10452TIP3   OH252846   4.917   4.310  10.535 -0.2747  0.1419  0.1144
10452TIP3    H152847   4.906   4.222  10.572  0.9152  1.1283  2.9808
10452TIP3    H252848   4.833   4.330  10.493 -0.6383 -2.2315 -0.3512
10453TIP3   OH252849   5.192   0.287  16.594 -0.1899  0.3233 -0.4358
10453TIP3    H152850   5.147   0.342  16.659  0.6930  0.0259  0.4433
10453TIP3    H252851   5.122   0.231  16.559 -0.8679  1.1784 -0.4817
10454TIP3   OH252852   2.526   0.527   1.942 -0.1329 -0.0579  0.6361
10454TIP3    H152853   2.487   0.614   1.928 -0.4863 -0.4153 -0.6560
10454TIP3    H252854   2.515   0.482   1.859 -1.0925 -1.8127  1.6990
10455TIP3   OH252855   3.277   1.648   5.938 -0.2553  0.1392  0.1856
10455TIP3    H152856   3.192   1.614   5.909  0.8096 -2.5693  0.1449
10455TIP3    H252857   3.285   1.732   5.893 -1.0117 -1.5359 -3.2736
10456TIP3   OH252858   4.895   1.064  12.221 -0.1979  1.2689 -0.1932
10456TIP3    H152859   4.956   1.120  12.268 -0.3943 -0.6091  2.4007
10456TIP3    H252860   4.813   1.071  12.269 -0.7547  0.2480 -0.9607
10457TIP3   OH252861   1.426   2.088  11.445  0.2696  0.2040  0.2029
10457TIP3    H152862   1.400   1.998  11.465 -1.8060  0.6911 -0.1830
10457TIP3    H252863   1.506   2.102  11.495 -0.6618 -1.0915  2.1037
10458TIP3   OH252864   2.963   5.841   5.324 -0.3435 -0.3597 -0.1466
10458TIP3    H152865   3.003   5.897   5.390  0.3359 -2.0076  0.8418
10458TIP3    H252866   2.915   5.903   5.267 -0.3279  1.1373  1.4146
10459TIP3   OH252867   3.617   3.443  12.354  0.5817  0.1937 -0.0502
10459TIP3    H152868   3.560   3.416  12.427  2.0660 -0.8072  0.7897
10459TIP3    H252869   3.600   3.378  12.286 -0.8799  1.1849 -0.6509
10460TIP3   OH252870   1.628   4.063   3.543  0.6036  0.2620  0.1636
10460TIP3    H152871   1.556   4.012   3.505  1.2785 -1.2400  0.8298
10460TIP3    H252872   1.697   3.998   3.557  1.2509  1.2524  1.6663
10461TIP3   OH252873   2.468   4.039   3.586  0.0717 -0.2642  0.3227
10461TIP3    H152874   2.375   4.016   3.593  0.4212 -1.4022  1.4050
10461TIP3    H252875   2.469   4.119   3.533 -1.4395 -0.8846 -0.6907
10462TIP3   OH252876   0.940   0.586   4.110 -0.1655 -0.1555 -0.0505
10462TIP3    H152877   1.031   0.581   4.142 -0.3667 -1.4011  0.3876
10462TIP3    H252878   0.914   0.677   4.124  0.0972 -0.4307  2.4860
10463TIP3   OH252879   6.425   2.764  10.519  0.4672 -0.1083 -0.3301
10463TIP3    H152880   6.330   2.761  10.513  0.3192 -0.9478  1.9188
10463TIP3    H252881   6.450   2.676  10.548  1.9829 -0.0457 -1.3633
10464TIP3   OH252882   5.670   1.380  14.660  0.4944  0.4190  0.1242
10464TIP3    H152883   5.624   1.404  14.741  0.4312 -0.5341  0.3811
10464TIP3    H252884   5.740   1.321  14.689  0.5442  0.1670 -0.5027
10465TIP3   OH252885   2.881   1.245  11.182  0.5137 -0.1152 -0.9397
10465TIP3    H152886   2.924   1.330  11.172  1.2031 -0.5228 -1.4999
10465TIP3    H252887   2.874   1.232  11.277  2.4714 -0.4504 -0.8198
10466TIP3   OH252888   4.802   4.196  15.530 -0.5707 -0.3325 -0.2349
10466TIP3    H152889   4.881   4.250  15.540 -0.1249 -1.1013  0.5294
10466TIP3    H252890   4.730   4.258  15.534  0.0368  0.5108 -2.0736
10467TIP3   OH252891   0.818   0.053   4.661  0.1760  0.5450  0.0399
10467TIP3    H152892   0.814  -0.021   4.601  1.4023  0.4029  0.1092
10467TIP3    H252893   0.873   0.117   4.616  0.2898  0.8323  0.5819
10468TIP3   OH252894   5.016   6.015  11.350  0.0748 -0.1573 -0.6383
10468TIP3    H152895   5.016   5.920  11.332  0.2784  0.2349 -2.9189
10468TIP3    H252896   4.934   6.030  11.397 -0.6614 -1.2781 -1.5200
10469TIP3   OH252897   6.254   4.033  16.287  0.1498 -0.4185  0.4505
10469TIP3    H152898   6.188   4.047  16.219  0.7252 -0.0033 -0.0178
10469TIP3    H252899   6.250   4.112  16.340 -0.1317 -0.6407  0.7640
10470TIP3   OH252900   4.120   6.599   1.422  0.2128  0.1426 -0.2234
10470TIP3    H152901   4.196   6.625   1.474  0.9204  2.6114 -2.3749
10470TIP3    H252902   4.143   6.512   1.389  1.6234  0.3946  0.0559
10471TIP3   OH252903   3.956   1.640   6.320  0.1843  0.7480  0.7034
10471TIP3    H152904   3.900   1.588   6.262  0.9816 -0.2671  0.8263
10471TIP3    H252905   3.897   1.672   6.388 -0.2447 -0.3982  0.8849
10472TIP3   OH252906   2.823   0.194   4.832  0.2622  0.6194 -0.2497
10472TIP3    H152907   2.757   0.170   4.767 -0.1453 -2.5454  1.2344
10472TIP3    H252908   2.901   0.216   4.781 -0.5462 -0.1790 -1.8521
10473TIP3   OH252909   2.844   4.180   5.768 -0.1650  0.4719 -0.2902
10473TIP3    H152910   2.851   4.245   5.698  0.0032  0.7569 -0.0116
10473TIP3    H252911   2.774   4.122   5.740 -0.3776  0.8264 -0.5014
10474TIP3   OH252912   4.497   0.258   1.641  0.6812 -0.0154  0.3756
10474TIP3    H152913   4.572   0.262   1.700  1.5062  1.4544 -0.7349
10474TIP3    H252914   4.532   0.219   1.561 -0.4605 -2.1246  0.8886
10475TIP3   OH252915   5.213   4.305   0.887  0.5697 -0.7739 -0.0277
10475TIP3    H152916   5.229   4.226   0.835  2.0568 -0.1054 -0.6035
10475TIP3    H252917   5.246   4.377   0.833  0.5437  0.1016  1.1024
10476TIP3   OH252918   3.482   2.354   5.506 -0.8029  0.0031 -0.2188
10476TIP3    H152919   3.551   2.327   5.446 -1.0606 -1.1274 -0.0201
10476TIP3    H252920   3.424   2.278   5.512 -0.5918 -0.0440  1.7139
10477TIP3   OH252921   0.492   1.217  11.031 -0.1900  0.1380  0.1085
10477TIP3    H152922   0.572   1.184  10.990  0.4549  0.0692  1.3950
10477TIP3    H252923   0.443   1.257  10.960  1.8272  1.8318 -0.3873
10478TIP3   OH252924   3.290   5.853  16.849 -0.2089  0.6515  0.3899
10478TIP3    H152925   3.351   5.878  16.919  0.3569 -1.0947  0.5478
10478TIP3    H252926   3.331   5.776  16.809 -2.1082 -0.3001  0.2452
10479TIP3   OH252927   1.623   1.569  12.068  0.6002 -0.2000  0.2502
10479TIP3    H152928   1.660   1.547  12.153 -0.6206 -2.0207  0.3303
10479TIP3    H252929   1.579   1.489  12.039 -1.8641  1.4018 -0.5782
10480TIP3   OH252930   5.562   4.382   4.007  0.2255  0.6356  0.9024
10480TIP3    H152931   5.476   4.367   3.968 -0.3484  0.8322  2.0850
10480TIP3    H252932   5.579   4.304   4.059  1.2291  0.1402 -0.1270
10481TIP3   OH252933   3.270   3.282  11.358  0.5382  0.8401 -0.0359
10481TIP3    H152934   3.318   3.258  11.437  0.9716  0.1380 -0.4998
10481TIP3    H252935   3.339   3.303  11.294  0.3068 -1.6256 -1.1653
10482TIP3   OH252936   4.988   1.898  15.260  0.0319 -0.8297 -0.2347
10482TIP3    H152937   4.923   1.852  15.313 -2.1528 -1.6299 -3.4861
10482TIP3    H252938   5.064   1.907  15.318 -1.6175 -3.1922  2.4211
10483TIP3   OH252939   6.525   6.460   0.518 -0.1663 -0.1269 -0.1822
10483TIP3    H152940   6.577   6.485   0.594 -1.8265  0.6204  0.7491
10483TIP3    H252941   6.434   6.469   0.548 -0.8264 -0.6906 -1.9795
10484TIP3   OH252942   4.080   3.835   1.971  0.4673  0.2561  0.7189
10484TIP3    H152943   4.079   3.884   1.889  0.7941 -1.1546 -0.1594
10484TIP3    H252944   4.130   3.756   1.951 -2.9977 -2.1423  1.0611
10485TIP3   OH252945   3.766   4.455   3.834  0.0106  0.2033  0.5580
10485TIP3    H152946   3.849   4.409   3.842  0.1618  0.4209  0.2526
10485TIP3    H252947   3.760   4.478   3.741  0.1250  1.1436  0.7803
10486TIP3   OH252948   5.733   2.992   3.625  0.3423  0.1632 -0.2483
10486TIP3    H152949   5.800   2.926   3.641 -0.3036 -0.6300 -0.8327
10486TIP3    H252950   5.736   3.009   3.531  1.6038  2.1466  0.1209
10487TIP3   OH252951   3.027   5.921  16.845 -0.9883  0.3663 -0.1605
10487TIP3    H152952   3.067   6.001  16.881 -1.1984  0.6123 -0.4730
10487TIP3    H252953   3.101   5.861  16.835 -0.7573  0.6757 -0.3442
10488TIP3   OH252954   3.982   3.899  11.491  0.0454  0.1306 -0.3282
10488TIP3    H152955   3.990   3.822  11.435  0.4543  0.6131 -0.9430
10488TIP3    H252956   3.979   3.973  11.430 -0.0162  0.6289  0.2685
10489TIP3   OH252957   5.069   6.241   2.066 -0.4903  0.0806  0.1769
10489TIP3    H152958   5.025   6.296   2.131 -1.0563 -0.6581  0.4285
10489TIP3    H252959   5.157   6.230   2.100 -0.8017 -0.3514  0.8609
10490TIP3   OH252960   1.007   1.488   3.114 -0.0466  1.1196 -0.7038
10490TIP3    H152961   1.098   1.463   3.134 -0.3686 -0.1631 -0.7949
10490TIP3    H252962   0.955   1.442   3.179 -0.7615  0.4847 -1.7227
10491TIP3   OH252963   3.919   1.162   2.909  0.3728 -0.1152  0.6216
10491TIP3    H152964   3.976   1.208   2.848  0.6823  0.6169  1.4682
10491TIP3    H252965   3.975   1.138   2.983  0.0575 -1.2214  0.5226
10492TIP3   OH252966   5.533   4.414  15.308 -0.0631  0.3714  0.0600
10492TIP3    H152967   5.493   4.414  15.396 -1.9380  1.1877 -0.7578
10492TIP3    H252968   5.590   4.338  15.308 -0.8430 -0.2503  1.6500
10493TIP3   OH252969   1.241   4.069  15.007 -0.4619 -0.1644 -0.0243
10493TIP3    H152970   1.244   4.164  14.996 -0.2402 -0.3441 -1.7541
10493TIP3    H252971   1.309   4.051  15.072  1.3236  0.6573 -1.5731
10494TIP3   OH252972   0.960   1.979   3.794  0.5198 -0.0414  0.3554
10494TIP3    H152973   0.978   1.992   3.701  1.3449  0.3291  0.5665
10494TIP3    H252974   0.984   1.887   3.810 -2.6488 -1.0946 -0.4975
10495TIP3   OH252975   6.493   4.300  16.056  0.1077 -0.6365 -0.0260
10495TIP3    H152976   6.511   4.225  15.999 -0.3040 -0.3355 -0.5543
10495TIP3    H252977   6.405   4.329  16.032  0.4381  0.2975 -0.1492
10496TIP3   OH252978   2.711   0.195  12.344  0.0166 -0.3774  0.2346
10496TIP3    H152979   2.627   0.231  12.373  0.5654  0.7150  0.5041
10496TIP3    H252980   2.762   0.271  12.317  0.8840 -1.0436 -0.0470
10497TIP3   OH252981   4.323   6.170   6.407  0.0940 -0.1181  0.4151
10497TIP3    H152982   4.276   6.097   6.367  1.9692 -1.7318  1.0499
10497TIP3    H252983   4.382   6.201   6.339  0.2524 -0.0701  0.5743
10498TIP3   OH252984   1.873   5.009   3.686  0.0429 -0.5849 -0.2956
10498TIP3    H152985   1.962   5.016   3.722 -0.5901 -2.0298  1.6206
10498TIP3    H252986   1.857   4.915   3.678 -1.3845 -0.3417 -0.4772
10499TIP3   OH252987   4.553   3.411   1.391 -0.4455 -0.3963 -0.6846
10499TIP3    H152988   4.520   3.363   1.467  0.0096 -1.0082 -0.8689
10499TIP3    H252989   4.645   3.427   1.411 -0.8576  1.3672 -0.1398
10500TIP3   OH252990   1.076   5.255   2.453 -0.4794 -0.2262  0.2991
10500TIP3    H152991   1.171   5.241   2.459 -0.5222 -0.2995  0.8352
10500TIP3    H252992   1.040   5.168   2.441 -0.6531 -0.4830  2.4426
10501TIP3   OH252993   5.950   6.671  11.580  0.0529 -0.0053 -0.0703
10501TIP3    H152994   5.974   6.583  11.549 -0.8749 -0.0997 -0.5582
10501TIP3    H252995   6.031   6.721  11.575  0.6492 -0.9023  0.4510
10502TIP3   OH252996   1.282   6.381  14.128 -0.3617 -0.2956 -0.1392
10502TIP3    H152997   1.321   6.430  14.056  1.4051 -1.0318  0.2839
10502TIP3    H252998   1.191   6.411  14.131  0.2267  1.6681 -0.9939
10503TIP3   OH252999   0.764   5.451  12.368 -0.0076 -0.3905 -0.3369
10503TIP3    H153000   0.694   5.389  12.347  1.0738 -1.9179  0.4433
10503TIP3    H253001   0.843   5.409  12.335  0.5691  1.3115 -1.1944
10504TIP3   OH253002   5.102   0.082   6.074 -0.1730  0.5210  0.6734
10504TIP3    H153003   5.194   0.083   6.101 -0.1646 -0.8542  0.6927
10504TIP3    H253004   5.081   0.174   6.057  1.2678  0.8084  0.4408
10505TIP3   OH253005   2.342   4.012  17.020 -0.0142  0.0378  0.2443
10505TIP3    H153006   2.279   3.951  17.060 -0.0782  0.7070  1.1858
10505TIP3    H253007   2.384   3.961  16.951 -0.3192 -0.9730  0.7887
10506TIP3   OH253008   1.122   4.580   4.268  0.0938  0.4213  0.2852
10506TIP3    H153009   1.072   4.639   4.325 -0.3222  1.8646 -1.5168
10506TIP3    H253010   1.214   4.597   4.290 -0.0548  1.2096  0.3139
10507TIP3   OH253011   6.466   0.452  16.221 -0.4027  0.2010 -0.5084
10507TIP3    H153012   6.398   0.506  16.261  1.0070  3.8977 -2.8805
10507TIP3    H253013   6.418   0.389  16.167 -2.0405 -0.4037  1.5873
10508TIP3   OH253014   2.547   5.097  17.048  0.1757  0.5405  0.5682
10508TIP3    H153015   2.456   5.127  17.040 -0.3875 -0.8366  1.6818
10508TIP3    H253016   2.588   5.162  17.107 -0.4470  0.3990  1.1648
10509TIP3   OH253017   4.342   6.477   6.649  0.3722 -0.3717 -0.0350
10509TIP3    H153018   4.274   6.427   6.694  1.6019 -1.4360  0.6776
10509TIP3    H253019   4.311   6.567   6.651  0.0694 -0.5168  2.2989
10510TIP3   OH253020   3.580   2.616  12.943  0.5080  0.3321  0.2344
10510TIP3    H153021   3.550   2.562  13.016  1.5811  0.0655  0.4833
10510TIP3    H253022   3.663   2.576  12.916  1.0277  1.5180  0.0585
10511TIP3   OH253023   4.580   0.885   2.697  0.4412 -0.1547  0.0098
10511TIP3    H153024   4.494   0.875   2.738 -0.0043  0.4316 -0.7703
10511TIP3    H253025   4.572   0.962   2.641  1.7529  0.4522  0.6259
10512TIP3   OH253026   3.188   0.819   3.246  0.8515  0.4160 -0.0638
10512TIP3    H153027   3.254   0.800   3.179  0.2825  0.5502 -0.6640
10512TIP3    H253028   3.171   0.734   3.287  0.6946  0.2037 -0.5611
10513TIP3   OH253029   4.030   4.271  12.288 -0.0434  0.2647 -0.0019
10513TIP3    H153030   4.090   4.304  12.355 -0.6580  1.8735 -0.2054
10513TIP3    H253031   3.990   4.194  12.328  0.3064  0.6502  1.1182
10514TIP3   OH253032   3.582   3.560   2.596 -0.2806  0.8138  0.0035
10514TIP3    H153033   3.651   3.540   2.533 -0.0374  3.5507 -0.6580
10514TIP3    H253034   3.500   3.546   2.548 -0.1684 -0.8761  0.2937
10515TIP3   OH253035   4.381   3.839   1.335  0.4594 -0.3730 -0.4764
10515TIP3    H153036   4.311   3.874   1.280  0.1496  0.2055  0.2719
10515TIP3    H253037   4.337   3.774   1.390  0.3371  0.5511  0.5434
10516TIP3   OH253038   3.689   5.710  15.155  0.4343  0.3930  0.8135
10516TIP3    H153039   3.628   5.780  15.179 -1.4116 -0.3736 -1.4135
10516TIP3    H253040   3.641   5.629  15.172  1.0004 -0.2388 -0.4781
10517TIP3   OH253041   6.241   4.244  16.914 -0.2265 -0.4091  0.1791
10517TIP3    H153042   6.195   4.250  16.997 -0.4972  0.3288 -0.0296
10517TIP3    H253043   6.318   4.300  16.925 -1.1582  1.0410 -0.6688
10518TIP3   OH253044   5.899   3.484  13.748  0.0423  0.1381  0.6249
10518TIP3    H153045   5.990   3.478  13.719 -0.1734  0.9672 -0.2345
10518TIP3    H253046   5.867   3.565  13.709 -1.9690 -1.6231 -1.5179
10519TIP3   OH253047   5.697   5.005  12.599  0.0856 -0.0641  0.3424
10519TIP3    H153048   5.723   5.093  12.629 -1.1260  0.0425  1.0957
10519TIP3    H253049   5.664   5.019  12.510  1.8354 -0.0830 -0.3365
10520TIP3   OH253050   2.986   1.329   1.414 -0.1254  0.1417 -0.6584
10520TIP3    H153051   2.951   1.270   1.347 -0.1533 -1.9756  1.1936
10520TIP3    H253052   3.078   1.306   1.421 -0.2215  0.0442  0.3615
10521TIP3   OH253053   5.641   0.046  13.105  0.3223 -0.3190  0.0840
10521TIP3    H153054   5.726   0.051  13.150  0.1854  0.9179  0.2087
10521TIP3    H253055   5.613   0.137  13.097  0.0765 -0.5623 -2.0199
10522TIP3   OH253056   6.084   3.121   5.057 -0.0330 -0.2946 -0.3065
10522TIP3    H153057   6.156   3.147   5.116 -0.5880 -1.6015  0.9902
10522TIP3    H253058   6.021   3.193   5.063  1.1352  0.8477 -1.4261
10523TIP3   OH253059   4.072   6.760   3.018 -0.0311 -0.6669  0.3246
10523TIP3    H153060   4.099   6.672   3.045 -1.5551 -0.7296  1.7548
10523TIP3    H253061   3.993   6.746   2.967 -0.2795 -0.1204  0.5612
10524TIP3   OH253062   2.401   3.929  14.668  0.8851  0.4208 -0.1914
10524TIP3    H153063   2.375   4.006  14.617  0.2083 -0.1440 -0.7070
10524TIP3    H253064   2.319   3.887  14.692  1.2835 -1.6420 -2.2353
10525TIP3   OH253065   0.488   2.669   1.243 -0.2198  0.1020 -0.1401
10525TIP3    H153066   0.522   2.728   1.176  2.4114  0.3246  1.3131
10525TIP3    H253067   0.394   2.665   1.226  0.0603  1.9504 -2.4002
10526TIP3   OH253068   3.303   3.425   5.143 -1.0950 -0.3246 -0.3769
10526TIP3    H153069   3.292   3.340   5.186 -2.3739 -0.0872 -0.2143
10526TIP3    H253070   3.230   3.430   5.082 -1.1407  0.7467 -0.2330
10527TIP3   OH253071   0.006   2.786   5.095  0.4992  0.1784 -0.2904
10527TIP3    H153072   0.072   2.851   5.121  1.7818 -0.8738 -0.8201
10527TIP3    H253073   0.019   2.775   5.001 -0.6693  0.1889 -0.4601
10528TIP3   OH253074   6.015   0.313   3.472 -0.5529  0.2804  0.7585
10528TIP3    H153075   5.932   0.293   3.429 -1.0900  1.6345  1.1277
10528TIP3    H253076   6.009   0.270   3.558 -1.2334  1.0843  1.1174
10529TIP3   OH253077   1.947   2.050  12.094  0.3417 -0.1537  0.1874
10529TIP3    H153078   1.980   2.010  12.175  0.0431  1.3022  1.0639
10529TIP3    H253079   1.898   2.127  12.124 -0.4077 -0.0114 -1.3432
10530TIP3   OH253080   3.415   5.247   2.433  0.4505 -0.4784  0.6738
10530TIP3    H153081   3.382   5.255   2.522  1.4028 -0.3501  1.0097
10530TIP3    H253082   3.509   5.258   2.440  0.5303 -0.4238 -0.3539
10531TIP3   OH253083   5.203   3.011  17.137  0.1502  0.3728  0.4421
10531TIP3    H153084   5.248   2.983  17.057 -0.1918  0.2783  0.2837
10531TIP3    H253085   5.151   2.935  17.163 -0.5556  0.7703  0.1756
10532TIP3   OH253086   2.159   3.757  11.462  0.3393  0.3325  0.4251
10532TIP3    H153087   2.080   3.761  11.409  0.3961  0.1569  0.3269
10532TIP3    H253088   2.210   3.685  11.425  0.8793  0.9160  0.0236
10533TIP3   OH253089   3.316   5.754   2.254 -0.7576 -0.0734  0.4491
10533TIP3    H153090   3.320   5.658   2.259 -0.4836 -0.1560 -1.3468
10533TIP3    H253091   3.257   5.772   2.181 -0.2810  1.1400  0.3575
10534TIP3   OH253092   2.788   0.862  13.106 -0.6437  0.8032 -0.0593
10534TIP3    H153093   2.818   0.828  13.021  3.5844  1.5549  0.9760
10534TIP3    H253094   2.765   0.953  13.089  0.1096  0.9275 -0.4450
10535TIP3   OH253095   2.793   4.940  11.719  0.1448 -0.1404  0.0350
10535TIP3    H153096   2.755   4.937  11.632 -0.1687  1.5314  0.0883
10535TIP3    H253097   2.887   4.950  11.704  0.3513 -2.1531 -0.0966
10536TIP3   OH253098   4.839   0.734  10.417  0.5337 -0.0366  0.5374
10536TIP3    H153099   4.762   0.707  10.367  0.4089  1.7303 -0.2824
10536TIP3    H253100   4.897   0.659  10.415 -1.2490 -1.4719  1.3416
10537TIP3   OH253101   3.487   1.094   3.941  0.2299  0.0953  0.6208
10537TIP3    H153102   3.410   1.152   3.944  0.5919  0.5858  0.4490
10537TIP3    H253103   3.554   1.140   3.992  0.7398  0.1582 -0.1013
10538TIP3   OH253104   2.694   1.019  12.725 -0.3706 -0.4959  0.1754
10538TIP3    H153105   2.746   1.094  12.756  0.3801 -1.4032  1.1334
10538TIP3    H253106   2.641   0.993  12.800 -1.4512 -0.2416 -0.4879
10539TIP3   OH253107   2.813   1.313  11.456  0.5015 -0.1193 -0.6151
10539TIP3    H153108   2.773   1.230  11.482  1.7242 -0.2883  0.7614
10539TIP3    H253109   2.739   1.369  11.435 -0.4505 -0.6760  1.1442
10540TIP3   OH253110   6.536   5.108  11.135  0.5447 -0.5597  0.2305
10540TIP3    H153111   6.473   5.170  11.173 -1.5061 -0.1592 -3.5850
10540TIP3    H253112   6.622   5.149  11.151 -0.6605  2.5030 -0.7266
10541TIP3   OH253113   4.172   0.602   5.684  0.5890 -0.1930 -0.4799
10541TIP3    H153114   4.151   0.646   5.767 -0.0609  0.4579 -0.9874
10541TIP3    H253115   4.254   0.643   5.656 -0.1192  0.8545 -1.0531
10542TIP3   OH253116   4.221   2.709   4.202 -0.0882  0.1462 -0.0588
10542TIP3    H153117   4.208   2.798   4.234 -0.3116 -0.1564  0.7014
10542TIP3    H253118   4.297   2.676   4.251 -0.2570 -0.2232 -0.0411
10543TIP3   OH253119   2.414   2.618  11.722 -0.3319 -0.1254 -0.0966
10543TIP3    H153120   2.334   2.655  11.686 -0.8559 -0.6759  0.5014
10543TIP3    H253121   2.424   2.533  11.679 -0.3617 -0.2993  0.2432
10544TIP3   OH253122   2.221   0.086   0.540  0.3011 -0.7691 -0.4914
10544TIP3    H153123   2.150   0.087   0.476  0.5274 -1.1098 -0.7460
10544TIP3    H253124   2.227   0.176   0.571 -1.4832 -1.0907  0.8924
10545TIP3   OH253125   2.828   5.589   1.133  0.1589 -0.2712  0.2348
10545TIP3    H153126   2.837   5.673   1.088  1.1237 -0.6102 -0.2145
10545TIP3    H253127   2.775   5.608   1.210  0.8317  0.8580  0.4208
10546TIP3   OH253128   1.643   3.814  17.041  0.2253  0.8097 -0.5988
10546TIP3    H153129   1.641   3.861  16.958 -0.1897  0.9904 -0.4837
10546TIP3    H253130   1.703   3.865  17.096  0.0335  1.0253 -0.5869
10547TIP3   OH253131   6.150   2.505  14.691  0.0353  0.0471  0.2948
10547TIP3    H153132   6.103   2.516  14.773  0.2798 -0.1462  0.4651
10547TIP3    H253133   6.212   2.578  14.689 -2.8341  2.5322 -1.7445
10548TIP3   OH253134   5.540   6.722   6.197 -0.1749  0.3032 -0.1133
10548TIP3    H153135   5.481   6.648   6.181  1.4179 -1.2319  0.9046
10548TIP3    H253136   5.618   6.701   6.146  1.0064  0.3547  1.6256
10549TIP3   OH253137   0.667   3.338   2.650 -0.2953  0.0463 -0.3453
10549TIP3    H153138   0.660   3.263   2.591 -2.4720 -1.1482  1.3546
10549TIP3    H253139   0.620   3.408   2.606 -1.4469 -0.6789 -0.2861
10550TIP3   OH253140   0.146   0.048   2.083 -0.0891 -0.1374 -0.1073
10550TIP3    H153141   0.165   0.125   2.136 -1.7853 -1.2897  2.2692
10550TIP3    H253142   0.147   0.080   1.992 -0.1349  2.5162  0.7979
10551TIP3   OH253143   5.814   2.615  13.724 -0.2782  0.5566  0.0326
10551TIP3    H153144   5.851   2.694  13.686  2.1598  0.5348  2.1873
10551TIP3    H253145   5.814   2.551  13.653 -0.5603  1.9708 -1.2398
10552TIP3   OH253146   5.839   5.559   0.006  0.5853 -0.0940  0.5891
10552TIP3    H153147   5.928   5.529  -0.010  0.8701  0.9294  0.2030
10552TIP3    H253148   5.790   5.479   0.027  0.9367 -1.0398 -2.0499
10553TIP3   OH253149   0.988   6.059  12.423 -0.0248  0.7173  0.1899
10553TIP3    H153150   0.963   6.071  12.331 -0.5172 -1.2115  0.0592
10553TIP3    H253151   1.064   6.117  12.434 -0.1094  1.1669 -1.3568
10554TIP3   OH253152   6.642   2.642   0.400 -0.2562  0.2075 -0.0420
10554TIP3    H153153   6.579   2.661   0.469 -1.4678  0.3664 -1.1697
10554TIP3    H253154   6.726   2.673   0.434 -0.8692  0.4045  1.2948
10555TIP3   OH253155   3.217   2.533   1.512  0.1424 -0.2765  0.0623
10555TIP3    H153156   3.213   2.449   1.467 -0.4800 -0.4601  0.4631
10555TIP3    H253157   3.222   2.598   1.442  1.1844 -0.6753 -0.2388
10556TIP3   OH253158   6.164   4.069   4.417 -0.5143  0.1521 -0.4743
10556TIP3    H153159   6.071   4.086   4.407 -0.9585 -1.8176  0.0734
10556TIP3    H253160   6.173   3.974   4.407  1.2966  0.2020  0.3486
10557TIP3   OH253161   4.146   3.425   2.379  0.3054  0.0683  0.1947
10557TIP3    H153162   4.226   3.477   2.367  0.8854 -0.7388  0.5113
10557TIP3    H253163   4.116   3.407   2.290  1.0092 -0.4219  0.0469
10558TIP3   OH253164   2.372   0.085  11.659  0.3668  0.1068 -0.0038
10558TIP3    H153165   2.445   0.076  11.599 -0.3046  2.9347 -1.3181
10558TIP3    H253166   2.294   0.084  11.603 -0.3238  1.5586  0.8816
10559TIP3   OH253167   4.766   3.217   4.399  0.1853 -0.7329  0.0882
10559TIP3    H153168   4.741   3.127   4.421 -3.2287  0.5839  2.0616
10559TIP3    H253169   4.742   3.268   4.476  0.1438  2.1534 -1.7679
10560TIP3   OH253170   3.698   4.753   0.598  0.4887  0.2838 -0.1769
10560TIP3    H153171   3.668   4.667   0.628  0.4036 -0.2894 -1.8463
10560TIP3    H253172   3.767   4.778   0.659 -0.4990 -0.2995  1.1998
10561TIP3   OH253173   0.378   6.407  17.198 -0.0689  0.2214 -0.0455
10561TIP3    H153174   0.467   6.423  17.168  0.4834  0.3937  1.6255
10561TIP3    H253175   0.386   6.335  17.261 -1.1454  0.0342 -0.1108
10562TIP3   OH253176   0.045   2.289  11.636 -0.2345 -0.0191  0.2162
10562TIP3    H153177   0.024   2.356  11.701  0.1504  0.8237 -0.5247
10562TIP3    H253178  -0.036   2.238  11.628 -1.2051  1.6091 -0.6887
10563TIP3   OH253179   6.485   6.627   4.579  0.1194  0.1250 -0.1250
10563TIP3    H153180   6.417   6.609   4.644 -1.1629  1.4657 -1.0601
10563TIP3    H253181   6.527   6.707   4.609  0.2430  0.1593 -0.3831
10564TIP3   OH253182   6.041   5.806   4.642  0.1905 -0.5422 -0.1332
10564TIP3    H153183   6.005   5.815   4.554 -0.6134 -0.8724  0.1642
10564TIP3    H253184   6.082   5.719   4.642 -0.1361 -0.6978 -0.0665
10565TIP3   OH253185   0.761   2.196  11.093 -0.0007  0.4423 -0.3077
10565TIP3    H153186   0.677   2.152  11.108 -0.5979  1.0766 -1.7471
10565TIP3    H253187   0.776   2.188  10.999  2.0644 -0.5541  0.0776
10566TIP3   OH253188   3.729   6.135   0.085 -0.0302  0.3373  0.3361
10566TIP3    H153189   3.820   6.163   0.072  0.2385 -0.2688  0.9289
10566TIP3    H253190   3.681   6.181   0.016  0.7438  0.5496 -0.0770
10567TIP3   OH253191   3.078   0.894  12.669 -0.1133 -0.0338  0.2267
10567TIP3    H153192   3.102   0.848  12.588  0.1416  0.8133 -0.1857
10567TIP3    H253193   3.159   0.935  12.698 -0.3750  0.2912  0.4991
10568TIP3   OH253194   5.971   1.814  12.696  0.0769  0.0834 -0.1970
10568TIP3    H153195   5.953   1.899  12.737  1.6197  0.0198  0.6556
10568TIP3    H253196   6.045   1.831  12.637 -0.4415 -0.3983 -0.9995
10569TIP3   OH253197   2.859   2.802   4.996  0.1430 -0.7896 -0.0801
10569TIP3    H153198   2.801   2.738   4.954  0.5583 -0.7667 -0.6977
10569TIP3    H253199   2.812   2.885   4.989 -0.6449 -1.1168  1.2204
10570TIP3   OH253200   4.278   3.397  16.281 -0.2772  0.8172 -0.0809
10570TIP3    H153201   4.259   3.488  16.257 -2.1005  1.0742  2.2215
10570TIP3    H253202   4.330   3.403  16.361 -0.7762 -0.1734  0.3193
10571TIP3   OH253203   3.509   4.569   6.358 -0.2136 -0.6759  0.1038
10571TIP3    H153204   3.482   4.605   6.442 -0.2380 -1.4728  0.4510
10571TIP3    H253205   3.541   4.481   6.379  3.3182  0.4372 -0.1642
10572TIP3   OH253206   2.952   4.713  10.532 -0.0461  0.1818  0.4947
10572TIP3    H153207   2.900   4.647  10.578 -1.4798  1.8488  1.3608
10572TIP3    H253208   3.025   4.731  10.591  0.7394 -1.1349 -0.0683
10573TIP3   OH253209   2.934   4.713   1.249  0.3215  0.0317  0.3756
10573TIP3    H153210   2.890   4.711   1.334 -0.7287  0.0622 -0.1474
10573TIP3    H253211   2.869   4.676   1.188  0.4150  1.5257 -0.6682
10574TIP3   OH253212   0.997   1.108  14.237  0.1533 -0.5349  0.1014
10574TIP3    H153213   1.016   1.202  14.231  1.6669 -0.6532  2.3575
10574TIP3    H253214   0.909   1.099  14.199 -0.5725  2.0168  1.0455
10575TIP3   OH253215   6.742   4.963  14.283  0.7367  0.1796 -0.6670
10575TIP3    H153216   6.789   5.046  14.279  1.5466 -0.3049 -1.6480
10575TIP3    H253217   6.798   4.906  14.336  0.1006  0.3098  0.1474
10576TIP3   OH253218   0.116   2.285   6.360  0.2494  0.5103  0.5601
10576TIP3    H153219   0.126   2.374   6.395 -1.5694  1.1406 -0.4765
10576TIP3    H253220   0.092   2.232   6.435 -1.4531  1.4474  0.7058
10577TIP3   OH253221   1.729   2.799   4.892  0.9372  0.0607  0.4104
10577TIP3    H153222   1.775   2.715   4.885 -1.5678 -1.2977 -0.3393
10577TIP3    H253223   1.636   2.776   4.894  0.1095  2.9206 -1.5151
10578TIP3   OH253224   4.359   1.920   0.879  0.4547  0.2386  0.4004
10578TIP3    H153225   4.290   1.866   0.918  0.8120 -0.3101  0.2763
10578TIP3    H253226   4.317   1.963   0.805  1.4780 -3.9610 -2.8195
10579TIP3   OH253227   0.190   4.091  14.106  0.0319  0.4433 -0.4775
10579TIP3    H153228   0.139   4.057  14.032  0.2844 -0.6612 -0.1571
10579TIP3    H253229   0.258   4.145  14.065 -0.1636  0.2780 -1.0206
10580TIP3   OH253230   3.587   6.324   3.520  0.1259  0.5506 -0.2436
10580TIP3    H153231   3.600   6.240   3.477 -0.9538 -0.0524  0.6074
10580TIP3    H253232   3.657   6.328   3.585  0.0514  0.2161 -0.1419
10581TIP3   OH253233   4.253   5.523   2.361  0.2179 -0.2500 -0.4089
10581TIP3    H153234   4.207   5.540   2.279 -1.9332  1.2931  1.0791
10581TIP3    H253235   4.246   5.428   2.373 -1.3770 -0.2060 -0.9029
10582TIP3   OH253236   3.125   0.667   0.041  0.5240  0.7151  0.1172
10582TIP3    H153237   3.032   0.658   0.021  1.0781 -0.5004 -2.0260
10582TIP3    H253238   3.168   0.674  -0.045  2.3868  1.5948  1.0782
10583TIP3   OH253239   4.072   3.285  16.747 -0.4227 -0.3268  0.6479
10583TIP3    H153240   4.108   3.241  16.671 -0.8016 -1.5850  1.1839
10583TIP3    H253241   4.074   3.219  16.817 -3.3653 -0.3499  0.8086
10584TIP3   OH253242   5.973   3.245  12.122 -0.7851  0.0421 -0.2490
10584TIP3    H153243   6.031   3.301  12.069  0.3853 -1.4258 -0.5518
10584TIP3    H253244   5.893   3.297  12.132 -0.4746  0.9640 -2.1835
10585TIP3   OH253245   1.751   3.242  12.666  0.5533 -0.1589 -0.4881
10585TIP3    H153246   1.703   3.208  12.590  1.6128 -0.7380 -0.9037
10585TIP3    H253247   1.707   3.203  12.741 -0.5908  0.5245 -0.7904
10586TIP3   OH253248   0.832   3.128  16.079 -0.4381  0.2648  0.1310
10586TIP3    H153249   0.759   3.079  16.041 -0.1252  0.9932 -1.4039
10586TIP3    H253250   0.806   3.141  16.171 -2.8901  1.7707 -0.7405
10587TIP3   OH253251   1.695   2.552  11.349  0.7320 -0.5272 -0.3143
10587TIP3    H153252   1.605   2.580  11.332  0.8360 -1.8090 -3.2044
10587TIP3    H253253   1.703   2.467  11.305  3.7248  0.1561 -1.2564
10588TIP3   OH253254   5.000   5.869  15.817  0.2320 -0.0713 -0.5940
10588TIP3    H153255   4.930   5.931  15.837  0.5596  0.7364 -1.9096
10588TIP3    H253256   4.956   5.785  15.808 -0.6610  0.5264 -1.9594
10589TIP3   OH253257   4.086   2.853   0.232 -0.2570 -0.0480  0.2583
10589TIP3    H153258   4.157   2.789   0.241  1.1339  1.5566  1.1507
10589TIP3    H253259   4.078   2.867   0.138 -0.1967 -1.1336  0.0882
10590TIP3   OH253260   6.204   6.486  13.258  0.3051  0.0202 -0.3931
10590TIP3    H153261   6.268   6.548  13.224 -0.0718  0.9778  0.5995
10590TIP3    H253262   6.232   6.470  13.349 -0.3883 -0.1839 -0.2112
10591TIP3   OH253263   1.879   2.750  14.790  0.1801  0.6593  0.7246
10591TIP3    H153264   1.812   2.813  14.819  0.2318  1.1880 -0.2889
10591TIP3    H253265   1.944   2.804  14.746 -0.0514 -0.1814 -0.6643
10592TIP3   OH253266   1.508   2.250  13.071  0.8220  0.0186 -0.4054
10592TIP3    H153267   1.498   2.176  13.131 -0.1293  0.5283  0.0810
10592TIP3    H253268   1.451   2.318  13.108  1.4687  0.8893 -1.0077
10593TIP3   OH253269   3.142   0.347   2.329  0.1338  0.2326  0.0757
10593TIP3    H153270   3.198   0.334   2.405  0.8559 -1.4194 -0.7128
10593TIP3    H253271   3.121   0.440   2.330 -0.0910  0.1864  2.4509
10594TIP3   OH253272   1.499   3.764   3.184 -0.2878 -0.5570  0.0475
10594TIP3    H153273   1.569   3.735   3.243 -0.4890  1.7219  1.4821
10594TIP3    H253274   1.499   3.700   3.113  0.6249 -2.8137  2.0195
10595TIP3   OH253275   5.744   4.032  12.728 -0.8305 -0.4499  0.0095
10595TIP3    H153276   5.685   4.037  12.803 -1.0144  1.0674 -0.2165
10595TIP3    H253277   5.687   4.015  12.653 -0.7797 -0.7861  0.0483
10596TIP3   OH253278   4.520   3.299   2.434  0.2583  0.0139  0.2778
10596TIP3    H153279   4.561   3.380   2.465 -0.3223  0.1749  0.6358
10596TIP3    H253280   4.434   3.299   2.476  0.0088 -0.4673 -0.2398
10597TIP3   OH253281   6.255   5.536  11.808 -0.4852  0.0680 -0.2243
10597TIP3    H153282   6.187   5.511  11.746 -0.1449 -0.6578 -0.3036
10597TIP3    H253283   6.227   5.497  11.891 -2.6558  3.7180  0.9089
10598TIP3   OH253284   1.832   5.417  14.479  0.3032  0.0261  0.7473
10598TIP3    H153285   1.921   5.386  14.468 -0.3613 -1.2725 -1.2775
10598TIP3    H253286   1.800   5.432  14.390 -1.5479  0.2917  1.4168
10599TIP3   OH253287   5.384   3.062  11.554  0.1715  0.4283  0.2617
10599TIP3    H153288   5.406   2.980  11.510  2.4025  1.8959 -1.4628
10599TIP3    H253289   5.380   3.127  11.484  0.3775  2.1649  1.7991
10600TIP3   OH253290   4.876   2.702  10.978 -0.8029 -0.9072  0.1004
10600TIP3    H153291   4.896   2.713  11.071 -1.0698 -0.9214  0.1601
10600TIP3    H253292   4.816   2.774  10.958  0.1008 -0.2563 -0.3218
10601TIP3   OH253293   1.829   2.384  12.735  0.7630  0.1639 -0.0937
10601TIP3    H153294   1.761   2.362  12.672  0.3793 -1.5424  0.8995
10601TIP3    H253295   1.821   2.319  12.804  1.8802  1.3587  1.2085
10602TIP3   OH253296   3.975   1.373   0.623  0.7563 -0.3212  0.1955
10602TIP3    H153297   4.016   1.286   0.618  0.8394 -0.1980 -1.8914
10602TIP3    H253298   3.964   1.389   0.716  1.9750 -2.0092  0.6608
10603TIP3   OH253299   3.356   6.036   4.415  0.1568 -0.3598 -0.6153
10603TIP3    H153300   3.399   6.108   4.369  0.3267  0.6128  1.0148
10603TIP3    H253301   3.270   6.028   4.373 -0.3097  1.5719 -0.0902
10604TIP3   OH253302   0.484   2.615  14.754 -0.3245 -0.4090  0.3724
10604TIP3    H153303   0.497   2.649  14.665 -1.3955 -0.8692  0.0434
10604TIP3    H253304   0.572   2.618  14.793  0.2385 -0.6032 -0.8394
10605TIP3   OH253305   1.680   6.338  14.711  0.0937 -0.1602 -0.3591
10605TIP3    H153306   1.731   6.278  14.766 -0.3657 -0.7115 -0.5404
10605TIP3    H253307   1.686   6.422  14.757  0.2837 -0.4602  0.1757
10606TIP3   OH253308   5.341   2.934   5.539  0.3847  0.2404  0.4543
10606TIP3    H153309   5.431   2.932   5.572 -0.0918 -0.6176  1.7210
10606TIP3    H253310   5.333   2.853   5.488 -0.6447 -1.3473  3.0263
10607TIP3   OH253311   0.547   4.875   2.787  0.9133 -0.4886 -0.5097
10607TIP3    H153312   0.497   4.955   2.804  0.9530 -0.9556  1.9831
10607TIP3    H253313   0.622   4.881   2.846  1.4216 -1.9123 -1.0070
10608TIP3   OH253314   2.865   3.577   3.800  0.0528 -0.0840  0.5463
10608TIP3    H153315   2.945   3.604   3.757 -0.7067  0.5492 -0.4857
10608TIP3    H253316   2.856   3.637   3.874  0.0688  0.4190  0.1412
10609TIP3   OH253317   6.603   3.116   0.517 -0.2285 -0.4116  0.2703
10609TIP3    H153318   6.572   3.092   0.430 -0.0029  1.2623 -0.2929
10609TIP3    H253319   6.664   3.047   0.541 -1.3692 -1.6378 -0.2919
10610TIP3   OH253320   2.013   5.391  15.637 -0.2042  0.9585 -0.2196
10610TIP3    H153321   2.003   5.430  15.724 -0.1926 -0.8075  0.6000
10610TIP3    H253322   2.091   5.433  15.601 -0.3596  1.9012  0.5030
10611TIP3   OH253323   4.800   4.883   1.103  0.7036  0.2954 -0.0276
10611TIP3    H153324   4.832   4.800   1.068  0.5057  0.7008 -1.1895
10611TIP3    H253325   4.878   4.932   1.127  0.8008 -0.4873  1.2812
10612TIP3   OH253326   2.914   3.728  12.238  0.2993 -0.3003  0.0106
10612TIP3    H153327   2.970   3.774  12.176  1.4033 -2.1922 -0.4307
10612TIP3    H253328   2.890   3.647  12.193 -0.5388 -0.7749  1.2794
10613TIP3   OH253329   0.729   0.981  12.437 -0.4892 -0.3071  0.2986
10613TIP3    H153330   0.700   0.944  12.520 -0.1134 -1.8223 -0.2281
10613TIP3    H253331   0.750   1.072  12.457 -0.1068 -0.7447  1.9375
10614TIP3   OH253332   6.471   2.528  15.746  0.0936  0.9206 -0.1344
10614TIP3    H153333   6.490   2.496  15.834  0.1595  0.4779 -0.3052
10614TIP3    H253334   6.412   2.602  15.759 -1.1547 -0.1169  0.2026
10615TIP3   OH253335   2.839   6.048  14.415  0.1811 -0.5450  0.4019
10615TIP3    H153336   2.823   6.023  14.324  1.9538 -0.3525  0.0224
10615TIP3    H253337   2.888   6.130  14.408 -0.4318 -0.0708  1.5568
10616TIP3   OH253338   5.135   0.080   4.741  0.6369 -0.2433  0.0004
10616TIP3    H153339   5.050   0.068   4.783 -0.2092  1.7084 -1.0684
10616TIP3    H253340   5.197   0.088   4.814 -0.4061  0.3416  0.8419
10617TIP3   OH253341   0.080   3.303  17.043  0.0277  0.2066 -0.0822
10617TIP3    H153342   0.036   3.325  16.961 -0.5388 -3.1444 -0.7222
10617TIP3    H253343   0.173   3.299  17.021 -0.1534 -1.0114 -0.6602
10618TIP3   OH253344   1.530   4.814  15.797 -0.4787  0.3528  0.5435
10618TIP3    H153345   1.532   4.791  15.890  0.7724  0.6237  0.6023
10618TIP3    H253346   1.491   4.738  15.755 -0.2675 -0.1335  1.2081
10619TIP3   OH253347   5.056   0.239   4.219 -0.3362  0.2605 -0.3857
10619TIP3    H153348   5.037   0.221   4.127  0.4672 -0.0022 -0.5057
10619TIP3    H253349   5.013   0.169   4.267  0.0297 -0.1354 -0.6277
10620TIP3   OH253350   6.096   0.304   4.209  0.2521 -0.2349  0.2612
10620TIP3    H153351   6.042   0.236   4.169 -0.2165  0.3652 -0.1360
10620TIP3    H253352   6.185   0.279   4.187  0.1149 -0.9560  0.4827
10621TIP3   OH253353   5.326   2.681   0.099  0.0349 -0.6718  0.2041
10621TIP3    H153354   5.248   2.716   0.056  0.5110  0.4358  0.2208
10621TIP3    H253355   5.301   2.672   0.191 -0.2027 -0.7067  0.1356
10622TIP3   OH253356   6.689   0.757  12.152  0.1315 -0.1782 -0.1408
10622TIP3    H153357   6.727   0.792  12.232 -1.4829  0.4962  0.3509
10622TIP3    H253358   6.594   0.761  12.167 -0.1460 -1.9663 -1.2580
10623TIP3   OH253359   6.776   4.819  15.398  0.3506 -0.4849  0.0460
10623TIP3    H153360   6.863   4.858  15.397  0.4613 -0.7430 -0.2707
10623TIP3    H253361   6.728   4.866  15.329  0.2805 -0.4430  0.1227
10624TIP3   OH253362   1.572   2.506  15.877  0.1204  0.2009 -0.5393
10624TIP3    H153363   1.504   2.444  15.900 -0.1853  0.5161 -0.5809
10624TIP3    H253364   1.529   2.592  15.883  0.5653  0.4136 -0.3703
10625TIP3   OH253365   5.185   6.021  14.308 -0.3458  0.6624  0.1630
10625TIP3    H153366   5.247   6.083  14.347  3.0323 -0.6888 -2.6823
10625TIP3    H253367   5.156   6.064  14.228 -0.3755 -0.1236 -0.2538
10626TIP3   OH253368   0.738   3.894   2.396  0.1913 -0.0101  0.7015
10626TIP3    H153369   0.742   3.980   2.353  0.0422 -0.4206 -0.1458
10626TIP3    H253370   0.689   3.839   2.335 -0.3572 -0.5064  1.5825
10627TIP3   OH253371   1.590   3.080  12.484  0.0545 -0.0833  0.1074
10627TIP3    H153372   1.517   3.042  12.533  0.1758 -0.0632  0.3063
10627TIP3    H253373   1.567   3.068  12.392  0.5809 -1.6418  0.1511
10628TIP3   OH253374   1.472   6.650   0.931 -0.0653  0.7857 -0.1478
10628TIP3    H153375   1.462   6.587   1.002  0.0636 -0.4516 -1.2090
10628TIP3    H253376   1.482   6.734   0.975  0.1754  0.0181  1.3007
10629TIP3   OH253377   2.518   0.598   5.111 -0.0790 -0.3796 -0.4893
10629TIP3    H153378   2.501   0.523   5.053  1.5883 -0.6996 -0.6027
10629TIP3    H253379   2.436   0.646   5.113 -1.0561 -1.9834 -0.7635
10630TIP3   OH253380   4.279   2.790  16.718 -0.4119 -0.6547 -0.0418
10630TIP3    H153381   4.257   2.796  16.624  0.3974  1.2582 -0.1249
10630TIP3    H253382   4.358   2.736  16.721  1.4125  1.8914 -0.7764
10631TIP3   OH253383   5.226   6.281  15.031  0.4064  0.1122  0.5842
10631TIP3    H153384   5.238   6.226  15.108  1.3516  0.1817  0.4950
10631TIP3    H253385   5.187   6.223  14.966  0.2239 -0.1199  0.8977
10632TIP3   OH253386   0.192   2.947   1.212  0.0499  0.8422 -0.2691
10632TIP3    H153387   0.225   2.907   1.293  1.4667  1.2590 -0.6294
10632TIP3    H253388   0.197   3.041   1.228  0.8870  0.9340 -1.0625
10633TIP3   OH253389   4.681   6.225   4.445 -0.3854  0.7432  0.6041
10633TIP3    H153390   4.748   6.268   4.391  2.0236  0.1594  3.0080
10633TIP3    H253391   4.645   6.296   4.498 -0.2332  0.6919  0.7731
10634TIP3   OH253392   3.399   3.830   4.243 -0.2557  0.2325  0.0212
10634TIP3    H153393   3.316   3.851   4.201  0.3283  0.5477 -1.0148
10634TIP3    H253394   3.465   3.861   4.181  0.6373 -1.0960  0.2832
10635TIP3   OH253395   0.984   3.424  10.498 -0.4614  0.4447  0.0336
10635TIP3    H153396   0.960   3.331  10.493  1.3867 -0.0137 -1.0212
10635TIP3    H253397   0.954   3.461  10.415  0.6321  0.3060 -0.4383
10636TIP3   OH253398   2.091   5.286   4.395  0.9251  0.3440 -0.3831
10636TIP3    H153399   2.007   5.264   4.436  1.6165 -0.7184  0.4804
10636TIP3    H253400   2.138   5.335   4.463  1.4237  0.0040 -0.4861
10637TIP3   OH253401   2.764   5.165  15.367  0.0553  0.5033 -0.0605
10637TIP3    H153402   2.763   5.153  15.462 -0.9364  0.3469 -0.0907
10637TIP3    H253403   2.777   5.260  15.355  0.5640  0.4717  0.2237
10638TIP3   OH253404   4.845   0.770   4.409  0.1200  0.7672 -0.4428
10638TIP3    H153405   4.837   0.801   4.499  0.4445  0.7811 -0.4201
10638TIP3    H253406   4.755   0.769   4.377 -0.2559 -1.3728  0.5871
10639TIP3   OH253407   6.787   3.435   0.856  0.3865  0.3729  0.0170
10639TIP3    H153408   6.793   3.393   0.770 -2.4329  2.0046 -1.0312
10639TIP3    H253409   6.767   3.364   0.917 -1.3759 -0.2822 -1.2842
10640TIP3   OH253410   4.405   5.146   0.398 -0.4902 -0.3270 -0.7554
10640TIP3    H153411   4.387   5.070   0.342 -0.4314 -0.3556 -0.7346
10640TIP3    H253412   4.485   5.183   0.363 -1.1804  0.4447 -1.5269
10641TIP3   OH253413   0.544   4.596   5.537 -0.7842 -0.3448 -0.3172
10641TIP3    H153414   0.588   4.663   5.588  1.3957 -2.2740  0.4165
10641TIP3    H253415   0.453   4.625   5.532 -0.6743  0.7394  3.1709
10642TIP3   OH253416   4.503   0.156   0.258 -0.2459 -0.4225 -0.1944
10642TIP3    H153417   4.571   0.192   0.313 -0.3643 -0.5349  0.0251
10642TIP3    H253418   4.547   0.135   0.175  0.2529 -1.6126  0.3528
10643TIP3   OH253419   1.577   0.280   5.037 -0.5721 -0.4909  0.3886
10643TIP3    H153420   1.603   0.311   5.124 -1.0655 -2.9008  1.4111
10643TIP3    H253421   1.654   0.296   4.982  0.1278  0.0422  1.5064
10644TIP3   OH253422   5.910   5.895   0.846  0.0968  0.0929  0.0518
10644TIP3    H153423   5.974   5.907   0.775 -0.5225  1.7236 -0.2509
10644TIP3    H253424   5.963   5.885   0.925  0.7852 -1.2087 -0.5656
10645TIP3   OH253425   5.956   2.914   3.954 -0.2342 -0.1123  0.9606
10645TIP3    H153426   6.010   2.975   3.904 -0.0458 -0.9231  0.1768
10645TIP3    H253427   6.018   2.853   3.994 -0.5466 -0.8134  0.3692
10646TIP3   OH253428   3.829   5.119  15.364  0.2601 -0.8564  0.0913
10646TIP3    H153429   3.876   5.141  15.444  0.4593  1.0214 -0.5073
10646TIP3    H253430   3.808   5.026  15.372  3.1412 -1.4617  0.8266
10647TIP3   OH253431   6.368   2.902   2.279 -0.5970 -0.7681 -0.0621
10647TIP3    H153432   6.284   2.929   2.318  0.6670  1.2683  1.3513
10647TIP3    H253433   6.409   2.849   2.347 -0.7376 -1.7868 -0.7665
10648TIP3   OH253434   6.003   2.474  15.928 -0.1137 -0.0340  0.1475
10648TIP3    H153435   5.937   2.507  15.989  0.5255  2.4719 -0.4410
10648TIP3    H253436   6.055   2.551  15.906  1.8910 -1.6172 -0.7968
10649TIP3   OH253437   4.123   0.181  16.814 -0.6378 -0.0786 -0.6177
10649TIP3    H153438   4.153   0.249  16.874 -0.8249 -0.6039  0.0802
10649TIP3    H253439   4.124   0.222  16.728 -0.4116  0.6955 -0.2444
10650TIP3   OH253440   5.577   0.660   0.114  0.0828 -0.3147  0.3852
10650TIP3    H153441   5.520   0.703   0.177 -0.3473  0.5110 -0.5492
10650TIP3    H253442   5.522   0.647   0.037  0.3534 -2.1140  0.4805
10651TIP3   OH253443   3.783   6.255   4.545 -0.0462 -0.4367 -0.2946
10651TIP3    H153444   3.786   6.160   4.556  0.6933 -0.3157  0.6080
10651TIP3    H253445   3.819   6.269   4.457  2.5264 -0.8188  0.6470
10652TIP3   OH253446   3.207   1.792   3.016  0.1747  0.2992 -0.2312
10652TIP3    H153447   3.155   1.714   2.998 -1.3775  0.6566  2.5435
10652TIP3    H253448   3.292   1.759   3.044  0.5409 -0.3185 -1.9982
10653TIP3   OH253449   3.115   5.043  13.069 -0.0487 -0.0628 -0.6926
10653TIP3    H153450   3.095   5.059  12.977  0.4909  1.8432 -0.4895
10653TIP3    H253451   3.178   4.972  13.068 -1.8501 -1.6947 -1.6595
10654TIP3   OH253452   2.593   1.361  16.715 -0.0956 -0.7919  0.1627
10654TIP3    H153453   2.608   1.452  16.688 -1.1465 -0.9104 -0.8437
10654TIP3    H253454   2.672   1.315  16.688  0.7917 -0.0250  1.4145
10655TIP3   OH253455   5.987   2.971  14.804  0.0776  0.0055 -0.6729
10655TIP3    H153456   5.893   2.988  14.808 -0.0816 -0.9692 -0.2150
10655TIP3    H253457   6.006   2.965  14.710 -0.0211  1.7902 -0.8176
10656TIP3   OH253458   2.611   0.221  12.726 -0.6950 -0.4531  0.1499
10656TIP3    H153459   2.575   0.260  12.646 -1.5924 -4.7513 -1.6532
10656TIP3    H253460   2.704   0.243  12.723 -1.3923  2.8087  0.0670
10657TIP3   OH253461   1.465   3.342  12.388 -0.0594 -0.0954 -0.5117
10657TIP3    H153462   1.459   3.263  12.441 -0.3142  1.5024  1.9011
10657TIP3    H253463   1.400   3.329  12.318  0.0520 -2.0785 -0.2696
10658TIP3   OH253464   3.598   6.353   2.887 -0.7679  0.6829 -0.3448
10658TIP3    H153465   3.683   6.392   2.869 -0.4624 -0.6878 -1.9247
10658TIP3    H253466   3.577   6.301   2.809 -2.5137  0.0677  0.4933
10659TIP3   OH253467   0.211   6.033   2.544  0.2209 -0.0509 -0.5461
10659TIP3    H153468   0.295   6.000   2.575  0.7863  3.0573  1.4954
10659TIP3    H253469   0.148   6.003   2.611 -0.0491 -0.9439 -1.1873
10660TIP3   OH253470   1.926   2.185  13.892  0.2849  0.0956  0.1696
10660TIP3    H153471   1.886   2.265  13.860 -0.8860 -1.5456 -2.5998
10660TIP3    H253472   2.019   2.207  13.899  0.0085  1.6340 -0.6794
10661TIP3   OH253473   4.542   0.023   5.474  0.1698 -0.1780 -0.2487
10661TIP3    H153474   4.471   0.071   5.430  0.0445  0.0057  0.1426
10661TIP3    H253475   4.600   0.092   5.507 -0.3727 -0.2624  0.9187
10662TIP3   OH253476   4.379   6.456  13.628  0.4941 -0.1332 -0.1396
10662TIP3    H153477   4.379   6.520  13.700  1.5935 -1.0062  0.6617
10662TIP3    H253478   4.293   6.414  13.634  0.2689  0.3497  0.1573
10663TIP3   OH253479   3.823   0.740  12.425 -0.3026 -0.2682  0.4435
10663TIP3    H153480   3.848   0.660  12.472  1.4755  0.1461  0.2552
10663TIP3    H253481   3.792   0.708  12.340  1.2280 -0.7463  0.0320
10664TIP3   OH253482   6.728   0.245   3.408  0.0217 -0.3801  0.1805
10664TIP3    H153483   6.640   0.225   3.439  0.6193 -0.1380  2.1114
10664TIP3    H253484   6.761   0.310   3.470  1.2740  0.1184 -0.9828
10665TIP3   OH253485   5.163   5.117  14.900 -0.2584 -0.4350 -0.2060
10665TIP3    H153486   5.214   5.040  14.926 -1.1913 -0.9384  0.1634
10665TIP3    H253487   5.153   5.167  14.980 -1.4742 -1.0078  0.0104
10666TIP3   OH253488   4.091   4.751  12.490 -0.0804  0.2611 -0.0341
10666TIP3    H153489   4.143   4.770  12.412  0.9788  1.8114  1.0178
10666TIP3    H253490   4.054   4.836  12.516  0.0318 -0.1221  1.4563
10667TIP3   OH253491   3.158   3.003   2.429  0.0952 -0.3336 -0.0759
10667TIP3    H153492   3.067   2.976   2.414  0.2370 -1.2535  0.6927
10667TIP3    H253493   3.202   2.986   2.346  0.0452 -1.9508  0.2100
10668TIP3   OH253494   0.373   0.379   2.706 -0.7963 -0.0632 -0.3931
10668TIP3    H153495   0.302   0.334   2.660 -2.5203  2.3336 -0.1543
10668TIP3    H253496   0.345   0.379   2.798  0.0643 -0.0867 -0.1270
10669TIP3   OH253497   2.366   5.532   1.733  0.4301 -0.3242 -0.0082
10669TIP3    H153498   2.402   5.470   1.671  0.8890 -0.1290  0.0630
10669TIP3    H253499   2.441   5.562   1.784  0.0782 -0.3897  0.5592
10670TIP3   OH253500   1.581   6.222  16.932 -0.2604  0.2630  0.0495
10670TIP3    H153501   1.493   6.213  16.968 -0.5152 -0.8850 -0.8054
10670TIP3    H253502   1.621   6.136  16.946  0.1616  0.2805 -0.9925
10671TIP3   OH253503   0.650   2.118  12.791 -0.4396 -0.1204  0.1913
10671TIP3    H153504   0.580   2.153  12.845  0.3326  2.1726 -0.2714
10671TIP3    H253505   0.605   2.073  12.719 -1.4350 -0.2315  0.8855
10672TIP3   OH253506   6.638   0.706   0.175 -0.9696  0.1286  0.2252
10672TIP3    H153507   6.672   0.677   0.260  0.3426  1.0228  0.0233
10672TIP3    H253508   6.554   0.661   0.166 -0.9370 -0.2821  1.8214
10673TIP3   OH253509   1.695   1.566   5.433  0.1586 -0.0580 -1.0970
10673TIP3    H153510   1.695   1.568   5.529  1.5155 -0.1053 -1.0945
10673TIP3    H253511   1.628   1.630   5.409 -0.0159  0.1404 -0.1237
10674TIP3   OH253512   6.386   0.684  14.915  0.0407  0.3371 -0.3976
10674TIP3    H153513   6.410   0.632  14.839  0.2816 -1.5877  0.9633
10674TIP3    H253514   6.311   0.638  14.952  0.9235  0.3568  1.4435
10675TIP3   OH253515   0.899   5.347   1.621  0.0882 -0.2232 -0.6275
10675TIP3    H153516   0.963   5.344   1.692 -0.7934 -1.4798  0.1323
10675TIP3    H253517   0.950   5.373   1.544  0.4226  4.7763  1.1162
10676TIP3   OH253518   2.622   5.583   1.851 -0.0680 -0.1325  0.2255
10676TIP3    H153519   2.649   5.498   1.885 -0.8355  0.1283  1.4816
10676TIP3    H253520   2.704   5.623   1.822  0.5152 -0.6129  1.1796
10677TIP3   OH253521   3.599   3.556   4.741 -0.7118 -0.5362  0.4613
10677TIP3    H153522   3.666   3.618   4.715  0.3436 -1.3302  1.2208
10677TIP3    H253523   3.595   3.564   4.836 -1.2799 -0.9103  0.4720
10678TIP3   OH253524   3.505   5.518   2.014 -0.4192  0.0247 -0.0366
10678TIP3    H153525   3.443   5.520   2.087 -0.3525  0.8558  0.0018
10678TIP3    H253526   3.463   5.464   1.948 -1.8747  1.8581 -0.6339
10679TIP3   OH253527   3.053   1.201   3.208 -0.0786 -0.1046 -0.4284
10679TIP3    H153528   3.138   1.168   3.179 -0.3542 -0.9069 -0.3369
10679TIP3    H253529   3.048   1.290   3.173  0.6624 -0.1723 -0.6997
10680TIP3   OH253530   4.914   0.852  16.186 -0.0153  1.0398 -0.6543
10680TIP3    H153531   4.859   0.929  16.169  1.6935  2.0768 -1.6489
10680TIP3    H253532   4.937   0.819  16.099 -1.5330 -1.2139 -0.2324
10681TIP3   OH253533   2.987   4.492   1.959 -0.3561 -0.6052  0.1500
10681TIP3    H153534   3.051   4.548   2.004 -0.3695  0.2180 -0.8528
10681TIP3    H253535   3.040   4.430   1.909 -0.3311 -1.9333  1.7436
10682TIP3   OH253536   5.746   4.341  11.432  0.0817 -0.2936 -0.3477
10682TIP3    H153537   5.652   4.355  11.445  0.6228  2.0848  1.1769
10682TIP3    H253538   5.754   4.246  11.418 -2.3195 -0.8541  1.6829
10683TIP3   OH253539   6.051   6.521   3.968 -0.3433 -0.0393  0.5718
10683TIP3    H153540   6.146   6.515   3.975 -0.1760  1.7643  0.0012
10683TIP3    H253541   6.025   6.438   3.926  1.1108  0.0294 -0.4935
10684TIP3   OH253542   4.013   0.845   6.327 -0.2715  0.6162  0.7882
10684TIP3    H153543   3.934   0.897   6.314 -0.9858 -0.2615  1.4867
10684TIP3    H253544   4.083   0.897   6.290 -1.0864  1.7175  0.7785
10685TIP3   OH253545   0.488   4.950  12.002  0.1794 -0.3180 -0.9249
10685TIP3    H153546   0.534   4.873  11.969 -0.2416 -0.5431 -0.9789
10685TIP3    H253547   0.558   5.010  12.027  0.5208 -1.1908  0.2579
10686TIP3   OH253548   3.530   2.121  12.575 -0.5122  0.4427  0.0209
10686TIP3    H153549   3.558   2.212  12.566  1.5422 -0.2605 -0.8695
10686TIP3    H253550   3.594   2.083  12.635  0.3462 -1.1411 -1.8787
10687TIP3   OH253551   1.090   2.724  11.119 -0.3727 -0.2481  0.0728
10687TIP3    H153552   1.165   2.714  11.060  0.9361 -0.6429  1.7683
10687TIP3    H253553   1.111   2.800  11.173 -1.6399  0.2160 -0.0741
10688TIP3   OH253554   1.513   2.124   1.293  0.5793 -0.0104  0.3934
10688TIP3    H153555   1.602   2.158   1.281  0.7547  0.2852  2.3930
10688TIP3    H253556   1.491   2.146   1.383 -1.5468 -0.0660 -0.0933
10689TIP3   OH253557   6.723   2.442  11.838 -0.8328 -0.1213 -0.0075
10689TIP3    H153558   6.792   2.502  11.869 -0.5921 -0.1034 -0.5772
10689TIP3    H253559   6.681   2.411  11.918 -2.4502  2.5442  0.2330
10690TIP3   OH253560   5.971   5.020  14.571  0.4550 -0.1492  0.6198
10690TIP3    H153561   5.923   5.086  14.621 -0.2791  0.5465 -0.9396
10690TIP3    H253562   5.914   5.001  14.496  2.4862  0.5191 -1.1398
10691TIP3   OH253563   4.453   1.958   4.616 -0.0303  0.0615  0.9911
10691TIP3    H153564   4.368   1.915   4.623 -1.7765  3.6895  3.4864
10691TIP3    H253565   4.442   2.020   4.544  1.2493 -1.0098 -0.1390
10692TIP3   OH253566   5.760   5.562   5.894  0.0650  0.3508 -0.4175
10692TIP3    H153567   5.703   5.626   5.937 -0.3710 -1.6382  2.0766
10692TIP3    H253568   5.848   5.585   5.922 -0.2603 -1.2345  2.0322
10693TIP3   OH253569   4.524   6.608   2.558 -0.6578 -0.3621  0.3465
10693TIP3    H153570   4.529   6.664   2.635 -0.2844 -2.4976  1.8980
10693TIP3    H253571   4.430   6.600   2.541 -0.7006  1.1475 -0.2200
10694TIP3   OH253572   4.753   1.841  12.070 -0.2916 -0.2763  0.1432
10694TIP3    H153573   4.692   1.906  12.105 -1.0046 -1.1662  0.5602
10694TIP3    H253574   4.833   1.854  12.121 -0.2397  0.6600 -0.1680
10695TIP3   OH253575   1.178   3.089  10.625  0.0689  0.0490 -0.3500
10695TIP3    H153576   1.124   3.104  10.548  0.5098  0.9545 -0.4846
10695TIP3    H253577   1.212   3.176  10.648 -0.1344 -0.1938  0.9110
10696TIP3   OH253578   3.472   4.739  12.418  0.7027  0.2390  0.4482
10696TIP3    H153579   3.491   4.655  12.375  0.2875 -0.2373  1.1803
10696TIP3    H253580   3.481   4.804  12.348  0.6645 -0.4568 -0.2159
10697TIP3   OH253581   2.390   0.199  14.796 -0.1445 -0.1939 -0.7639
10697TIP3    H153582   2.404   0.183  14.890  3.0041 -0.2449 -1.1860
10697TIP3    H253583   2.359   0.289  14.792 -1.4433 -0.5618  0.3927
10698TIP3   OH253584   1.679   2.394  14.104 -0.0886 -0.3916  0.0850
10698TIP3    H153585   1.664   2.335  14.030 -0.5012  0.3726 -0.4411
10698TIP3    H253586   1.739   2.460  14.070 -0.7324  0.2904  0.2691
10699TIP3   OH253587   2.747   5.349  14.074  0.0224  1.0385 -0.5410
10699TIP3    H153588   2.820   5.378  14.020  1.7206 -0.0945  1.1080
10699TIP3    H253589   2.758   5.254  14.081 -0.7942  1.0341  0.8906
10700TIP3   OH253590   3.913   6.573   4.422 -0.4285  0.0147  0.3176
10700TIP3    H153591   3.918   6.617   4.337 -1.3244 -0.5258 -0.0256
10700TIP3    H253592   3.920   6.643   4.486  1.9901  0.2371 -0.1809
10701TIP3   OH253593   5.487   1.068   0.205 -0.1028 -0.1943  0.6210
10701TIP3    H153594   5.555   1.044   0.143 -0.2150  0.0770  0.3976
10701TIP3    H253595   5.447   0.984   0.230 -1.4153 -0.1473 -1.2168
10702TIP3   OH253596   3.985   6.310  14.601 -0.0765 -0.0956 -0.0412
10702TIP3    H153597   3.998   6.234  14.545 -0.5900 -0.1919 -0.0329
10702TIP3    H253598   4.070   6.325  14.642 -0.1619 -1.0788  0.4839
10703TIP3   OH253599   2.358   5.209   1.849 -0.2982  0.1335  0.4817
10703TIP3    H153600   2.335   5.196   1.757 -1.4532 -2.8097  1.1261
10703TIP3    H253601   2.275   5.226   1.893  0.1609  0.8336  1.0888
10704TIP3   OH253602   3.085   5.480  10.737  0.1961 -0.3902  0.5005
10704TIP3    H153603   3.046   5.424  10.669  1.3905  1.5451 -1.8724
10704TIP3    H253604   3.151   5.425  10.778  0.2555 -1.2372 -0.7089
10705TIP3   OH253605   5.092   4.881   0.538 -0.2818 -0.3226  0.3336
10705TIP3    H153606   5.049   4.800   0.508 -1.2917  0.7154 -1.0786
10705TIP3    H253607   5.146   4.908   0.464 -0.6899  0.8112  0.4391
10706TIP3   OH253608   4.143   1.684   1.391 -0.0082 -0.8103 -0.4187
10706TIP3    H153609   4.171   1.649   1.476  0.7237 -0.0059 -0.3233
10706TIP3    H253610   4.207   1.752   1.371  0.4187 -1.6733 -2.0897
10707TIP3   OH253611   4.933   2.690  16.804 -0.2121 -0.4685 -0.0490
10707TIP3    H153612   4.896   2.625  16.863  0.2889  0.0213  0.8081
10707TIP3    H253613   4.930   2.648  16.718 -0.5574 -1.3405  0.3796
10708TIP3   OH253614   1.206   4.678   0.216  0.0311  0.0446  0.2216
10708TIP3    H153615   1.204   4.593   0.172  0.3671  0.1459  0.0077
10708TIP3    H253616   1.117   4.690   0.249  0.2735 -0.9450  1.3088
10709TIP3   OH253617   6.364   1.019   3.287 -0.6579 -0.3378 -0.5473
10709TIP3    H153618   6.438   0.974   3.329 -1.8072 -1.6019  0.1628
10709TIP3    H253619   6.401   1.102   3.257  0.9923 -0.8344  0.0231
10710TIP3   OH253620   6.174   2.035  12.676  0.1825  0.3075  0.2544
10710TIP3    H153621   6.128   2.020  12.759 -0.1857 -0.8108 -0.1435
10710TIP3    H253622   6.267   2.031  12.699  0.1012 -2.1889  0.2565
10711TIP3   OH253623   3.851   6.490   3.439 -0.1417  0.4506  0.1906
10711TIP3    H153624   3.779   6.474   3.499 -0.4802  0.7134 -0.1450
10711TIP3    H253625   3.813   6.543   3.369 -0.1870 -1.3741 -1.2017
10712TIP3   OH253626   0.096   1.167   1.625 -0.0523  0.1162  0.8214
10712TIP3    H153627   0.035   1.120   1.682  0.1404 -1.9252 -0.6016
10712TIP3    H253628   0.182   1.138   1.654  0.1856  1.4046  1.4507
10713TIP3   OH253629   1.519   4.805  14.742  0.1531 -0.5267  0.2154
10713TIP3    H153630   1.467   4.869  14.693  0.6809 -1.6478 -1.8930
10713TIP3    H253631   1.511   4.724  14.690  1.9584 -1.3612  1.2068
10714TIP3   OH253632   5.327   3.700   3.940 -0.0638 -0.1108 -0.7627
10714TIP3    H153633   5.401   3.692   3.879  1.5757 -1.4985  1.3584
10714TIP3    H253634   5.324   3.616   3.985 -0.8884  1.0994  1.4883
10715TIP3   OH253635   5.435   2.750  12.290  0.4454 -0.0164  0.4835
10715TIP3    H153636   5.384   2.684  12.243  0.4755 -0.0368  0.4784
10715TIP3    H253637   5.371   2.814  12.320 -0.0759 -1.8925  3.6420
10716TIP3   OH253638   6.735   2.893  12.170  0.3185 -0.0850  0.5587
10716TIP3    H153639   6.782   2.822  12.127  0.2877 -0.2588  0.8122
10716TIP3    H253640   6.650   2.856  12.193  0.5632 -0.1838  1.3232
10717TIP3   OH253641   4.372   4.119   3.977 -0.1133  0.1778 -0.0124
10717TIP3    H153642   4.457   4.164   3.977 -0.2962  0.5628 -1.3203
10717TIP3    H253643   4.375   4.063   3.900 -0.2856 -1.3347  1.0602
10718TIP3   OH253644   1.115   1.096  11.863  0.0170  0.2256  0.3406
10718TIP3    H153645   1.101   1.009  11.824 -1.7386 -0.2765  1.9939
10718TIP3    H253646   1.047   1.103  11.930 -0.3062  3.1677 -0.2171
10719TIP3   OH253647   3.863   0.132   3.170 -0.5931 -0.3501  0.8800
10719TIP3    H153648   3.790   0.168   3.120  0.0998  0.9856  0.8005
10719TIP3    H253649   3.935   0.126   3.107  0.1470  0.8994  1.5709
10720TIP3   OH253650   3.782   5.876   1.384 -0.2331  0.0194  0.2163
10720TIP3    H153651   3.794   5.781   1.381  0.7283  0.1733 -1.2515
10720TIP3    H253652   3.707   5.889   1.441 -1.5175 -1.7378 -1.0208
10721TIP3   OH253653   4.164   5.181   0.213 -0.1945  0.7148  0.3493
10721TIP3    H153654   4.185   5.218   0.298  0.0335  0.5742  0.3541
10721TIP3    H253655   4.137   5.091   0.231 -3.4669  1.6701  0.6505
10722TIP3   OH253656   0.447   3.360   4.411  0.3158  0.2152  0.3195
10722TIP3    H153657   0.523   3.417   4.401  0.1359  0.2928 -0.6521
10722TIP3    H253658   0.377   3.418   4.440  1.1285 -0.2021  3.3363
10723TIP3   OH253659   5.885   1.232  15.467  0.1803  0.0539  0.6116
10723TIP3    H153660   5.829   1.299  15.428  1.5491  1.1219  0.4367
10723TIP3    H253661   5.828   1.185  15.527 -1.0759  0.6710 -0.0709
10724TIP3   OH253662   2.422   4.249   3.398 -0.2867  0.1189  0.0740
10724TIP3    H153663   2.332   4.259   3.366 -0.3213  0.4123  0.2611
10724TIP3    H253664   2.471   4.320   3.357  0.3256 -1.2669 -1.6753
10725TIP3   OH253665   2.325   1.562   3.120  0.3023  0.2380 -0.0437
10725TIP3    H153666   2.246   1.509   3.121  0.5937 -0.1852  0.9946
10725TIP3    H253667   2.337   1.591   3.210  2.2142 -1.0494  0.1522
10726TIP3   OH253668   4.968   2.788   0.625  0.5591  0.0325  0.0111
10726TIP3    H153669   4.958   2.693   0.631  1.4459 -0.0475  0.2853
10726TIP3    H253670   5.035   2.801   0.558 -0.5471  0.5255 -1.0306
10727TIP3   OH253671   4.762   5.930  13.001  0.0594  0.5056 -0.0473
10727TIP3    H153672   4.704   5.856  12.986 -1.1015  1.8892 -2.6929
10727TIP3    H253673   4.744   5.958  13.091  0.7237 -2.5353  1.0853
10728TIP3   OH253674   4.969   5.733  11.341 -0.1735  0.9860  0.2556
10728TIP3    H153675   4.874   5.738  11.336 -0.1732 -1.0524 -3.2393
10728TIP3    H253676   4.986   5.679  11.419 -1.9173  0.5073  0.3325
10729TIP3   OH253677   5.254   2.402   3.021  0.0487  0.6599 -0.6280
10729TIP3    H153678   5.220   2.327   2.972  0.1146  0.9771 -1.1658
10729TIP3    H253679   5.176   2.443   3.060  0.0208  0.2727 -0.2773
10730TIP3   OH253680   0.719   4.259   4.310 -0.0798 -0.2418  0.2434
10730TIP3    H153681   0.792   4.297   4.261  0.0747 -0.7722  0.0557
10730TIP3    H253682   0.641   4.303   4.275 -0.0301 -1.0840 -0.9559
10731TIP3   OH253683   0.875   4.112   5.340 -0.2779 -0.4930  0.2160
10731TIP3    H153684   0.779   4.120   5.344 -0.2173 -0.2633  1.6214
10731TIP3    H253685   0.892   4.021   5.362 -0.1742 -0.5427 -0.0735
10732TIP3   OH253686   5.792   4.181  16.955 -0.1985 -0.4340 -0.0248
10732TIP3    H153687   5.882   4.147  16.961 -0.0481  0.0601  0.6279
10732TIP3    H253688   5.802   4.268  16.919 -0.3223 -0.0023  0.9660
10733TIP3   OH253689   2.493   0.441   2.420  0.5031  0.4435 -0.3211
10733TIP3    H153690   2.488   0.534   2.398  1.0967  0.4442 -0.4611
10733TIP3    H253691   2.516   0.439   2.513  2.1680  0.4383 -0.7263
10734TIP3   OH253692   0.890   2.210  13.770  0.1310  0.1036 -0.3283
10734TIP3    H153693   0.971   2.170  13.800 -0.5129  0.8929  2.6584
10734TIP3    H253694   0.821   2.151  13.801 -0.6418  1.7238  1.0800
10735TIP3   OH253695   0.120   6.808   6.717  0.1068 -0.0757 -0.1191
10735TIP3    H153696   0.045   6.810   6.658  1.1123  0.0941 -1.4171
10735TIP3    H253697   0.158   6.895   6.711 -0.1103  0.1364  1.2533
10736TIP3   OH253698   3.902   5.078  13.644  0.2338 -0.1379  0.5542
10736TIP3    H153699   3.818   5.123  13.635  1.4985  1.9543 -1.1981
10736TIP3    H253700   3.939   5.113  13.725 -0.2626 -0.5738  0.9795
10737TIP3   OH253701   2.640   1.841  13.853  0.4195  0.4234  0.6056
10737TIP3    H153702   2.554   1.824  13.891  0.5960  0.7809  1.1635
10737TIP3    H253703   2.672   1.755  13.827 -0.9202  0.4911 -1.3648
10738TIP3   OH253704   3.636   5.894   1.938 -0.1848 -0.4781 -0.0701
10738TIP3    H153705   3.650   5.837   2.014 -0.1443 -0.6673 -0.2205
10738TIP3    H253706   3.541   5.894   1.925 -0.1339 -1.0001 -0.4478
10739TIP3   OH253707   6.715   4.106  16.349  0.2546  0.1480 -0.5983
10739TIP3    H153708   6.717   4.021  16.393  0.0450  0.4406 -0.0251
10739TIP3    H253709   6.708   4.170  16.420  0.2620  0.6391 -1.0356
10740TIP3   OH253710   1.675   5.701  14.776 -0.0591 -0.0072  0.5020
10740TIP3    H153711   1.664   5.699  14.681  3.2729 -1.4466  0.0580
10740TIP3    H253712   1.620   5.774  14.806  0.5250  1.8477 -2.7644
10741TIP3   OH253713   0.779   6.124  13.471 -0.8981 -0.3912 -0.2636
10741TIP3    H153714   0.700   6.103  13.522 -0.0803  0.5155  1.4236
10741TIP3    H253715   0.836   6.048  13.484 -0.7612 -0.2395  0.0213
10742TIP3   OH253716   3.412   1.806   0.096  0.2993  0.0626 -0.4127
10742TIP3    H153717   3.439   1.825   0.186 -1.2415 -1.0370  0.3055
10742TIP3    H253718   3.358   1.881   0.071 -0.5185 -0.3326  0.1361
10743TIP3   OH253719   0.438   5.697  11.094  0.0325 -0.1478  0.2528
10743TIP3    H153720   0.530   5.694  11.066 -0.1094 -2.5613 -0.0242
10743TIP3    H253721   0.391   5.731  11.018  0.4297 -0.9220 -0.3448
10744TIP3   OH253722   0.843   5.474   0.451 -0.2103  0.1801  0.6701
10744TIP3    H153723   0.893   5.536   0.399 -0.3576 -0.5312 -0.3421
10744TIP3    H253724   0.908   5.410   0.481 -0.4321 -0.5043 -0.2872
10745TIP3   OH253725   0.897   3.381   4.422  0.1266 -0.0220  0.6395
10745TIP3    H153726   0.879   3.365   4.329  2.5220  1.1385 -0.0515
10745TIP3    H253727   0.953   3.308   4.449 -1.9760 -1.3023  1.6622
10746TIP3   OH253728   5.313   1.005   1.186 -0.0762 -0.2696 -0.1821
10746TIP3    H153729   5.250   0.947   1.144 -0.7203 -0.5358  1.1431
10746TIP3    H253730   5.260   1.073   1.227  0.3262 -1.7713  2.9295
10747TIP3   OH253731   0.708   3.307  11.254  0.0788  0.0587 -0.5332
10747TIP3    H153732   0.801   3.292  11.234 -0.1896 -1.1467 -0.9117
10747TIP3    H253733   0.707   3.392  11.298  1.4666 -0.2987  0.2440
10748TIP3   OH253734   0.586   3.669  15.622 -0.1114  0.4038  0.0865
10748TIP3    H153735   0.559   3.650  15.712  0.0747  0.2587  0.1106
10748TIP3    H253736   0.506   3.655  15.571  0.0645 -0.6399  0.0796
10749TIP3   OH253737   5.194   6.187   3.006 -0.2130 -0.3754 -0.2041
10749TIP3    H153738   5.200   6.103   3.052  0.9396  0.1432  0.6079
10749TIP3    H253739   5.285   6.216   2.996 -0.6386  1.1293  0.1844
10750TIP3   OH253740   1.205   1.491   3.822  0.1818 -0.0302  0.3529
10750TIP3    H153741   1.284   1.452   3.785  2.2986  3.7411  0.6908
10750TIP3    H253742   1.209   1.469   3.915 -0.6664 -2.2292 -0.1121
10751TIP3   OH253743   2.287   1.990   3.889 -0.1997 -0.5427  0.0884
10751TIP3    H153744   2.365   1.985   3.833 -0.4167 -0.5418 -0.2124
10751TIP3    H253745   2.218   1.950   3.837 -0.4164 -0.4893  0.3361
10752TIP3   OH253746   2.147   4.973   1.729 -0.1738  0.2360  0.0220
10752TIP3    H153747   2.209   4.952   1.799 -0.8188 -2.9343 -0.2921
10752TIP3    H253748   2.127   4.889   1.689 -3.0903  1.4694 -1.2212
10753TIP3   OH253749   0.242   1.176  13.953  0.4569  0.3538 -0.6663
10753TIP3    H153750   0.283   1.249  14.000 -0.0377 -1.6608  3.0940
10753TIP3    H253751   0.313   1.114  13.937  0.2986  0.2629 -1.0232
10754TIP3   OH253752   6.253   3.602  10.909 -0.3482 -0.1986 -0.4958
10754TIP3    H153753   6.312   3.555  10.850  0.6639  2.1608 -1.4296
10754TIP3    H253754   6.210   3.534  10.960  1.0611 -2.1134 -1.8218
10755TIP3   OH253755   6.409   0.685   3.148 -0.0481 -0.7202 -0.2890
10755TIP3    H153756   6.361   0.728   3.219 -0.5691  0.7892 -1.5198
10755TIP3    H253757   6.345   0.626   3.109 -0.1914 -0.4996 -0.3924
10756TIP3   OH253758   3.946   3.647   1.544  0.2402  0.1548  0.5658
10756TIP3    H153759   3.885   3.582   1.580  0.5967 -0.4360  0.1108
10756TIP3    H253760   3.900   3.682   1.467  1.0676 -1.3257 -0.6154
10757TIP3   OH253761   1.031   2.690   2.930  0.2708  0.4547 -0.2976
10757TIP3    H153762   1.062   2.779   2.941  0.8450  0.4512 -1.7430
10757TIP3    H253763   1.009   2.683   2.837  0.7898 -1.0791 -0.3244
10758TIP3   OH253764   6.214   4.894  14.486  0.2165  0.2097 -0.7616
10758TIP3    H153765   6.147   4.948  14.529  0.3908 -0.4501  0.3464
10758TIP3    H253766   6.165   4.844  14.420 -0.2582  0.2924 -0.4734
10759TIP3   OH253767   3.770   4.577   0.157  0.0980 -0.1719  0.3209
10759TIP3    H153768   3.831   4.503   0.152 -1.1373 -1.1234 -1.1188
10759TIP3    H253769   3.695   4.542   0.204 -0.4569  0.1953 -0.2953
10760TIP3   OH253770   3.429   0.859  10.603  0.1667  0.1431 -0.3918
10760TIP3    H153771   3.472   0.790  10.553 -0.4407 -0.6811  0.1868
10760TIP3    H253772   3.430   0.936  10.546  1.0318 -0.2865 -0.9673
10761TIP3   OH253773   3.545   3.923   6.027 -0.0651 -0.6444 -0.0516
10761TIP3    H153774   3.521   3.940   6.118  1.4013 -2.6648  0.7484
10761TIP3    H253775   3.462   3.917   5.980 -0.8022  2.8169  0.6384
10762TIP3   OH253776   6.037   5.844  14.272 -0.0281 -0.2159 -0.0780
10762TIP3    H153777   6.014   5.839  14.365  1.6733  1.6331  0.4930
10762TIP3    H253778   6.125   5.804  14.268  0.1851  0.3312 -0.7740
10763TIP3   OH253779   1.250   6.232   0.847 -0.4683 -0.4204 -0.0544
10763TIP3    H153780   1.324   6.237   0.906  0.0095 -0.8834 -0.6100
10763TIP3    H253781   1.283   6.264   0.763 -0.9105 -0.5694 -0.2911
10764TIP3   OH253782   5.508   2.772   3.443 -0.2353 -0.3726  0.1386
10764TIP3    H153783   5.501   2.690   3.393  0.7666 -0.5420  0.2647
10764TIP3    H253784   5.563   2.749   3.518  0.9943  0.6865 -0.4238
10765TIP3   OH253785   6.067   4.720   3.679 -0.1779  0.3652 -0.3901
10765TIP3    H153786   6.091   4.797   3.627 -1.0365  1.1727  0.4025
10765TIP3    H253787   6.128   4.652   3.650 -0.3414  0.9381 -2.1046
10766TIP3   OH253788   5.065   1.083   3.159 -0.5849  0.6351 -0.1000
10766TIP3    H153789   5.131   1.152   3.161  0.5368 -0.4533  0.6668
10766TIP3    H253790   5.002   1.112   3.092  1.0386  1.3261 -1.3501
10767TIP3   OH253791   5.216   0.538  14.745 -0.2850 -0.0151 -0.9003
10767TIP3    H153792   5.143   0.506  14.799  2.7989 -0.5877  3.1410
10767TIP3    H253793   5.202   0.632  14.739 -1.2158 -0.0798  0.0132
10768TIP3   OH253794   4.223   4.959   3.254 -0.5459 -0.4262  0.0645
10768TIP3    H153795   4.195   5.045   3.285 -1.4754 -0.2588 -1.1783
10768TIP3    H253796   4.147   4.925   3.207  0.6845 -0.7994 -1.7228
10769TIP3   OH253797   5.534   3.834   1.318  0.6057  0.3120  0.1494
10769TIP3    H153798   5.497   3.823   1.405  0.7823 -2.7197 -0.0879
10769TIP3    H253799   5.520   3.926   1.296  0.5055  1.0783  3.3256
10770TIP3   OH253800   2.481   0.649  15.784 -0.0038  0.4660  0.0746
10770TIP3    H153801   2.398   0.632  15.828 -1.6699  2.4222 -2.1282
10770TIP3    H253802   2.498   0.742  15.802  0.5388  0.6439 -1.3092
10771TIP3   OH253803   6.590   2.267  16.518 -0.1472 -0.5781 -0.1542
10771TIP3    H153804   6.587   2.230  16.430  0.5305 -0.1474 -0.3666
10771TIP3    H253805   6.524   2.337  16.517 -0.5154 -0.9271 -0.1561
10772TIP3   OH253806   3.541   0.608  15.868 -0.0766 -0.3516  0.2332
10772TIP3    H153807   3.520   0.700  15.853 -1.6057 -0.3294  2.2700
10772TIP3    H253808   3.635   0.607  15.887 -0.2466  0.9331  1.1814
10773TIP3   OH253809   2.062   0.411   0.135 -0.1927  0.3123  0.5926
10773TIP3    H153810   2.144   0.451   0.164  1.6418 -1.3497 -2.0939
10773TIP3    H253811   1.994   0.473   0.162  2.1529  2.8987  0.7774
10774TIP3   OH253812   5.486   5.024   1.360  0.3196 -0.4979  0.1335
10774TIP3    H153813   5.515   5.046   1.449  1.2814  0.1317 -0.3220
10774TIP3    H253814   5.565   5.034   1.307 -0.1578 -1.2629 -0.7315
10775TIP3   OH253815   6.709   3.575   1.507 -0.0975 -0.4404  0.5767
10775TIP3    H153816   6.765   3.650   1.527  0.2038 -0.1275 -1.2999
10775TIP3    H253817   6.635   3.582   1.566  1.0460  0.0666  1.9644
10776TIP3   OH253818   2.608   0.977   3.380 -0.0540 -0.2885 -0.1794
10776TIP3    H153819   2.587   0.891   3.415  0.8155 -0.5686 -0.3267
10776TIP3    H253820   2.559   0.983   3.298 -0.2741 -0.5620 -0.0669
10777TIP3   OH253821   0.833   3.258  13.463 -0.0030  0.3614 -0.6516
10777TIP3    H153822   0.863   3.180  13.510 -0.6889 -0.5061 -1.6374
10777TIP3    H253823   0.822   3.324  13.532 -1.9469 -1.1614  0.5667
10778TIP3   OH253824   3.997   1.400  13.065 -0.7310 -1.2831  0.1021
10778TIP3    H153825   3.968   1.316  13.030  0.9788 -2.1416  0.6681
10778TIP3    H253826   4.002   1.386  13.160  0.2981 -0.7908  0.1284
10779TIP3   OH253827   3.350   3.614   4.588 -0.3608  0.1933 -0.3235
10779TIP3    H153828   3.423   3.589   4.645  0.5324  1.4650 -0.8747
10779TIP3    H253829   3.375   3.700   4.554 -2.9584  1.4999  0.8995
10780TIP3   OH253830   2.251   4.603   1.473 -0.3539 -0.3754 -0.3863
10780TIP3    H153831   2.241   4.518   1.431  3.8890  0.0176 -2.4370
10780TIP3    H253832   2.231   4.666   1.404 -0.8213  0.3115  0.3636
10781TIP3   OH253833   5.549   4.379  12.498  0.3609 -0.4328 -0.0249
10781TIP3    H153834   5.579   4.368  12.588  0.6294 -1.9931 -0.2870
10781TIP3    H253835   5.469   4.432  12.506  1.2031  0.7218  0.9792
10782TIP3   OH253836   0.471   5.371  12.301 -0.2068 -0.6671  0.6540
10782TIP3    H153837   0.392   5.355  12.250 -0.3505 -2.5579  1.4355
10782TIP3    H253838   0.449   5.446  12.357 -0.6807  0.2081 -0.6723
10783TIP3   OH253839   1.446   0.189   6.422  0.2181 -1.0481 -0.1936
10783TIP3    H153840   1.396   0.265   6.452  0.2081 -1.3236  0.4848
10783TIP3    H253841   1.520   0.226   6.374  1.6138 -0.5599  2.2882
10784TIP3   OH253842   2.712   3.526   2.402 -0.0835 -0.3353  0.4809
10784TIP3    H153843   2.646   3.538   2.335  0.2492 -2.0182 -0.1657
10784TIP3    H253844   2.794   3.553   2.360 -0.2599  1.2501  1.1145
10785TIP3   OH253845   1.138   2.403   3.036  0.2015 -0.3189  0.2088
10785TIP3    H153846   1.055   2.433   2.999  0.6024  1.5505  0.8048
10785TIP3    H253847   1.186   2.367   2.962  0.2753  1.7591 -0.7790
10786TIP3   OH253848   0.775   4.300  14.414  0.4496 -0.4487  0.3266
10786TIP3    H153849   0.851   4.347  14.378  0.4198  0.1744  1.0535
10786TIP3    H253850   0.795   4.290  14.508 -1.6793  2.4074  1.1566
10787TIP3   OH253851   3.531   4.655  16.352  0.4093  0.1308  0.7667
10787TIP3    H153852   3.436   4.654  16.344  0.4786 -1.1851  0.1542
10787TIP3    H253853   3.547   4.659  16.447 -0.2361 -0.9950  0.9223
10788TIP3   OH253854   5.651   6.226  12.530 -0.1891 -0.3540 -0.6825
10788TIP3    H153855   5.594   6.155  12.560  0.1169  0.6342  2.4236
10788TIP3    H253856   5.598   6.276  12.468 -1.7557 -1.0210  0.1070
10789TIP3   OH253857   0.834   2.401  10.890 -0.0172  0.0229 -0.3057
10789TIP3    H153858   0.806   2.322  10.844 -1.1088  0.5353 -0.5669
10789TIP3    H253859   0.800   2.473  10.836 -0.9588  0.6433  1.0682
10790TIP3   OH253860   1.778   5.160  14.761 -0.7151  0.2033  0.2243
10790TIP3    H153861   1.741   5.216  14.692  0.0011  0.5301  0.1001
10790TIP3    H253862   1.823   5.090  14.715 -0.7568  0.0800  0.3695
10791TIP3   OH253863   3.540   0.769  11.099  0.3627  0.4833 -0.4248
10791TIP3    H153864   3.497   0.834  11.155 -0.1589 -0.6245  0.4754
10791TIP3    H253865   3.473   0.704  11.082  1.4201 -0.7963  0.2339
10792TIP3   OH253866   0.387   3.086   0.725 -0.0355 -0.1984  1.0255
10792TIP3    H153867   0.385   3.134   0.642  0.8231 -2.1821 -0.1808
10792TIP3    H253868   0.304   3.106   0.767 -0.7527  0.2958 -0.6111
10793TIP3   OH253869   1.576   0.437  16.486  0.2082 -0.6985 -0.4782
10793TIP3    H153870   1.641   0.459  16.552 -0.3367  3.0076 -1.0831
10793TIP3    H253871   1.554   0.346  16.504  1.6134 -0.4109  3.1203
10794TIP3   OH253872   3.913   5.174  14.620  0.0142  0.3811 -0.2544
10794TIP3    H153873   3.988   5.139  14.669  0.3967 -1.1658 -1.9001
10794TIP3    H253874   3.927   5.269  14.621  1.6811  0.1621 -0.0071
10795TIP3   OH253875   4.881   5.636  14.336  0.1389  0.0852  0.0487
10795TIP3    H153876   4.822   5.562  14.354  1.6865 -1.5204 -1.3359
10795TIP3    H253877   4.878   5.689  14.416 -2.9548 -0.1042  0.1085
10796TIP3   OH253878   6.200   4.307  12.316  0.6318 -0.2404  0.1958
10796TIP3    H153879   6.153   4.356  12.384  1.2182 -2.1688  2.0826
10796TIP3    H253880   6.147   4.228  12.303  0.8671 -0.1871 -1.1482
10797TIP3   OH253881   0.108   5.635   5.674 -0.3129  0.4409 -0.8364
10797TIP3    H153882   0.138   5.576   5.743 -2.0185 -1.0562 -1.3639
10797TIP3    H253883   0.154   5.717   5.693 -1.1611  0.2564  2.4053
10798TIP3   OH253884   3.326   6.058   1.571  0.2190 -0.3489  0.0716
10798TIP3    H153885   3.260   6.058   1.640 -0.3750  0.5590 -0.4777
10798TIP3    H253886   3.333   5.967   1.543 -1.8153 -0.2513 -0.8137
10799TIP3   OH253887   4.971   2.955   6.508 -0.3722  0.5078 -0.6558
10799TIP3    H153888   4.904   2.963   6.440  0.0420  1.1609 -0.9914
10799TIP3    H253889   4.938   3.008   6.581 -1.4113 -1.1925  0.1399
10800TIP3   OH253890   0.711   0.973   2.805  0.1084 -0.2004  0.1639
10800TIP3    H153891   0.757   0.917   2.868  1.0738 -0.6777 -0.9456
10800TIP3    H253892   0.632   0.923   2.783 -0.8231  0.4736  1.8186
10801TIP3   OH253893   0.304   1.696   0.459 -0.3190  0.0227 -0.0283
10801TIP3    H153894   0.351   1.643   0.523 -1.4377 -0.2226  0.5831
10801TIP3    H253895   0.372   1.721   0.396  0.8084  0.3611  1.2926
10802TIP3   OH253896   0.685   4.183  17.194 -0.1170 -0.2189 -0.1288
10802TIP3    H153897   0.653   4.131  17.267  0.6239 -0.2962  0.1479
10802TIP3    H253898   0.765   4.138  17.166 -0.5830 -0.3945 -1.2203
10803TIP3   OH253899   1.683   0.107  15.598  0.1734  0.1522  0.6064
10803TIP3    H153900   1.620   0.037  15.611  1.4009 -0.6563  2.4738
10803TIP3    H253901   1.663   0.171  15.667  1.2854 -0.0733  1.1674
10804TIP3   OH253902   5.852   2.214   0.156  0.4762  0.1369  0.2597
10804TIP3    H153903   5.855   2.132   0.205  0.6404 -0.2181 -0.3479
10804TIP3    H253904   5.939   2.252   0.167  1.1256 -0.8577 -1.3235
10805TIP3   OH253905   5.669   5.589  12.702 -0.5795  0.5602  0.1231
10805TIP3    H153906   5.730   5.653  12.737  0.1601 -0.1155  0.1039
10805TIP3    H253907   5.664   5.608  12.608 -1.2416  1.2940  0.2984
10806TIP3   OH253908   2.579   6.097   2.619 -0.9082  0.9897  0.0483
10806TIP3    H153909   2.539   6.159   2.557 -1.0080  2.0404  1.1452
10806TIP3    H253910   2.666   6.135   2.636 -0.9483  0.7926  0.6783
10807TIP3   OH253911   2.980   3.957   1.324 -0.3369  0.2185 -0.1750
10807TIP3    H153912   2.914   3.902   1.281 -0.0122  0.2559 -0.7240
10807TIP3    H253913   3.062   3.910   1.312 -0.5477 -0.8284  2.2592
10808TIP3   OH253914   1.577   1.768  15.361 -0.0685  0.0335  0.4521
10808TIP3    H153915   1.512   1.827  15.323  0.1528 -0.0755 -0.1021
10808TIP3    H253916   1.573   1.786  15.455  0.1381  1.0808  0.2711
10809TIP3   OH253917   5.193   6.099  12.174 -0.3890 -0.1491 -0.1470
10809TIP3    H153918   5.123   6.164  12.173 -0.9135 -0.7130 -0.2179
10809TIP3    H253919   5.257   6.132  12.110  0.0878  1.0953  0.9531
10810TIP3   OH253920   2.885   5.244   0.948  1.0149 -0.3312 -0.8589
10810TIP3    H153921   2.876   5.337   0.969  0.3059 -0.6440  0.3124
10810TIP3    H253922   2.964   5.239   0.895  1.0165  0.9520 -1.0042
10811TIP3   OH253923   2.878   2.278  13.233 -0.2389 -0.1754  0.1499
10811TIP3    H153924   2.868   2.298  13.326 -1.7863 -1.9121  0.3818
10811TIP3    H253925   2.971   2.259  13.223  0.2704  1.7626  0.9714
10812TIP3   OH253926   2.824   6.136   5.698  0.5936  0.5332  0.3026
10812TIP3    H153927   2.765   6.107   5.768  0.4705  0.6430  0.2460
10812TIP3    H253928   2.892   6.186   5.742 -0.9626  2.9346  0.0790
10813TIP3   OH253929   2.402   1.126  15.394  0.4891  0.1461  0.1675
10813TIP3    H153930   2.326   1.084  15.354  0.6742 -0.6263  0.6122
10813TIP3    H253931   2.380   1.219  15.396 -0.0562  0.0365 -0.5470
10814TIP3   OH253932   3.319   6.059   2.129  0.5198 -0.7582 -0.0526
10814TIP3    H153933   3.352   6.002   2.060 -0.7212 -1.6735  0.0899
10814TIP3    H253934   3.232   6.024   2.150  0.3538  0.2817  1.0770
10815TIP3   OH253935   2.479   5.667  14.748  0.3077  0.4884 -0.1065
10815TIP3    H153936   2.545   5.729  14.779  0.7770 -0.2689  0.4398
10815TIP3    H253937   2.526   5.613  14.684 -0.2271  0.9926 -0.9432
10816TIP3   OH253938   3.400   5.770   2.876  0.2285 -0.3465  0.5214
10816TIP3    H153939   3.321   5.754   2.928 -0.6743 -0.6220 -0.9182
10816TIP3    H253940   3.392   5.861   2.848  0.9858 -0.0334  1.3158
10817TIP3   OH253941   5.260   5.322   1.201  0.2671  0.1907  0.1833
10817TIP3    H153942   5.246   5.306   1.108  2.1945  1.1796 -0.3024
10817TIP3    H253943   5.252   5.417   1.210 -0.5566  0.0359  1.1431
10818TIP3   OH253944   0.091   6.081  15.362 -0.2976 -0.0621  0.5032
10818TIP3    H153945   0.018   6.088  15.301  0.4755  1.1087 -0.3330
10818TIP3    H253946   0.169   6.080  15.306  0.3803  0.0494  1.4285
10819TIP3   OH253947   5.089   3.684  10.863 -0.4648 -0.2479  0.3410
10819TIP3    H153948   5.169   3.704  10.912  0.7532 -2.0568 -0.8383
10819TIP3    H253949   5.031   3.757  10.881  2.4049  2.4366 -0.8378
10820TIP3   OH253950   1.854   3.724  11.693  0.6397 -0.0290 -0.4065
10820TIP3    H153951   1.823   3.780  11.764 -0.7233 -1.2349 -0.0305
10820TIP3    H253952   1.945   3.704  11.716 -0.1905 -1.4767  1.6962
10821TIP3   OH253953   3.699   3.389   4.378  0.0334 -0.1262  0.2969
10821TIP3    H153954   3.750   3.463   4.411 -0.6915  1.3527 -1.7809
10821TIP3    H253955   3.757   3.347   4.314 -0.5162  0.2076 -0.4229
10822TIP3   OH253956   6.014   2.932  12.397 -0.8488 -0.2591 -0.1739
10822TIP3    H153957   6.010   2.902  12.488 -0.3276  1.0448  0.2827
10822TIP3    H253958   5.977   3.020  12.399 -0.1757  0.0520 -1.1058
10823TIP3   OH253959   3.032   1.548  14.978 -0.3318  0.1103 -0.1802
10823TIP3    H153960   3.067   1.598  14.904 -2.2268  0.9747 -0.5070
10823TIP3    H253961   2.969   1.488  14.939  0.0902 -0.8097  0.5192
10824TIP3   OH253962   5.418   6.557  11.038  0.9211  0.3040  0.1377
10824TIP3    H153963   5.455   6.478  10.998  0.2055  0.6605 -1.2834
10824TIP3    H253964   5.492   6.616  11.049  1.6205 -0.9065  2.0726
10825TIP3   OH253965   0.853   5.253  14.219 -0.4670  0.6912 -0.2025
10825TIP3    H153966   0.843   5.205  14.301 -2.3193  1.9712  0.3665
10825TIP3    H253967   0.945   5.241  14.195  0.0720  0.1675  1.9891
10826TIP3   OH253968   1.983   5.160  17.056 -0.1989 -0.6983  0.3234
10826TIP3    H153969   2.062   5.136  17.007 -0.0225 -0.0776  0.2928
10826TIP3    H253970   2.002   5.137  17.147  1.7603  3.4591  1.0726
10827TIP3   OH253971   0.706   2.298  11.367 -0.0321  0.0101 -0.4788
10827TIP3    H153972   0.720   2.328  11.277  0.7131 -0.2484 -0.4531
10827TIP3    H253973   0.766   2.223  11.377  0.5261  0.5677  0.4976
10828TIP3   OH253974   2.141   5.509  15.296  0.3959  0.3753 -0.5769
10828TIP3    H153975   2.210   5.573  15.279  0.0285  0.9360  0.0342
10828TIP3    H253976   2.077   5.556  15.350 -0.1624 -0.3253 -0.6249
10829TIP3   OH253977   3.967   3.786  15.979  0.4807  0.0450 -0.0470
10829TIP3    H153978   4.015   3.763  16.058 -0.7596 -1.5502  0.2948
10829TIP3    H253979   3.896   3.721  15.975 -0.6352  1.3100 -1.4071
10830TIP3   OH253980   1.363   3.376  16.891 -0.0480  0.3343  0.2675
10830TIP3    H153981   1.355   3.372  16.795  2.6187  1.7279 -0.0609
10830TIP3    H253982   1.370   3.469  16.910 -1.4148  0.1188  1.9354
10831TIP3   OH253983   5.141   2.417   4.800 -0.0307 -0.4561 -0.1768
10831TIP3    H153984   5.072   2.380   4.855  0.1762  0.5896  0.8258
10831TIP3    H253985   5.195   2.342   4.776 -0.8940 -1.1241 -0.0663
10832TIP3   OH253986   6.183   5.544  16.603  0.4574 -0.5918 -0.6581
10832TIP3    H153987   6.138   5.460  16.610  0.3912 -0.3993  1.5071
10832TIP3    H253988   6.255   5.528  16.542 -0.6008 -1.7352 -1.6446
10833TIP3   OH253989   0.958   5.233   5.261 -0.2339 -0.3120  0.0449
10833TIP3    H153990   0.987   5.254   5.350 -3.0921 -0.6256  1.1037
10833TIP3    H253991   0.974   5.314   5.212  3.0277 -0.6936  0.3285
10834TIP3   OH253992   1.144   4.853   3.101  0.1494  0.1627  0.4980
10834TIP3    H153993   1.132   4.791   3.030 -2.1227  2.6520 -1.4176
10834TIP3    H253994   1.134   4.801   3.181 -1.9368 -1.9190 -1.0499
10835TIP3   OH253995   1.880   2.479  15.496 -0.1432 -0.5201 -0.0714
10835TIP3    H153996   1.844   2.423  15.427 -0.3599 -0.2962 -0.1421
10835TIP3    H253997   1.938   2.539  15.450  0.9811 -1.4192  0.1518
10836TIP3   OH253998   1.130   5.116   5.065 -0.0825  0.8264 -0.3871
10836TIP3    H153999   1.044   5.093   5.028 -0.5683  0.8060  0.7387
10836TIP3    H254000   1.110   5.149   5.153  0.9720  1.8252 -0.5099
10837TIP3   OH254001   1.338   4.636   3.659  0.1368 -0.1805 -0.1632
10837TIP3    H154002   1.283   4.560   3.675  2.9322 -1.7994  2.1772
10837TIP3    H254003   1.390   4.613   3.582 -0.8055  0.4383 -1.0022
10838TIP3   OH254004   2.906   6.734  16.129 -0.1107 -0.2756 -0.0196
10838TIP3    H154005   2.861   6.701  16.051  0.2949 -0.0735 -0.3494
10838TIP3    H254006   2.837   6.775  16.181 -0.4419 -0.7170 -0.1077
10839TIP3   OH254007   2.097   3.256   3.355 -0.3993  0.2569  0.5052
10839TIP3    H154008   2.132   3.224   3.272  0.3172  2.6864 -0.1637
10839TIP3    H254009   2.174   3.276   3.408 -0.8477 -0.3954  1.4250
10840TIP3   OH254010   3.279   3.591  11.733 -0.2697 -0.0577  0.6703
10840TIP3    H154011   3.341   3.537  11.683  1.1012  1.2288  0.9362
10840TIP3    H254012   3.216   3.622  11.668  0.2728 -0.1146  0.1082
10841TIP3   OH254013   3.118   3.318  16.152 -0.2178 -0.0227  0.5265
10841TIP3    H154014   3.101   3.265  16.230 -0.9783 -0.7578 -0.1292
10841TIP3    H254015   3.032   3.354  16.128  0.1267  0.7286  0.4095
10842TIP3   OH254016   5.116   3.434  11.031  0.3873  0.1315  0.0709
10842TIP3    H154017   5.089   3.511  10.982  2.1645  1.5493  1.2406
10842TIP3    H254018   5.192   3.400  10.982  1.0726  0.5316  0.8373
10843TIP3   OH254019   4.975   3.924   0.923  0.3579 -0.7273  0.5365
10843TIP3    H154020   5.029   3.893   0.996  0.4863 -1.4260  0.1534
10843TIP3    H254021   4.897   3.868   0.926  0.9833 -1.6834 -0.6925
10844TIP3   OH254022   2.195   0.266  10.899 -0.2102  0.6708  0.5426
10844TIP3    H154023   2.225   0.320  10.972  0.8220 -0.9442  1.3499
10844TIP3    H254024   2.120   0.217  10.934 -1.0845  1.4914 -0.1550
10845TIP3   OH254025   3.180   1.694  14.786 -0.4035  0.6891 -0.6442
10845TIP3    H154026   3.181   1.787  14.806 -1.1740  0.5535  0.0292
10845TIP3    H254027   3.268   1.664  14.807  0.1183  1.4393 -1.7055
10846TIP3   OH254028   1.866   5.425   5.271 -0.2712  0.5525  0.2937
10846TIP3    H154029   1.883   5.475   5.191  2.0487  1.1482  1.1071
10846TIP3    H254030   1.828   5.489   5.331 -0.6215  0.4727  0.1555
10847TIP3   OH254031   1.529   0.619   4.996 -0.0677 -0.2682 -0.9439
10847TIP3    H154032   1.531   0.688   5.063 -2.2977 -0.3398 -0.7586
10847TIP3    H254033   1.619   0.586   4.993  0.2101  0.1312  1.6007
10848TIP3   OH254034   4.533   1.672   6.340  0.2353 -0.0345 -0.2945
10848TIP3    H154035   4.568   1.605   6.282  0.4499 -0.7907  0.6957
10848TIP3    H254036   4.608   1.728   6.361 -0.0489  0.8349 -1.5264
10849TIP3   OH254037   2.552   3.141   4.060  0.0241  0.6432 -0.1043
10849TIP3    H154038   2.638   3.166   4.026  0.5282 -1.3371 -0.3672
10849TIP3    H254039   2.521   3.073   3.999 -1.3755  0.7721  0.4433
10850TIP3   OH254040   4.036   4.531   3.615  0.3194  0.1583 -0.1018
10850TIP3    H154041   4.007   4.439   3.613  1.2766 -0.1342 -0.6991
10850TIP3    H254042   4.119   4.528   3.662  1.4540  0.3990 -2.0412
10851TIP3   OH254043   4.944   4.199  14.787 -0.0042 -0.2671  0.0581
10851TIP3    H154044   4.875   4.142  14.822 -1.2151  1.1700  0.0731
10851TIP3    H254045   4.921   4.287  14.818 -0.5793  0.9127 -3.4902
10852TIP3   OH254046   3.957   1.505  12.378 -0.0481  0.7989 -0.2967
10852TIP3    H154047   3.998   1.576  12.427  0.7905  0.3279 -0.3155
10852TIP3    H254048   3.975   1.526  12.286 -0.8731  1.2156 -0.3728
10853TIP3   OH254049   3.649   1.166  12.865 -0.4889 -0.2719  0.4826
10853TIP3    H154050   3.575   1.175  12.805 -0.9136 -0.5800  0.9573
10853TIP3    H254051   3.632   1.229  12.935 -1.4534 -1.8651  1.7476
10854TIP3   OH254052   3.833   1.616   1.156 -0.3312  0.2866  0.4135
10854TIP3    H154053   3.770   1.654   1.217 -0.4444 -0.3872  0.7160
10854TIP3    H254054   3.915   1.662   1.174 -0.2236 -0.3153  1.4686
10855TIP3   OH254055   1.640   0.029  16.234 -0.3807  0.1528  0.0069
10855TIP3    H154056   1.612   0.055  16.146  2.1790  2.3132 -0.2240
10855TIP3    H254057   1.581   0.074  16.293 -2.0921 -1.2762 -0.5596
10856TIP3   OH254058   1.285   5.997  12.070  0.0216  0.0086  0.0547
10856TIP3    H154059   1.263   6.052  12.145  1.0835 -0.8870  1.0261
10856TIP3    H254060   1.217   6.017  12.006 -1.3000  0.2775  1.5029
10857TIP3   OH254061   5.978   5.228   4.421 -0.3942  0.4799 -0.4907
10857TIP3    H154062   6.065   5.264   4.439 -0.1868 -0.1103 -0.3047
10857TIP3    H254063   5.964   5.243   4.328 -0.6966  1.8774 -0.2287
10858TIP3   OH254064   2.854   0.596  16.337 -0.3934  0.1083  0.6258
10858TIP3    H154065   2.804   0.676  16.323  0.7654  0.9514  1.1344
10858TIP3    H254066   2.939   0.613  16.295 -0.0023 -0.7010  1.0680
10859TIP3   OH254067   1.973   1.310  16.413  0.5719  0.1016  0.3748
10859TIP3    H154068   1.949   1.362  16.337 -0.0988  0.3499  0.7569
10859TIP3    H254069   1.915   1.234  16.410  1.6355 -0.7031 -0.2581
10860TIP3   OH254070   3.439   6.653  11.261  0.5349  0.2706 -0.4513
10860TIP3    H154071   3.440   6.564  11.225  0.4719  0.8594 -1.9327
10860TIP3    H254072   3.408   6.707  11.189  0.4248  1.4792  0.4991
10861TIP3   OH254073   1.824   6.632  15.886 -0.9461 -0.6624  0.1205
10861TIP3    H154074   1.839   6.643  15.792  2.7102  0.9751  0.8042
10861TIP3    H254075   1.783   6.714  15.914 -1.5844 -0.9566  0.0608
10862TIP3   OH254076   1.622   2.467   3.897 -0.4851  0.0120  0.5689
10862TIP3    H154077   1.673   2.487   3.976  0.1382  1.3263 -0.1509
10862TIP3    H254078   1.585   2.381   3.914  0.1101  0.0351  2.0679
10863TIP3   OH254079   5.413   1.915   0.194 -0.5387 -0.2678  0.0773
10863TIP3    H154080   5.432   1.848   0.259 -1.7154  0.5998  1.3562
10863TIP3    H254081   5.342   1.878   0.142 -0.0425 -0.6999 -0.2894
10864TIP3   OH254082   0.821   1.624  17.112  0.5829  0.1846 -0.3903
10864TIP3    H154083   0.790   1.660  17.195 -1.5611 -1.4320 -0.4410
10864TIP3    H254084   0.752   1.646  17.049  0.6497 -1.3978 -1.0316
10865TIP3   OH254085   0.592   1.533   2.340  0.0435  0.4743  0.3175
10865TIP3    H154086   0.683   1.541   2.312 -0.4112 -1.0250 -1.6717
10865TIP3    H254087   0.597   1.497   2.429  1.3756  0.0353  0.0636
10866TIP3   OH254088   4.859   3.512  10.926 -0.3528  0.0236 -0.3863
10866TIP3    H154089   4.921   3.448  10.892  0.2913  0.3912  0.0877
10866TIP3    H254090   4.889   3.596  10.892  0.5858  0.4608  1.4686
10867TIP3   OH254091   0.670   3.470   5.733  0.4069 -0.0775  0.3432
10867TIP3    H154092   0.642   3.497   5.820  0.4797  0.7111  0.1269
10867TIP3    H254093   0.596   3.490   5.676 -0.5109 -2.7351  0.5888
10868TIP3   OH254094   6.266   4.536  11.200  0.0524  0.2553 -0.2864
10868TIP3    H154095   6.294   4.481  11.127 -2.2146 -1.4737  0.0963
10868TIP3    H254096   6.206   4.599  11.161 -0.6420 -0.2532 -0.0691
10869TIP3   OH254097   6.311   1.166   0.212 -0.2237 -0.4124  0.4807
10869TIP3    H154098   6.307   1.170   0.307  0.1846 -0.2873  0.4962
10869TIP3    H254099   6.368   1.239   0.187 -0.1927 -0.5456  0.1529
10870TIP3   OH254100   3.848   0.845  16.324  0.3574  0.1216 -0.4435
10870TIP3    H154101   3.836   0.935  16.355 -1.0228 -0.3305  0.3447
10870TIP3    H254102   3.942   0.839  16.307  0.7483  1.1718  1.1907
10871TIP3   OH254103   0.023   2.614   1.419  0.5969  0.8043 -0.5213
10871TIP3    H154104   0.002   2.568   1.338  0.0293 -1.1610  0.7056
10871TIP3    H254105  -0.042   2.684   1.425 -0.6457 -0.3094 -0.7480
10872TIP3   OH254106   3.861   6.590   1.585 -0.3437 -0.4044  0.3669
10872TIP3    H154107   3.928   6.618   1.523 -0.1924  1.2130  1.2199
10872TIP3    H254108   3.778   6.607   1.539 -0.2500  1.3657  0.7967
10873TIP3   OH254109   0.813   2.249  13.276 -0.5765 -0.2723 -0.0308
10873TIP3    H154110   0.812   2.209  13.363 -0.5107  1.9202  1.0316
10873TIP3    H254111   0.740   2.311  13.278 -0.3575  0.0430 -1.4277
10874TIP3   OH254112   0.053   5.323   2.038 -0.1016 -0.2830 -0.1929
10874TIP3    H154113   0.098   5.240   2.024 -2.2031 -1.4759 -0.1926
10874TIP3    H254114   0.050   5.334   2.133 -3.0035 -2.0953 -0.0108
10875TIP3   OH254115   0.662   3.511   4.412 -0.1228  0.4075 -0.7302
10875TIP3    H154116   0.723   3.561   4.357  1.8463 -3.2289 -2.0430
10875TIP3    H254117   0.718   3.470   4.479 -1.2876 -1.8076 -1.0463
10876TIP3   OH254118   3.475   2.026  16.680 -0.2403  0.3296  0.1840
10876TIP3    H154119   3.512   1.938  16.674  0.5301  0.5991  0.8640
10876TIP3    H254120   3.393   2.021  16.631 -1.0707 -1.2184  1.6911
10877TIP3   OH254121   1.651   4.325  13.610  0.0736  0.0286  0.1722
10877TIP3    H154122   1.711   4.400  13.614  2.5972 -1.9062  0.1998
10877TIP3    H254123   1.617   4.326  13.521  1.1392  0.4472 -0.2427
10878TIP3   OH254124   3.900   0.465  13.293  0.8905  0.3321  0.1697
10878TIP3    H154125   3.832   0.528  13.269  1.7699  0.7703 -1.2498
10878TIP3    H254126   3.858   0.407  13.357 -0.5924  1.0298 -0.1536
10879TIP3   OH254127   6.334   5.058   2.807 -0.3499  0.2986  0.2228
10879TIP3    H154128   6.418   5.034   2.847 -0.7214 -1.1912  0.1451
10879TIP3    H254129   6.306   5.136   2.855  1.0670  0.7963  0.2607
10880TIP3   OH254130   6.309   4.406  12.071 -0.2119 -0.5915  0.0263
10880TIP3    H154131   6.264   4.377  12.150 -1.4149  1.8461  0.2774
10880TIP3    H254132   6.258   4.369  11.999 -0.0152 -1.5231  0.3541
10881TIP3   OH254133   1.947   6.113   3.662  0.3130  0.1517 -0.1054
10881TIP3    H154134   1.880   6.052   3.630  1.5986 -2.5871  2.2091
10881TIP3    H254135   1.957   6.092   3.754  3.1396  1.7005  0.0027
10882TIP3   OH254136   3.867   0.097  16.656 -0.2200 -0.1528  0.1208
10882TIP3    H154137   3.930   0.117  16.724 -0.8583  1.7766  0.2003
10882TIP3    H254138   3.912   0.119  16.574 -0.1097 -0.6480  0.0492
10883TIP3   OH254139   2.933   1.422   5.399 -0.4755 -0.2674  0.1623
10883TIP3    H154140   3.022   1.426   5.434  0.9382  0.2047 -3.2872
10883TIP3    H254141   2.890   1.500   5.434  1.1380  0.6506  0.1436
10884TIP3   OH254142   2.168   5.805   4.911  0.3089 -0.6028  0.6245
10884TIP3    H154143   2.235   5.737   4.908 -0.2168 -1.0819 -0.6562
10884TIP3    H254144   2.154   5.828   4.819  2.2297  2.9635  1.1241
10885TIP3   OH254145   3.814   4.120  16.258  0.1091  0.1419 -0.6658
10885TIP3    H154146   3.786   4.192  16.315  1.0591  0.3823 -0.4925
10885TIP3    H254147   3.776   4.042  16.299 -0.6201  0.5019 -0.6509
10886TIP3   OH254148   3.024   6.405  16.710 -0.0931  0.1947 -0.4025
10886TIP3    H154149   2.951   6.381  16.652 -1.4005  0.4007  1.1397
10886TIP3    H254150   3.002   6.493  16.741  0.6187  0.0965  0.3919
10887TIP3   OH254151   4.587   1.775  12.983 -0.2439  0.1441  0.0555
10887TIP3    H154152   4.558   1.846  13.040 -1.2740 -0.3582  0.1708
10887TIP3    H254153   4.517   1.710  12.988  0.7779 -0.9656  0.0887
10888TIP3   OH254154   5.539   4.210  13.417 -0.3965 -0.2506  0.2550
10888TIP3    H154155   5.449   4.242  13.408 -0.7287 -0.5870  2.1659
10888TIP3    H254156   5.536   4.120  13.384 -0.7668 -0.2751  0.3584
10889TIP3   OH254157   4.579   6.551   2.176 -0.0639 -0.5860 -0.0884
10889TIP3    H154158   4.601   6.534   2.268 -1.1716  1.2786  0.5509
10889TIP3    H254159   4.515   6.483   2.154 -0.7538 -0.2823  0.9176
10890TIP3   OH254160   6.612   1.839   5.401 -0.4903  0.1275 -0.3203
10890TIP3    H154161   6.659   1.816   5.481 -1.3405 -0.4626  0.0071
10890TIP3    H254162   6.629   1.766   5.342  1.6586  1.4013 -1.3495
10891TIP3   OH254163   3.512   0.857   0.228 -0.0093  0.3273  0.5799
10891TIP3    H154164   3.561   0.861   0.146  0.1254 -2.2300  0.5175
10891TIP3    H254165   3.451   0.931   0.223 -1.0009 -0.6354 -2.5075
10892TIP3   OH254166   5.066   1.816   0.960 -0.4122  0.6413 -0.3618
10892TIP3    H154167   5.162   1.820   0.960 -0.3349 -0.3406  2.2987
10892TIP3    H254168   5.046   1.727   0.933 -0.6004  0.9453 -1.2410
10893TIP3   OH254169   0.838   3.718   4.265  0.0231  0.4182  0.3332
10893TIP3    H154170   0.849   3.743   4.356 -1.3847  1.4296  0.2580
10893TIP3    H254171   0.877   3.790   4.216  1.7690 -0.6512  0.1375
10894TIP3   OH254172   2.836   2.052   4.925  0.0344 -0.3388 -0.7029
10894TIP3    H154173   2.876   2.030   4.841 -0.8367 -1.3988 -0.8440
10894TIP3    H254174   2.807   1.969   4.961 -0.5610  0.2296  0.1592
10895TIP3   OH254175   0.680   0.068  16.214  0.6418 -0.0637 -0.6729
10895TIP3    H154176   0.753   0.066  16.277 -0.5755 -0.5914  0.7641
10895TIP3    H254177   0.658   0.160  16.207  1.3161  0.0822 -0.9649
10896TIP3   OH254178   2.100   2.536  13.671  0.5259  0.1185  0.5777
10896TIP3    H154179   2.169   2.602  13.665 -1.1368  2.0896  2.2944
10896TIP3    H254180   2.059   2.536  13.585  0.6762  1.1520  0.5084
10897TIP3   OH254181   3.256   1.364   6.008  0.0405  0.3822 -0.3872
10897TIP3    H154182   3.192   1.411   6.061  2.0606 -0.1302  2.6824
10897TIP3    H254183   3.323   1.429   5.988  0.6617 -0.0772  0.1364
10898TIP3   OH254184   5.539   3.941   4.612 -0.3964 -0.0586 -1.1322
10898TIP3    H154185   5.587   4.009   4.567 -0.1022  0.8727  0.5521
10898TIP3    H254186   5.453   3.979   4.630 -0.3154 -0.2161 -0.3966
10899TIP3   OH254187   0.562   0.649  12.359 -0.0572  0.1499 -0.3085
10899TIP3    H154188   0.547   0.738  12.393  0.1956 -0.9896  2.9774
10899TIP3    H254189   0.480   0.627  12.315 -0.3713  1.7841 -0.5889
10900TIP3   OH254190   4.316   6.791  16.147 -0.5001 -0.2203  0.7794
10900TIP3    H154191   4.238   6.748  16.112 -0.1468 -1.8637  1.9611
10900TIP3    H254192   4.388   6.732  16.124  0.5304  1.6733 -1.0080
10901TIP3   OH254193   5.633   4.610   2.535 -0.7421 -0.1677 -0.4060
10901TIP3    H154194   5.723   4.590   2.560 -0.4946 -0.0991 -1.2407
10901TIP3    H254195   5.586   4.617   2.619  0.0299 -0.1706  0.0335
10902TIP3   OH254196   0.363   6.727  12.502  0.5342 -0.7139 -0.6661
10902TIP3    H154197   0.348   6.805  12.449 -0.8204 -2.5204 -3.0601
10902TIP3    H254198   0.455   6.732  12.528  0.6467  1.3027 -1.3687
10903TIP3   OH254199   4.156   0.125  14.823  0.7782 -0.7018 -0.8211
10903TIP3    H154200   4.105   0.113  14.903 -1.3535 -1.8026 -2.2784
10903TIP3    H254201   4.095   0.103  14.753  2.2687  1.3069 -2.8156
10904TIP3   OH254202   0.485   0.665   2.557  0.3847  0.2997  0.4695
10904TIP3    H154203   0.407   0.685   2.505  0.2998 -2.1715 -0.4630
10904TIP3    H254204   0.504   0.573   2.537  2.2150  0.1977  2.4196
10905TIP3   OH254205   2.487   3.611   5.961 -0.2074 -0.6162 -0.1602
10905TIP3    H154206   2.459   3.694   5.923 -1.0286 -0.5217  0.6348
10905TIP3    H254207   2.478   3.547   5.891 -2.4707 -0.6013  0.0880
10906TIP3   OH254208   1.065   4.652  17.233 -0.4089 -0.2218  0.5066
10906TIP3    H154209   1.095   4.742  17.229 -0.0379 -0.2526  2.0469
10906TIP3    H254210   1.120   4.605  17.171  0.1498  0.4158  0.5125
10907TIP3   OH254211   2.658   4.621  13.194  0.2516 -0.3157  0.1559
10907TIP3    H154212   2.709   4.702  13.198 -1.7943  1.0167 -0.1680
10907TIP3    H254213   2.724   4.552  13.199  2.1002  1.3497 -0.2392
10908TIP3   OH254214   2.255   5.555   1.453 -0.4062  0.0718  0.1082
10908TIP3    H154215   2.286   5.482   1.507 -0.8114 -0.8988 -0.9422
10908TIP3    H254216   2.329   5.575   1.395  0.0951  1.2325  1.1175
10909TIP3   OH254217   1.565   2.708  13.159 -0.2176  0.0134  0.5509
10909TIP3    H154218   1.571   2.757  13.241  1.5294 -0.5074  0.7482
10909TIP3    H254219   1.649   2.662  13.152 -0.6093 -0.4673 -1.1968
10910TIP3   OH254220   2.908   1.882  16.507  0.5127 -0.3980 -0.0097
10910TIP3    H154221   2.920   1.787  16.506 -0.3195 -0.5032 -1.3321
10910TIP3    H254222   2.939   1.910  16.421 -2.2506  0.1354 -0.8702
10911TIP3   OH254223   0.419   5.293   3.638 -0.6715  0.1194  0.1673
10911TIP3    H154224   0.463   5.217   3.600  1.8539  0.0571  3.0478
10911TIP3    H254225   0.381   5.260   3.719 -1.8632  1.3305  0.1097
10912TIP3   OH254226   0.348   4.814  11.243  0.2749 -0.3805  0.1385
10912TIP3    H154227   0.338   4.841  11.334 -1.4117 -2.6213  0.6765
10912TIP3    H254228   0.258   4.800  11.212  0.9108 -1.4161 -1.2952
10913TIP3   OH254229   5.223   1.513  14.449  0.1142 -1.0527 -0.0230
10913TIP3    H154230   5.270   1.495  14.531  0.8536  2.1304  0.3033
10913TIP3    H254231   5.292   1.526  14.385 -0.3656  0.6275 -0.2133
10914TIP3   OH254232   0.367   6.460  11.439  0.1609 -0.3163  0.0543
10914TIP3    H154233   0.364   6.477  11.345  0.2731  0.0757  0.1167
10914TIP3    H254234   0.309   6.526  11.477 -0.4810 -0.9598  0.1950
10915TIP3   OH254235   4.099   0.825  10.376 -0.4714  0.2029  0.0817
10915TIP3    H154236   4.073   0.743  10.333 -1.2495  0.0189  0.8917
10915TIP3    H254237   4.046   0.828  10.456  1.7212  0.0363  1.5652
10916TIP3   OH254238   5.078   0.382  11.893  0.1416 -0.0761  0.1583
10916TIP3    H154239   5.021   0.411  11.964 -1.9385 -2.6180 -0.3760
10916TIP3    H254240   5.124   0.306  11.929 -0.2786 -0.8482 -0.9074
10917TIP3   OH254241   5.879   4.284  12.373 -0.5210  0.3808 -0.2327
10917TIP3    H154242   5.788   4.273  12.346 -1.4732  1.6150  2.3069
10917TIP3    H254243   5.902   4.203  12.418 -0.3087  0.0025 -1.0226
10918TIP3   OH254244   5.099   2.340   2.073  0.1987  0.2049 -0.0275
10918TIP3    H154245   5.028   2.348   2.137  0.7640  0.6326  0.5613
10918TIP3    H254246   5.093   2.419   2.020 -0.5295 -0.3483 -0.7807
10919TIP3   OH254247   1.656   6.749  14.002 -0.1779  0.5014  0.1971
10919TIP3    H154248   1.610   6.833  14.005  0.0269  0.6367 -0.4247
10919TIP3    H254249   1.747   6.771  14.023  0.1034  0.6045 -1.1022
10920TIP3   OH254250   2.343   0.151  10.697  0.1953 -0.4284 -0.4588
10920TIP3    H154251   2.310   0.219  10.757 -0.5756 -0.7195 -0.5495
10920TIP3    H254252   2.307   0.070  10.731  1.6037 -0.8790 -0.0015
10921TIP3   OH254253   2.099   4.445   2.636  0.0107 -0.5713 -0.5692
10921TIP3    H154254   2.010   4.435   2.671  0.2974 -1.5199 -0.1132
10921TIP3    H254255   2.132   4.525   2.678 -0.1559 -0.9289  0.2594
10922TIP3   OH254256   4.611   2.170  17.108  0.2297  0.1093 -0.3410
10922TIP3    H154257   4.624   2.264  17.125 -1.3098  0.3332 -0.2857
10922TIP3    H254258   4.565   2.168  17.024  1.4607 -0.6646 -0.9915
10923TIP3   OH254259   4.229   2.750   1.809  0.0774  0.0463  0.7324
10923TIP3    H154260   4.153   2.692   1.817 -0.9163  1.3280  0.8606
10923TIP3    H254261   4.196   2.826   1.761  1.5278  0.2249 -0.0210
10924TIP3   OH254262   5.055   3.012  11.419  0.1662 -0.2180  0.8660
10924TIP3    H154263   5.062   3.105  11.441 -0.2056  0.7114 -2.5979
10924TIP3    H254264   5.125   2.970  11.468  1.0589  2.0760  1.6059
10925TIP3   OH254265   2.386   4.858   0.427 -0.2721 -0.0524 -0.0802
10925TIP3    H154266   2.390   4.947   0.463 -1.0312 -0.3505  0.7794
10925TIP3    H254267   2.356   4.869   0.337  0.4398  0.6206 -0.2385
10926TIP3   OH254268   0.713   0.690   5.962  0.0672  0.2800  0.5751
10926TIP3    H154269   0.710   0.646   6.047  0.9953  1.5187  1.2668
10926TIP3    H254270   0.735   0.781   5.983 -0.0232  0.6682 -0.9660
10927TIP3   OH254271   5.044   3.549  12.710 -0.5512 -0.2367 -0.4452
10927TIP3    H154272   5.123   3.600  12.692 -1.0136 -0.4065 -3.1684
10927TIP3    H254273   4.999   3.597  12.780  0.6239  1.2961 -0.7279
10928TIP3   OH254274   4.337   1.854  14.536 -0.0444 -0.0215  0.1374
10928TIP3    H154275   4.358   1.841  14.443 -3.9563  1.4733 -1.0968
10928TIP3    H254276   4.374   1.940  14.557 -0.8217  0.5338 -0.6765
10929TIP3   OH254277   0.136   5.587  12.233 -0.3971 -0.2524 -0.4619
10929TIP3    H154278   0.211   5.639  12.204  0.2042 -1.4197 -1.0311
10929TIP3    H254279   0.163   5.497  12.219 -0.4576 -0.8612  2.8140
10930TIP3   OH254280   1.755   1.397  14.563 -0.3530 -0.0442  0.3487
10930TIP3    H154281   1.746   1.487  14.531 -2.6799 -0.4404 -0.1793
10930TIP3    H254282   1.753   1.405  14.658  0.6794  0.5537  0.3364
10931TIP3   OH254283   6.815   6.128  11.697  0.3203 -0.4930  0.6381
10931TIP3    H154284   6.909   6.132  11.714  0.4781 -0.4970 -0.2149
10931TIP3    H254285   6.803   6.181  11.618 -0.4059 -0.4232  0.7969
10932TIP3   OH254286   1.432   6.679   2.438  0.6051 -0.4227  0.2193
10932TIP3    H154287   1.375   6.682   2.514 -2.6862  0.8704 -2.1655
10932TIP3    H254288   1.375   6.648   2.367  3.7976 -2.5343 -1.5193
10933TIP3   OH254289   3.427   2.085   4.935 -0.1637 -0.6062  0.1679
10933TIP3    H154290   3.462   2.157   4.987 -0.6112  0.0997 -0.4865
10933TIP3    H254291   3.333   2.084   4.957 -0.0730 -1.2796  0.5156
10934TIP3   OH254292   1.107   2.421  13.592 -0.0650 -0.2993  0.3606
10934TIP3    H154293   1.172   2.453  13.529 -0.9602 -0.3241 -0.5881
10934TIP3    H254294   1.026   2.467  13.568 -0.6258 -0.9764  0.9383
10935TIP3   OH254295   4.248   1.693   1.635  0.1875  0.6007 -0.6936
10935TIP3    H154296   4.324   1.673   1.690 -0.2068  0.7472 -0.0880
10935TIP3    H254297   4.208   1.769   1.678  0.6163  1.5270 -1.9177
10936TIP3   OH254298   6.554   3.696   3.644  0.1476 -0.0845  0.7970
10936TIP3    H154299   6.459   3.710   3.639  0.3361  0.6473 -0.7683
10936TIP3    H254300   6.572   3.631   3.576  1.0872  1.4116 -0.3913
10937TIP3   OH254301   4.476   4.221   4.609 -0.0791  0.2825  0.0800
10937TIP3    H154302   4.535   4.271   4.553  0.2743 -1.3990 -1.0750
10937TIP3    H254303   4.431   4.161   4.550  0.6806 -1.8795  1.6392
10938TIP3   OH254304   3.551   4.706   5.385  0.1991 -0.3312 -0.5228
10938TIP3    H154305   3.500   4.650   5.444  0.9695 -0.8941 -0.3822
10938TIP3    H254306   3.486   4.766   5.347 -0.5956 -1.1559 -0.4862
10939TIP3   OH254307   4.562   2.164   1.952 -0.4353  0.1286  0.1556
10939TIP3    H154308   4.524   2.103   2.015 -1.7941 -0.2276 -0.9955
10939TIP3    H254309   4.572   2.246   2.001 -1.4371 -0.1480  0.8296
10940TIP3   OH254310   3.738   6.411  13.384  0.0624 -0.3222 -0.4750
10940TIP3    H154311   3.813   6.412  13.443  1.6734 -0.7699 -2.4590
10940TIP3    H254312   3.665   6.380  13.438  1.6345 -1.3521  1.1004
10941TIP3   OH254313   3.878   6.363   2.576  0.2456 -0.0509  0.8914
10941TIP3    H154314   3.947   6.304   2.546 -0.8094 -0.8669  0.0212
10941TIP3    H254315   3.797   6.316   2.556 -0.5807  1.3577  0.9171
10942TIP3   OH254316   2.336   5.390  14.341 -0.1579 -0.2133  0.4813
10942TIP3    H154317   2.365   5.371  14.430  0.8717  0.9134  0.3899
10942TIP3    H254318   2.282   5.469  14.349 -0.0027 -0.0644  0.1007
10943TIP3   OH254319   3.447   3.177   0.559 -0.0199  0.2454  0.0846
10943TIP3    H154320   3.433   3.084   0.540 -0.8809  0.0239  1.7177
10943TIP3    H254321   3.361   3.209   0.587  0.1569  1.6638 -0.9280
10944TIP3   OH254322   1.283   1.294  14.087  0.0089  0.0619  0.1283
10944TIP3    H154323   1.314   1.209  14.120 -0.4787 -0.4975 -0.8278
10944TIP3    H254324   1.364   1.342  14.066  0.2812 -0.4922 -0.1215
10945TIP3   OH254325   1.465   4.497   2.544  0.1372 -0.1290  0.3537
10945TIP3    H154326   1.471   4.488   2.639  0.5211  2.0760  0.5483
10945TIP3    H254327   1.386   4.548   2.529  1.0892  1.1511 -0.3946
10946TIP3   OH254328   3.607   4.001   3.653 -0.1671  0.0974  0.2944
10946TIP3    H154329   3.553   3.979   3.577  1.2319 -0.3317 -0.5946
10946TIP3    H254330   3.689   3.953   3.639  0.2979  0.4154  1.8247
10947TIP3   OH254331   3.126   1.464  12.328 -0.2045  0.3870 -0.2271
10947TIP3    H154332   3.053   1.523  12.310 -0.8882  0.0459  1.3335
10947TIP3    H254333   3.204   1.514  12.304 -0.8225  1.6314  0.3185
10948TIP3   OH254334   3.825   3.551   5.738 -0.1636  0.1313  0.2146
10948TIP3    H154335   3.759   3.614   5.767 -0.7514 -0.2388 -0.3024
10948TIP3    H254336   3.845   3.577   5.648  1.2754  0.9599  0.7563
10949TIP3   OH254337   0.935   4.316   4.150  0.1207  0.1928 -0.2360
10949TIP3    H154338   0.879   4.388   4.123 -0.8681 -1.0909 -1.6486
10949TIP3    H254339   1.003   4.311   4.082  0.7863  0.4375  0.4001
10950TIP3   OH254340   3.462   1.337  12.125 -0.2646  0.0279  0.1544
10950TIP3    H154341   3.378   1.307  12.161 -0.8094 -0.1025 -1.1846
10950TIP3    H254342   3.483   1.271  12.058  0.3862  0.6282 -0.2280
10951TIP3   OH254343   0.382   3.827  13.727 -0.1701  0.3789 -0.3031
10951TIP3    H154344   0.360   3.891  13.659 -1.7976 -0.6733 -0.8117
10951TIP3    H254345   0.330   3.750  13.704  0.8069 -0.6917  1.0057
10952TIP3   OH254346   4.683   4.444  13.396 -0.0259 -0.2589  0.3599
10952TIP3    H154347   4.703   4.405  13.311 -1.2311  1.2592 -0.6571
10952TIP3    H254348   4.640   4.375  13.445 -0.1782 -0.8657 -0.6183
10953TIP3   OH254349   6.430   3.341   6.267 -0.4314 -0.5987 -0.2776
10953TIP3    H154350   6.371   3.269   6.247  0.0726 -0.9295 -0.5805
10953TIP3    H254351   6.516   3.300   6.275 -0.1517 -0.0414 -0.3823
10954TIP3   OH254352   0.501   5.984   2.268  0.3333  0.3974  0.5460
10954TIP3    H154353   0.433   5.975   2.202 -0.6574  0.3192  1.5559
10954TIP3    H254354   0.558   6.053   2.234  1.0802 -1.1430 -1.4082
10955TIP3   OH254355   5.980   4.870  17.194  0.2594  0.3601 -0.3126
10955TIP3    H154356   5.923   4.846  17.121 -0.6091 -0.1852  0.5347
10955TIP3    H254357   6.066   4.884  17.154  0.1969 -1.6580 -1.1938
10956TIP3   OH254358   2.654   6.588   1.747 -0.4320  0.1503  0.2007
10956TIP3    H154359   2.614   6.590   1.660  3.0264 -0.7681 -1.4806
10956TIP3    H254360   2.657   6.680   1.774 -2.3504  0.3580 -0.1967
10957TIP3   OH254361   3.807   2.118   4.501 -0.4277  0.1516  0.1075
10957TIP3    H154362   3.776   2.046   4.445 -0.7557  0.2776  0.1276
10957TIP3    H254363   3.827   2.076   4.584  0.7927 -0.1646 -0.3429
10958TIP3   OH254364   3.217   0.025  12.608 -0.6017 -0.3190 -0.4232
10958TIP3    H154365   3.200   0.026  12.514 -0.2898 -3.2679 -0.5694
10958TIP3    H254366   3.220  -0.068  12.631 -2.1736  0.3554  2.7931
10959TIP3   OH254367   2.063   4.981   2.807  0.4419 -0.4673  0.1037
10959TIP3    H154368   2.083   4.978   2.901 -2.9743  0.5197  0.9440
10959TIP3    H254369   2.040   5.073   2.791  0.4584 -0.7515 -1.5708
10960TIP3   OH254370   2.502   6.592  15.411  0.2821 -0.3655 -0.0856
10960TIP3    H154371   2.486   6.498  15.404 -1.3929 -0.1003 -0.0082
10960TIP3    H254372   2.583   6.606  15.362  0.7887 -1.9063  0.2719
10961TIP3   OH254373   5.074   4.608   4.710  0.5058 -0.1371 -0.4356
10961TIP3    H154374   5.004   4.606   4.645  0.8091 -1.9552 -0.7450
10961TIP3    H254375   5.073   4.697   4.744 -0.8150  0.3393 -1.6743
10962TIP3   OH254376   2.003   1.475   2.053 -0.2812 -0.0719 -0.4308
10962TIP3    H154377   2.055   1.415   2.107 -0.0176 -0.8557 -1.5348
10962TIP3    H254378   2.016   1.561   2.093 -0.3797 -0.6952  0.9709
10963TIP3   OH254379   5.221   6.682  10.877 -0.2115  0.4132  0.3895
10963TIP3    H154380   5.155   6.613  10.884 -0.5057  0.6143 -0.3043
10963TIP3    H254381   5.275   6.672  10.955  0.1508 -1.0241 -0.0245
10964TIP3   OH254382   2.922   4.689  12.075  0.4230 -0.2286  0.3651
10964TIP3    H154383   2.957   4.778  12.067  2.3562 -0.8938  0.9645
10964TIP3    H254384   2.840   4.700  12.122  0.2400  1.3217 -0.2719
10965TIP3   OH254385   4.932   1.481  13.462  0.0209  0.3731 -0.5294
10965TIP3    H154386   4.964   1.571  13.471  0.6415 -0.0722  2.4253
10965TIP3    H254387   5.009   1.431  13.435  1.0097 -0.0424  2.7674
10966TIP3   OH254388   6.452   0.330  15.085  0.3303  0.4244  0.0981
10966TIP3    H154389   6.427   0.290  15.168 -1.9323  2.0514  0.2650
10966TIP3    H254390   6.432   0.423  15.097 -1.0519  0.5276 -2.6229
10967TIP3   OH254391   1.067   6.592  16.660  0.2386 -0.1350 -0.3744
10967TIP3    H154392   1.108   6.662  16.711 -3.5968  0.0922  2.5978
10967TIP3    H254393   1.066   6.626  16.570  1.0247  2.3900  0.5153
10968TIP3   OH254394   2.621   4.678   0.776  0.1295 -0.0957 -0.0222
10968TIP3    H154395   2.660   4.685   0.689  2.4428 -0.8232  0.8993
10968TIP3    H254396   2.567   4.599   0.773  0.9246 -0.6297 -0.5352
10969TIP3   OH254397   6.583   4.382  14.786 -0.2872 -0.4095  0.2033
10969TIP3    H154398   6.501   4.407  14.743 -0.2269  0.5511  0.6394
10969TIP3    H254399   6.596   4.449  14.853  0.8808 -0.5398  0.1075
10970TIP3   OH254400   1.251   5.480  13.977 -0.3711  0.0331 -0.5358
10970TIP3    H154401   1.245   5.563  13.931  0.4070  1.1752  1.3513
10970TIP3    H254402   1.161   5.461  14.004 -0.4187  0.7411 -0.1800
10971TIP3   OH254403   6.017   2.082   5.021  0.3005  0.5595  0.0896
10971TIP3    H154404   6.065   2.063   4.941 -1.1312  0.9520 -0.8824
10971TIP3    H254405   6.007   1.996   5.063  0.6159  0.2807 -0.3961
10972TIP3   OH254406   6.495   1.459  11.663 -0.0963  0.1074 -0.4060
10972TIP3    H154407   6.565   1.404  11.697  0.2876 -0.5686 -2.2335
10972TIP3    H254408   6.515   1.468  11.570 -0.2703  3.1783 -0.2006
10973TIP3   OH254409   1.973   6.134  12.710 -0.0286 -0.0542  0.5752
10973TIP3    H154410   1.925   6.153  12.629  0.3857 -1.2769  0.0177
10973TIP3    H254411   1.999   6.219  12.743  2.8331  0.3985 -2.4839
10974TIP3   OH254412   4.902   0.274   2.025 -0.4862  0.0102  0.8039
10974TIP3    H154413   4.995   0.250   2.026 -0.4808 -0.0534 -0.5946
10974TIP3    H254414   4.892   0.331   2.101  1.3402  2.3446 -0.6145
10975TIP3   OH254415   4.470   5.702  12.711 -0.6734 -0.1362  0.5313
10975TIP3    H154416   4.483   5.616  12.672 -0.3310  1.3906 -2.9733
10975TIP3    H254417   4.377   5.721  12.698 -0.3968  0.7092 -0.3551
10976TIP3   OH254418   3.801   1.972   5.127 -0.2122  0.3434 -0.1076
10976TIP3    H154419   3.761   2.058   5.140 -1.9500 -0.6125  0.9934
10976TIP3    H254420   3.864   1.963   5.198  1.1563  1.3804 -1.1776
10977TIP3   OH254421   5.280   1.228  15.429 -0.0324  0.1871 -0.1051
10977TIP3    H154422   5.206   1.169  15.420 -0.3464  0.6567 -0.5738
10977TIP3    H254423   5.331   1.216  15.349 -0.2954  0.8252 -0.3715
10978TIP3   OH254424   5.992   6.536  11.964  0.3343  0.5556 -0.4030
10978TIP3    H154425   6.007   6.458  12.018 -0.7325  0.6208 -0.0046
10978TIP3    H254426   5.999   6.609  12.025  2.5304  0.8858 -0.9913
10979TIP3   OH254427   1.539   0.552  15.390  0.0140  0.3010  0.0109
10979TIP3    H154428   1.551   0.461  15.361  0.7694  0.6179 -0.6872
10979TIP3    H254429   1.618   0.572  15.440  0.1014  0.7440 -0.2996
10980TIP3   OH254430   2.011   4.436   0.166 -0.3050 -0.1237  0.2341
10980TIP3    H154431   1.937   4.447   0.225  1.1308 -0.4327  2.1386
10980TIP3    H254432   1.972   4.405   0.085 -2.2087 -0.7618  1.3565
10981TIP3   OH254433   5.168   5.644  12.375  0.3047  0.4664  0.6784
10981TIP3    H154434   5.164   5.658  12.280 -1.3523  1.0653  0.8305
10981TIP3    H254435   5.234   5.707  12.405  2.1992 -1.0110 -0.3006
10982TIP3   OH254436   3.698   4.504   2.401 -0.5632  0.0912  0.4336
10982TIP3    H154437   3.749   4.579   2.432  0.7969 -1.1739  1.3301
10982TIP3    H254438   3.661   4.465   2.481 -1.4492 -0.0679 -0.0453
10983TIP3   OH254439   1.076   1.112   3.717  0.2434  0.0880  0.0961
10983TIP3    H154440   0.983   1.108   3.735 -0.7507  3.9916 -3.2952
10983TIP3    H254441   1.086   1.070   3.631  1.5615 -0.2408  0.3979
10984TIP3   OH254442   3.892   2.966   3.172 -0.2789 -0.3717 -0.1353
10984TIP3    H154443   3.833   2.893   3.191  0.0343 -0.5642  0.1151
10984TIP3    H254444   3.835   3.036   3.142 -0.5231 -0.9327 -0.9951
10985TIP3   OH254445   3.761   4.294  16.457  0.2873 -0.1040  0.7884
10985TIP3    H154446   3.718   4.337  16.530 -0.0637  0.8869  0.0194
10985TIP3    H254447   3.854   4.311  16.470  0.4124 -1.7516  2.1397
10986TIP3   OH254448   5.526   5.394  11.248  0.1918  0.5647  0.2653
10986TIP3    H154449   5.569   5.308  11.246  0.7779  0.8601 -0.8500
10986TIP3    H254450   5.442   5.378  11.290  0.2468 -0.5847 -0.0357
10987TIP3   OH254451   2.261   5.719  11.423  0.0350  0.5800  0.3214
10987TIP3    H154452   2.173   5.757  11.419 -0.1792  0.2809  1.9075
10987TIP3    H254453   2.246   5.626  11.442  0.7084  0.6172  1.0372
10988TIP3   OH254454   0.663   4.201   2.095  0.1613  0.2658 -0.2314
10988TIP3    H154455   0.653   4.296   2.090  0.3701  0.3084  0.0764
10988TIP3    H254456   0.730   4.180   2.030 -0.5335  0.2166 -0.9322
10989TIP3   OH254457   5.369   6.744  13.939  0.6312 -0.0891 -0.1028
10989TIP3    H154458   5.402   6.718  14.025  1.2869  0.2994 -0.2344
10989TIP3    H254459   5.363   6.839  13.943  0.0548 -0.1142 -0.2742
10990TIP3   OH254460   5.375   4.663  14.667 -0.0142 -0.3137  0.0611
10990TIP3    H154461   5.308   4.595  14.669 -1.4104  1.0946  1.9812
10990TIP3    H254462   5.428   4.648  14.744  0.2782  0.1685 -0.0401
10991TIP3   OH254463   4.216   2.059  14.112  0.2933  0.3700 -0.3487
10991TIP3    H154464   4.224   1.964  14.106 -1.3875  0.0715  1.4846
10991TIP3    H254465   4.255   2.092  14.032  1.1566 -1.8560 -0.8726
10992TIP3   OH254466   0.698   2.963  15.171 -0.3148 -0.4457  0.0159
10992TIP3    H154467   0.772   2.906  15.149  0.2750  0.2226  0.2468
10992TIP3    H254468   0.717   3.046  15.127 -0.3697  0.0924  0.9776
10993TIP3   OH254469   0.166   0.400   0.846  0.5548  0.7331 -0.2018
10993TIP3    H154470   0.083   0.416   0.892 -0.7201 -1.4833 -1.6137
10993TIP3    H254471   0.166   0.463   0.774  0.9174  1.8775  0.7821
10994TIP3   OH254472   6.210   5.864   3.996  0.2702  0.3592  0.1889
10994TIP3    H154473   6.215   5.769   3.994 -1.5869  0.2514 -1.6232
10994TIP3    H254474   6.198   5.886   4.089 -1.9072 -1.3675  0.3658
10995TIP3   OH254475   1.287   1.416   0.706  0.4115 -0.4546 -0.1521
10995TIP3    H154476   1.285   1.512   0.708 -0.2909 -0.4716  0.2795
10995TIP3    H254477   1.195   1.390   0.716  0.3508 -1.1488 -2.1768
10996TIP3   OH254478   6.695   0.550   0.749  0.2454 -0.1814  0.0812
10996TIP3    H154479   6.639   0.550   0.826  1.3572 -0.7453  0.8865
10996TIP3    H254480   6.771   0.603   0.774  0.2598  0.2638 -0.8751
10997TIP3   OH254481   4.377   1.497   2.974 -0.8044 -0.2938  0.4548
10997TIP3    H154482   4.291   1.461   2.951 -0.8737  0.0996  0.1090
10997TIP3    H254483   4.439   1.440   2.928 -0.8469 -1.0273  1.2859
10998TIP3   OH254484   0.219   1.391  14.183 -0.3231  0.6353 -0.0776
10998TIP3    H154485   0.141   1.377  14.129  0.3986 -2.2696 -0.4899
10998TIP3    H254486   0.190   1.374  14.272 -0.6098  1.4589 -0.0164
10999TIP3   OH254487   5.338   3.775  14.926  0.0076 -0.3262 -0.2658
10999TIP3    H154488   5.321   3.817  15.010 -0.6849 -1.4543  0.1640
10999TIP3    H254489   5.258   3.790  14.875  0.6317  0.8242 -0.9307
11000TIP3   OH254490   4.753   5.221  15.907  0.1718 -0.0506 -0.4090
11000TIP3    H154491   4.816   5.150  15.899 -0.1924 -0.2071 -2.0133
11000TIP3    H254492   4.690   5.190  15.972  0.3729 -0.9242 -0.6290
11001TIP3   OH254493   5.790   0.872   1.406  0.4547  0.0398  0.3317
11001TIP3    H154494   5.823   0.961   1.394  1.1178 -0.3333 -0.6042
11001TIP3    H254495   5.695   0.883   1.419  0.5876  0.9035  0.6123
11002TIP3   OH254496   2.285   2.548   0.131 -0.3845 -0.5613 -0.4623
11002TIP3    H154497   2.223   2.616   0.157 -0.7778 -0.6871 -1.0818
11002TIP3    H254498   2.344   2.540   0.207 -0.6959  0.0444 -0.1516
11003TIP3   OH254499   2.181   4.725   4.495  0.0126 -0.2428 -0.3707
11003TIP3    H154500   2.125   4.801   4.511 -0.2302 -0.7480  1.2876
11003TIP3    H254501   2.159   4.697   4.406 -0.9913  0.6991 -0.4286
11004TIP3   OH254502   3.194   1.471  12.842 -0.2197 -0.2174 -0.2939
11004TIP3    H154503   3.189   1.436  12.753 -2.1575  0.8630 -0.6177
11004TIP3    H254504   3.104   1.495  12.864  0.4418  0.7099  1.4761
11005TIP3   OH254505   2.836   2.626  15.573 -0.2694  0.0084 -0.2723
11005TIP3    H154506   2.914   2.582  15.607  0.4421  1.6233  0.2457
11005TIP3    H254507   2.773   2.622  15.644 -1.6542 -3.5769 -1.5680
11006TIP3   OH254508   0.238   0.685   2.447 -0.0268 -0.5843  0.2002
11006TIP3    H154509   0.210   0.617   2.385  1.2892 -1.0601  0.1175
11006TIP3    H254510   0.187   0.762   2.422 -0.1392 -1.0179 -0.9326
11007TIP3   OH254511   6.248   5.061  13.437 -0.0698 -0.6166  0.2596
11007TIP3    H154512   6.264   4.982  13.386 -0.0422 -0.3449 -0.1573
11007TIP3    H254513   6.251   5.032  13.528 -1.3513 -1.3346  0.0832
11008TIP3   OH254514   4.763   2.239   5.169 -0.0407 -0.3943 -0.2552
11008TIP3    H154515   4.804   2.155   5.190  0.7870  0.5394  2.0263
11008TIP3    H254516   4.678   2.215   5.132  0.1661 -2.2567  0.4085
11009TIP3   OH254517   3.865   3.692   2.570  0.1667 -0.3212 -0.4553
11009TIP3    H154518   3.772   3.682   2.550 -0.0687  1.2840 -0.2370
11009TIP3    H254519   3.904   3.719   2.486 -0.1662  2.4259  0.1992
11010TIP3   OH254520   4.796   2.704   1.405  0.2843 -0.2734  0.4984
11010TIP3    H154521   4.780   2.782   1.351 -0.0601 -0.2745  0.5935
11010TIP3    H254522   4.879   2.670   1.374 -0.7144 -1.2402 -1.2176
11011TIP3   OH254523   5.854   5.541   3.629 -0.4274 -0.2819 -0.3885
11011TIP3    H154524   5.761   5.565   3.625  0.0356  1.8861  1.1302
11011TIP3    H254525   5.897   5.602   3.569 -0.0140 -1.5862 -1.4481
11012TIP3   OH254526   6.695   5.319  15.597  0.3697 -0.5370  0.1650
11012TIP3    H154527   6.692   5.399  15.545  1.5039  0.0914  1.0315
11012TIP3    H254528   6.746   5.257  15.545  1.6971  0.1663  0.6052
11013TIP3   OH254529   2.674   1.471  14.404  0.6269 -0.0379  0.8947
11013TIP3    H154530   2.631   1.556  14.416 -0.4547 -0.4453 -0.1317
11013TIP3    H254531   2.702   1.471  14.313  1.2218 -0.5175  1.0759
11014TIP3   OH254532   2.973   4.747  16.236 -0.1641 -0.0606 -0.0502
11014TIP3    H154533   3.064   4.767  16.218 -0.0431 -0.0753  0.5448
11014TIP3    H254534   2.938   4.715  16.152  0.3732 -0.0697 -0.2688
11015TIP3   OH254535   0.690   4.970   3.995 -0.3103 -0.1155  0.3630
11015TIP3    H154536   0.677   4.981   4.089  0.5980  0.5485  0.4082
11015TIP3    H254537   0.636   4.894   3.973  0.2832 -0.9139  1.6107
11016TIP3   OH254538   1.104   1.924  12.630 -0.2786 -0.5731  0.6838
11016TIP3    H154539   1.155   1.990  12.584  2.4919 -2.6862  0.6242
11016TIP3    H254540   1.052   1.974  12.694  0.0364  1.8362 -0.8850
11017TIP3   OH254541   6.128   3.147   0.440  0.3873 -0.4167  0.3240
11017TIP3    H154542   6.095   3.183   0.358 -2.6932 -0.9424  1.2454
11017TIP3    H254543   6.177   3.069   0.415 -2.4931 -1.9171 -0.9236
11018TIP3   OH254544   2.283   1.276   2.946  0.0583 -0.3190  0.3336
11018TIP3    H154545   2.337   1.265   3.024  2.6745  0.5396 -1.2922
11018TIP3    H254546   2.226   1.198   2.945  0.5877 -0.7825  2.5692
11019TIP3   OH254547   0.934   2.028   0.643 -0.0594 -0.1233  0.4556
11019TIP3    H154548   0.896   1.980   0.717 -1.1403  0.0545  0.0129
11019TIP3    H254549   0.896   2.115   0.649  1.9280  0.7110  1.2770
11020TIP3   OH254550   3.150   1.376   4.804  0.4526 -0.1206 -0.1459
11020TIP3    H154551   3.117   1.363   4.893  0.5215  1.9194  0.1878
11020TIP3    H254552   3.100   1.313   4.751 -1.7066  0.6924  0.8636
11021TIP3   OH254553   4.704   0.385  12.857 -0.1488 -0.1167  0.3567
11021TIP3    H154554   4.653   0.455  12.898  0.3307  0.5526 -0.1712
11021TIP3    H254555   4.780   0.374  12.914  0.0605  0.1889  0.1417
11022TIP3   OH254556   5.381   1.863   3.442 -0.4044 -0.4606  0.4688
11022TIP3    H154557   5.358   1.912   3.521 -0.9792 -3.2065  2.0315
11022TIP3    H254558   5.300   1.820   3.416 -0.3939  0.9480 -2.0396
11023TIP3   OH254559   2.158   1.688   4.022  0.9748  0.5929  0.0857
11023TIP3    H154560   2.253   1.678   4.031  0.9780  1.6705  1.4687
11023TIP3    H254561   2.139   1.773   4.062 -0.7606 -0.2251  1.0598
11024TIP3   OH254562   6.803   3.389  12.799 -0.6191 -0.3272  0.2730
11024TIP3    H154563   6.762   3.348  12.723 -1.4676  2.8823 -1.0844
11024TIP3    H254564   6.783   3.331  12.872 -3.7347 -1.1299 -1.1730
11025TIP3   OH254565   0.974   0.139   5.608  0.3510  0.1555 -0.3203
11025TIP3    H154566   0.975   0.077   5.680 -1.8820 -0.5128 -0.8081
11025TIP3    H254567   1.055   0.122   5.560  1.9909  0.7808  2.1193
11026TIP3   OH254568   3.086   6.707   1.260  0.0063 -0.1835 -0.8297
11026TIP3    H154569   3.079   6.677   1.170 -0.5234 -0.4393 -0.7056
11026TIP3    H254570   3.079   6.803   1.254  0.3692 -0.1750 -1.0956
11027TIP3   OH254571   6.222   1.671   4.112 -1.1284  0.8420 -0.0035
11027TIP3    H154572   6.288   1.739   4.102 -0.1821 -0.3649 -2.3653
11027TIP3    H254573   6.269   1.596   4.146 -1.5856  0.4358 -0.2631
11028TIP3   OH254574   6.417   1.638   4.729  0.2025 -0.3327 -0.5391
11028TIP3    H154575   6.435   1.689   4.808 -2.0247 -0.0351 -0.1789
11028TIP3    H254576   6.501   1.633   4.683  1.0824  1.1762  0.8664
11029TIP3   OH254577   4.416   4.621   4.424 -0.3687 -1.2009 -0.5136
11029TIP3    H154578   4.461   4.691   4.377  0.1007 -1.5352 -0.5595
11029TIP3    H254579   4.356   4.583   4.360 -0.4470 -1.0035 -0.5574
11030TIP3   OH254580   1.816   1.211   4.802 -0.1134  0.0215 -0.1648
11030TIP3    H154581   1.811   1.241   4.893 -0.6611  2.0454 -0.8396
11030TIP3    H254582   1.807   1.116   4.808  0.5181  0.0570  1.9474
11031TIP3   OH254583   5.626   6.522   0.548 -0.0947 -0.3444  0.2582
11031TIP3    H154584   5.548   6.468   0.561  0.1875 -0.7430  0.3486
11031TIP3    H254585   5.605   6.580   0.476 -0.8374  0.2403  0.9476
11032TIP3   OH254586   5.587   0.382   4.471  0.1329  0.4025  0.8611
11032TIP3    H154587   5.570   0.343   4.556  2.3214 -1.3206  0.5723
11032TIP3    H254588   5.658   0.445   4.487 -0.0005  0.6646  0.4442
11033TIP3   OH254589   0.620   4.758  10.961 -1.2946  0.1786  0.1740
11033TIP3    H154590   0.649   4.692  11.024 -0.7562  1.4771  1.3193
11033TIP3    H254591   0.688   4.759  10.894 -0.6133  0.5111  0.8626
11034TIP3   OH254592   1.373   3.902   5.641 -0.2391  0.8577 -0.0707
11034TIP3    H154593   1.300   3.866   5.692 -0.4476  1.6101  0.1730
11034TIP3    H254594   1.450   3.859   5.677 -0.3043  1.9257  1.4030
11035TIP3   OH254595   3.608   2.730  16.851  0.4787 -0.3525  0.0013
11035TIP3    H154596   3.637   2.732  16.942 -0.2436 -0.7870  0.2433
11035TIP3    H254597   3.555   2.810  16.841  2.8272  1.1561 -0.8119
11036TIP3   OH254598   4.616   4.500  14.400 -0.3309  0.3362 -0.3780
11036TIP3    H154599   4.608   4.595  14.408 -0.4001  0.2815  0.2679
11036TIP3    H254600   4.603   4.482  14.307 -0.3626  0.9557 -0.4943
11037TIP3   OH254601   2.607   1.258   2.409 -0.2413 -0.7011 -0.4036
11037TIP3    H154602   2.565   1.289   2.489  1.6783  1.1421 -0.0643
11037TIP3    H254603   2.602   1.332   2.349  1.9202 -0.6622 -0.5704
11038TIP3   OH254604   1.474   5.965   3.395  0.1341  0.5832  0.2577
11038TIP3    H154605   1.534   5.900   3.433  1.4640  0.6666 -1.6675
11038TIP3    H254606   1.468   6.033   3.462 -0.1260 -0.8028  1.6944
11039TIP3   OH254607   3.145   1.752   2.190  0.4105 -0.4512  0.1396
11039TIP3    H154608   3.143   1.814   2.118 -0.1752 -1.5060 -0.7618
11039TIP3    H254609   3.233   1.713   2.186  0.1955 -0.8931 -0.3392
11040TIP3   OH254610   4.088   1.732   3.912 -0.2684 -0.2692  0.2622
11040TIP3    H154611   4.117   1.823   3.915  0.6747 -0.4540 -1.9301
11040TIP3    H254612   4.157   1.683   3.957 -0.5640  0.0363  1.0564
11041TIP3   OH254613   2.073   0.762  13.398 -0.0939  0.0687  0.5368
11041TIP3    H154614   2.112   0.831  13.452  0.8430  0.2513 -0.3517
11041TIP3    H254615   2.066   0.801  13.311 -0.1094 -0.7661  0.1620
11042TIP3   OH254616   6.166   0.690   2.233 -0.1785  0.2711 -0.0451
11042TIP3    H154617   6.072   0.697   2.244 -0.3222 -0.7190 -0.5314
11042TIP3    H254618   6.203   0.751   2.297 -1.1780  1.9041 -0.9925
11043TIP3   OH254619   2.237   1.229   5.869  0.1630 -0.5289  0.0388
11043TIP3    H154620   2.244   1.301   5.806 -0.0859  0.1281  0.7653
11043TIP3    H254621   2.168   1.173   5.833 -0.1105 -0.0550 -0.1786
11044TIP3   OH254622   4.585   6.794   3.593  0.0454  0.3501 -0.1557
11044TIP3    H154623   4.549   6.721   3.643  0.2844 -1.9342 -3.1345
11044TIP3    H254624   4.680   6.785   3.602  0.0745  0.2696 -0.5143
11045TIP3   OH254625   3.706   6.538  11.644 -0.1767  0.3312  0.5547
11045TIP3    H154626   3.774   6.473  11.664 -0.8206 -0.5167  0.0283
11045TIP3    H254627   3.662   6.504  11.566 -0.0983  1.7396 -0.1174
11046TIP3   OH254628   2.904   5.620  16.666 -0.9279 -0.0524  0.4049
11046TIP3    H154629   2.950   5.630  16.750 -1.2637 -1.3974  0.7499
11046TIP3    H254630   2.899   5.526  16.652  1.4445  0.1467 -2.4068
11047TIP3   OH254631   2.614   6.790   2.074  0.4174  0.4464 -0.2437
11047TIP3    H154632   2.694   6.823   2.032  1.8989 -1.7609  0.7186
11047TIP3    H254633   2.619   6.821   2.164  0.2992  0.1142 -0.1224
11048TIP3   OH254634   1.251   0.250  12.395  0.2064  0.7442 -0.0623
11048TIP3    H154635   1.198   0.319  12.356 -0.6273 -0.5409 -1.2831
11048TIP3    H254636   1.247   0.266  12.489 -0.4322  2.0175 -0.2985
11049TIP3   OH254637   2.906   1.394  16.957  0.3377 -0.0019  0.2336
11049TIP3    H154638   2.956   1.459  16.908 -1.6368  1.7467  0.4976
11049TIP3    H254639   2.882   1.328  16.891  0.8386  0.4197 -0.3755
11050TIP3   OH254640   2.295   2.905  15.115 -0.0687 -1.2149  0.4202
11050TIP3    H154641   2.339   2.844  15.056  2.8831  0.7078  0.5683
11050TIP3    H254642   2.261   2.974  15.059  0.8381 -0.5008  0.7443
11051TIP3   OH254643   0.240   2.697   1.906 -0.4509  0.3232  0.4030
11051TIP3    H154644   0.195   2.691   1.990 -1.3277  1.0087 -0.0189
11051TIP3    H254645   0.222   2.786   1.875 -0.1137  0.0773 -0.5097
11052TIP3   OH254646   1.386   4.228  12.483 -0.1884  0.2261 -0.1027
11052TIP3    H154647   1.395   4.151  12.539  1.4104 -0.1979 -0.8998
11052TIP3    H254648   1.473   4.240  12.445 -1.0125  1.0629 -1.7743
11053TIP3   OH254649   6.517   1.216  14.802  0.5303 -0.4751  0.3087
11053TIP3    H154650   6.553   1.214  14.713  1.0283  1.7237  0.4339
11053TIP3    H254651   6.478   1.130  14.813  0.3800 -0.7656 -2.0835
11054TIP3   OH254652   4.924   3.580   2.467 -0.1115  0.2788 -0.1520
11054TIP3    H154653   4.876   3.611   2.543  1.0349  1.2936  0.1651
11054TIP3    H254654   5.001   3.636   2.462 -1.1082  1.5307 -3.1660
11055TIP3   OH254655   1.081   2.007  12.196 -0.7537 -0.1255 -0.1587
11055TIP3    H154656   1.160   1.953  12.187  0.1930  1.1753  0.2107
11055TIP3    H254657   1.071   2.049  12.110 -1.0896 -0.3517 -0.2308
11056TIP3   OH254658   5.109   4.480  11.934 -0.1712  0.1920 -0.0802
11056TIP3    H154659   5.093   4.556  11.878  0.1568  1.1827  1.1421
11056TIP3    H254660   5.191   4.501  11.980 -0.1294 -0.8611  0.3354
11057TIP3   OH254661   2.235   4.502  16.265 -0.3621  0.5106  0.0921
11057TIP3    H154662   2.318   4.475  16.305 -0.0824  1.1918 -0.0315
11057TIP3    H254663   2.260   4.546  16.184 -0.8313  0.8855  0.1483
11058TIP3   OH254664   3.866   3.331  14.138  0.2979 -0.0510 -0.1085
11058TIP3    H154665   3.887   3.241  14.165  2.4392  0.0572 -1.3425
11058TIP3    H254666   3.931   3.385  14.182  0.4697  0.6541 -1.2213
11059TIP3   OH254667   1.542   0.082   5.833 -0.1520  0.7082 -0.4197
11059TIP3    H154668   1.578   0.166   5.861 -0.0588  0.4726  0.1815
11059TIP3    H254669   1.500   0.101   5.749  0.0478  1.3105 -0.3899
11060TIP3   OH254670   6.765   5.697  10.906 -0.4195  0.1551 -0.2322
11060TIP3    H154671   6.780   5.623  10.847  0.1049 -0.3197  0.4837
11060TIP3    H254672   6.809   5.771  10.863 -0.6984 -0.0062 -0.8095
11061TIP3   OH254673   4.887   4.051  16.259 -0.0984  0.6449  0.0916
11061TIP3    H154674   4.847   4.098  16.186 -0.0862 -0.5069 -0.6727
11061TIP3    H254675   4.960   4.002  16.220 -1.7401 -2.1293  0.3253
11062TIP3   OH254676   5.629   1.174   5.111 -0.2971  0.6206  0.2670
11062TIP3    H154677   5.626   1.090   5.157 -0.7225  0.7078  0.3990
11062TIP3    H254678   5.541   1.185   5.076  0.1491  0.3407 -0.9536
11063TIP3   OH254679   0.126   4.345   1.830 -0.1803  0.6928 -0.7513
11063TIP3    H154680   0.099   4.342   1.738  0.3121  1.2172 -0.9165
11063TIP3    H254681   0.209   4.299   1.832 -0.7380 -0.3086 -0.3658
11064TIP3   OH254682   6.645   5.312  12.110  0.4407 -0.3072  0.2434
11064TIP3    H154683   6.614   5.328  12.021  0.5551 -0.8070  0.1133
11064TIP3    H254684   6.607   5.228  12.134  2.5222 -1.4240 -0.2934
11065TIP3   OH254685   2.443   5.085   1.045 -0.4807  0.3482 -0.0406
11065TIP3    H154686   2.434   5.180   1.054  1.8156  0.3999  2.2723
11065TIP3    H254687   2.537   5.069   1.052 -0.8672 -2.1495 -0.0344
11066TIP3   OH254688   0.997   3.441   2.632  0.0916  0.0426  0.8516
11066TIP3    H154689   0.938   3.499   2.681 -2.1554 -1.6676  0.2146
11066TIP3    H254690   0.975   3.457   2.540  0.1659 -1.0537  0.6371
11067TIP3   OH254691   5.804   2.677  11.155  0.1719 -0.8390  0.2745
11067TIP3    H154692   5.735   2.727  11.198  0.1111 -1.5570  1.0247
11067TIP3    H254693   5.885   2.714  11.190  0.2288  1.1613 -1.8934
11068TIP3   OH254694   4.587   0.383   5.572  0.1661 -0.7069 -0.6671
11068TIP3    H154695   4.496   0.384   5.603 -0.2963 -0.8693 -1.9951
11068TIP3    H254696   4.633   0.330   5.637  0.2578  3.0574  2.4801
11069TIP3   OH254697   5.655   5.412  11.491 -0.5180  0.0191  0.1881
11069TIP3    H154698   5.590   5.452  11.434  0.7399  2.6673  0.5462
11069TIP3    H254699   5.735   5.463  11.478  1.5075 -3.0687 -0.1264
11070TIP3   OH254700   5.375   6.442   2.007 -0.1077 -0.2917  0.8032
11070TIP3    H154701   5.421   6.526   2.010 -2.1352  0.8699  0.4374
11070TIP3    H254702   5.383   6.407   2.096  0.1338  0.6316  1.1522
11071TIP3   OH254703   4.579   1.062  10.564 -0.0190 -0.2373  0.5373
11071TIP3    H154704   4.598   1.095  10.652 -1.3057 -0.0042  0.7329
11071TIP3    H254705   4.583   0.967  10.572  1.3589 -0.1961  0.4991
11072TIP3   OH254706   3.182   6.310  11.938  0.2570  0.0831  0.1692
11072TIP3    H154707   3.120   6.250  11.897  1.0680  1.3120 -2.9307
11072TIP3    H254708   3.257   6.255  11.961 -0.7852 -0.8711  1.3936
11073TIP3   OH254709   6.518   0.686  13.035 -0.5283 -0.2124 -1.1111
11073TIP3    H154710   6.564   0.617  12.987 -1.3371 -1.1425 -0.5651
11073TIP3    H254711   6.528   0.764  12.981  0.5603 -0.7094 -1.6454
11074TIP3   OH254712   3.197   6.538   4.546 -0.3587  0.9667  0.4718
11074TIP3    H154713   3.192   6.634   4.543  2.2379  1.1396  0.4349
11074TIP3    H254714   3.131   6.509   4.483  0.1191  2.7895 -0.9210
11075TIP3   OH254715   1.347   6.314  12.028  0.6057  0.1908  0.0511
11075TIP3    H154716   1.385   6.236  11.987  1.1250  0.5407 -0.1549
11075TIP3    H254717   1.258   6.289  12.051  0.2215  0.0457 -1.5207
11076TIP3   OH254718   0.075   2.541   2.700 -0.0156  0.5004  0.1968
11076TIP3    H154719   0.122   2.577   2.625 -0.5977  0.5568 -0.1378
11076TIP3    H254720   0.046   2.617   2.750 -1.3796  0.5180 -0.5917
11077TIP3   OH254721   6.516   1.187  13.204 -0.1858  0.0542  0.6737
11077TIP3    H154722   6.529   1.218  13.114 -2.3599  2.3949  1.0959
11077TIP3    H254723   6.466   1.106  13.194  0.3973 -0.1998 -0.2711
11078TIP3   OH254724   2.712   1.817   2.338 -0.0226 -0.3297  0.8585
11078TIP3    H154725   2.808   1.821   2.343 -0.0169  0.3319  0.3908
11078TIP3    H254726   2.693   1.806   2.245 -0.3825 -1.2969  1.0446
11079TIP3   OH254727   3.604   5.643   0.460 -0.2244 -0.2831  0.0977
11079TIP3    H154728   3.677   5.704   0.472 -0.5445  0.5623 -1.9864
11079TIP3    H254729   3.563   5.636   0.546  0.8238  1.1633  0.7216
11080TIP3   OH254730   1.718   0.484   4.701  0.0800 -0.0660 -0.3897
11080TIP3    H154731   1.771   0.532   4.765 -0.7269 -0.0019  0.2504
11080TIP3    H254732   1.706   0.545   4.629 -3.7179  2.0044  1.8282
11081TIP3   OH254733   5.899   0.484  11.657 -0.0980  0.5503  0.2885
11081TIP3    H154734   5.804   0.495  11.653 -0.1562 -0.2152 -0.5473
11081TIP3    H254735   5.913   0.389  11.662  0.5602  0.7396  2.3672
11082TIP3   OH254736   6.718   0.180  12.795 -0.0623  0.1628 -0.1907
11082TIP3    H154737   6.757   0.215  12.874  1.4230 -1.7015 -0.0723
11082TIP3    H254738   6.631   0.149  12.822 -0.4797  1.6616  0.1823
11083TIP3   OH254739   0.786   2.722  12.557 -0.0151  0.5569  0.3009
11083TIP3    H154740   0.831   2.786  12.612  0.1073  0.5525  0.2053
11083TIP3    H254741   0.694   2.747  12.563  0.1032  1.1376 -0.2585
11084TIP3   OH254742   4.969   0.121   1.378 -0.3867 -0.4418 -0.1458
11084TIP3    H154743   4.957   0.054   1.445 -0.2051 -0.7022 -0.3717
11084TIP3    H254744   4.951   0.075   1.296  0.9180 -0.5278 -0.3989
11085TIP3   OH254745   5.647   4.623  17.153 -0.2783 -0.0579  0.3720
11085TIP3    H154746   5.658   4.650  17.244 -1.1903 -0.9062  0.7344
11085TIP3    H254747   5.642   4.528  17.156 -0.5423 -0.0796 -0.5436
11086TIP3   OH254748   6.696   0.119   4.693  0.2467 -0.2344 -0.2041
11086TIP3    H154749   6.776   0.073   4.718  1.1316  1.4707  0.1872
11086TIP3    H254750   6.701   0.126   4.598  0.1770 -0.8098 -0.2529
11087TIP3   OH254751   5.699   6.732   5.427 -0.1947 -0.4016 -0.0934
11087TIP3    H154752   5.790   6.756   5.445  0.1475 -1.8835  0.1686
11087TIP3    H254753   5.650   6.767   5.500  0.0763  0.9539 -0.5471
11088TIP3   OH254754   0.762   1.613  15.055 -0.1583  0.0089  0.4329
11088TIP3    H154755   0.721   1.543  15.004  2.6544  0.5974 -2.8740
11088TIP3    H254756   0.703   1.688  15.047 -0.4397 -0.3475 -0.8105
11089TIP3   OH254757   3.777   5.507   5.858 -0.0394 -0.3090  0.4874
11089TIP3    H154758   3.824   5.426   5.841 -0.2679 -0.7593  1.9138
11089TIP3    H254759   3.845   5.569   5.886  0.1388  0.0112 -0.6298
11090TIP3   OH254760   3.087   2.552  16.233  0.1567  0.1459 -0.2420
11090TIP3    H154761   3.134   2.470  16.219 -0.6405 -0.4376  0.3987
11090TIP3    H254762   3.111   2.578  16.322  1.0987  1.0801 -0.7552
11091TIP3   OH254763   3.952   1.087   0.945 -0.1501  0.2226  0.2400
11091TIP3    H154764   4.046   1.105   0.937 -0.0962 -0.5333 -1.1261
11091TIP3    H254765   3.937   1.074   1.038  1.3765 -0.9931  0.3344
11092TIP3   OH254766   6.703   5.745   1.439 -0.8447  0.6437  0.2593
11092TIP3    H154767   6.690   5.715   1.529 -2.0742  0.3905  0.0056
11092TIP3    H254768   6.655   5.682   1.385 -0.1357  0.8050 -0.5752
11093TIP3   OH254769   3.397   3.015   3.610  0.2265  0.0765  0.0779
11093TIP3    H154770   3.463   2.947   3.622 -0.4857 -0.1311  3.5132
11093TIP3    H254771   3.445   3.097   3.623  0.8460  0.2379 -2.8930
11094TIP3   OH254772   0.780   5.537   2.606  0.2710 -0.2083  0.0717
11094TIP3    H154773   0.782   5.452   2.651  1.5558  0.3829  1.1582
11094TIP3    H254774   0.866   5.575   2.623 -1.5115  2.8837  2.6869
11095TIP3   OH254775   6.167   3.180  16.455  0.2828  0.2836  0.4777
11095TIP3    H154776   6.220   3.101  16.465 -0.2294 -0.0758  0.3889
11095TIP3    H254777   6.077   3.147  16.447  0.3382  0.7212 -2.3740
11096TIP3   OH254778   3.665   6.173   1.924 -0.4053  0.1338  0.3631
11096TIP3    H154779   3.746   6.188   1.875 -1.6874  0.4090 -1.7479
11096TIP3    H254780   3.666   6.079   1.944  0.3995  0.1197  0.2656
11097TIP3   OH254781   0.721   1.403   1.095 -0.1101 -0.1473 -0.1606
11097TIP3    H154782   0.803   1.445   1.122 -0.0239 -0.4303  0.0129
11097TIP3    H254783   0.655   1.471   1.109  0.0394 -0.0420  0.0508
11098TIP3   OH254784   5.061   4.457   5.374 -0.3637 -0.4392 -0.0394
11098TIP3    H154785   4.979   4.427   5.413 -1.1799 -0.9223 -2.0476
11098TIP3    H254786   5.101   4.512   5.441 -1.4229 -1.7156  1.6760
11099TIP3   OH254787   2.887   6.020   0.238  0.2723 -0.3376 -0.7552
11099TIP3    H154788   2.825   5.968   0.289  0.9419  0.3733  0.7939
11099TIP3    H254789   2.875   5.989   0.148 -1.7020 -0.8284 -0.3472
11100TIP3   OH254790   5.535   4.346   4.452 -0.1939 -0.2678  0.0887
11100TIP3    H154791   5.466   4.404   4.485 -0.6433 -0.4331 -0.5341
11100TIP3    H254792   5.506   4.324   4.363  0.7275 -0.2494 -0.2157
11101TIP3   OH254793   0.938   2.651  10.547  0.1750  0.8354  0.2825
11101TIP3    H154794   0.979   2.637  10.462  2.0388  2.4602  0.8777
11101TIP3    H254795   0.914   2.744  10.547  0.0452  0.8121  1.4520
11102TIP3   OH254796   4.047   6.524  16.902 -0.3554 -0.1640 -0.0913
11102TIP3    H154797   4.082   6.611  16.919  1.1788 -0.9472  0.8424
11102TIP3    H254798   4.067   6.474  16.981 -0.3529 -1.6314 -0.9946
11103TIP3   OH254799   5.257   1.393  15.637 -0.7580  0.2911 -0.4830
11103TIP3    H154800   5.275   1.314  15.586  0.9545 -0.9022  1.8829
11103TIP3    H254801   5.302   1.463  15.590 -0.0347 -0.5992 -1.1221
11104TIP3   OH254802   4.760   0.169  12.026  0.3315  0.0324 -0.5222
11104TIP3    H154803   4.762   0.105  11.955  0.7483  0.0474 -0.5255
11104TIP3    H254804   4.718   0.123  12.099 -0.1546  0.0394 -0.7975
11105TIP3   OH254805   4.995   0.189  16.119 -0.2360  0.0014  0.0596
11105TIP3    H154806   4.999   0.121  16.186 -2.8044 -0.0022  0.2703
11105TIP3    H254807   4.962   0.144  16.041  4.4981 -0.4009 -1.8437
11106TIP3   OH254808   6.579   6.096   0.190  0.1864  0.5666 -0.5676
11106TIP3    H154809   6.573   6.158   0.117  4.1728  0.0926 -1.3997
11106TIP3    H254810   6.581   6.151   0.268 -0.2914  1.2730 -1.0496
11107TIP3   OH254811   4.338   1.395  13.262 -0.5461 -0.1246 -0.3824
11107TIP3    H154812   4.428   1.397  13.229 -0.1765 -0.0140  0.6034
11107TIP3    H254813   4.346   1.422  13.354 -1.6642  0.4875 -0.4588
11108TIP3   OH254814   2.435   3.739   0.123  0.1847  0.0721 -0.2698
11108TIP3    H154815   2.437   3.668   0.059  0.1803  1.0933 -1.4141
11108TIP3    H254816   2.480   3.811   0.080 -0.3387  0.9545  0.6600
11109TIP3   OH254817   6.609   0.286  14.470 -0.1794  0.6720  0.2494
11109TIP3    H154818   6.674   0.279  14.540  0.2114  3.0496  0.1562
11109TIP3    H254819   6.528   0.308  14.515 -0.3388  0.3842  0.1075
11110TIP3   OH254820   0.801   3.131  11.790 -0.0898  0.2947 -0.1636
11110TIP3    H154821   0.854   3.087  11.856  0.9038  0.2100 -0.9920
11110TIP3    H254822   0.738   3.065  11.762  0.5553 -0.1962 -0.4707
11111TIP3   OH254823   1.020   4.085   0.291  0.2753  0.6340 -0.3281
11111TIP3    H154824   1.023   4.000   0.335  2.2181 -0.6229 -2.7433
11111TIP3    H254825   0.931   4.117   0.305 -0.4077 -1.6885  0.8325
11112TIP3   OH254826   4.176   3.180  13.797 -0.5968  0.1537 -0.0505
11112TIP3    H154827   4.118   3.120  13.844 -1.6402 -1.4694 -3.2450
11112TIP3    H254828   4.255   3.129  13.780 -0.7977  0.2401 -1.2769
11113TIP3   OH254829   0.766   5.657  11.976  0.3470  0.5164  0.4419
11113TIP3    H154830   0.762   5.710  12.055 -0.6283  1.0201  0.0692
11113TIP3    H254831   0.730   5.572  12.002 -0.0195  0.6977  0.5391
11114TIP3   OH254832   3.293   3.713   6.067 -0.3179  0.5373 -0.7509
11114TIP3    H154833   3.231   3.648   6.100  0.4562 -0.4999 -1.3080
11114TIP3    H254834   3.278   3.790   6.122 -0.6455 -0.3930  0.5008
11115TIP3   OH254835   5.399   4.602   1.849 -0.0409 -0.2317 -0.0873
11115TIP3    H154836   5.427   4.580   1.761  0.0723 -0.0357 -0.1021
11115TIP3    H254837   5.304   4.588   1.849  0.0516 -0.8794 -0.0437
11116TIP3   OH254838   6.286   5.196  13.769 -1.2750 -0.0477 -0.4991
11116TIP3    H154839   6.246   5.282  13.779 -0.0977  0.7571 -2.5080
11116TIP3    H254840   6.302   5.167  13.859 -0.8825  2.2134  0.2029
11117TIP3   OH254841   3.226   6.797   0.546  0.2063 -0.4396  0.1772
11117TIP3    H154842   3.310   6.752   0.554  0.3668 -0.2577 -0.4873
11117TIP3    H254843   3.195   6.806   0.636  0.8743 -0.5541  0.4194
11118TIP3   OH254844   4.709   2.290   5.560 -0.2327  0.5269 -0.8880
11118TIP3    H154845   4.626   2.259   5.524  0.9884 -1.3912 -2.0995
11118TIP3    H254846   4.760   2.211   5.577  1.1234  1.6453  0.4485
11119TIP3   OH254847   4.348   0.827   2.807  0.1620 -0.7707  0.1342
11119TIP3    H154848   4.259   0.842   2.775  0.8777  2.4434 -0.4705
11119TIP3    H254849   4.343   0.844   2.901  0.2538 -0.0119  0.0037
11120TIP3   OH254850   5.239   0.853  16.132  0.6244  0.0192 -0.0066
11120TIP3    H154851   5.164   0.794  16.138  1.3720 -0.9137  0.3199
11120TIP3    H254852   5.310   0.798  16.099  1.6649  0.4444  1.4862
11121TIP3   OH254853   6.520   4.014  14.194 -0.0630  0.3758 -0.1695
11121TIP3    H154854   6.551   4.104  14.182 -0.8705  0.3462 -2.8795
11121TIP3    H254855   6.428   4.016  14.166 -0.2261 -1.1787  0.1991
11122TIP3   OH254856   2.019   4.044  17.210  0.6682 -0.3414 -0.1072
11122TIP3    H154857   2.107   4.022  17.179  0.5297 -0.8752 -0.1258
11122TIP3    H254858   1.970   4.064  17.131  1.1753  1.4544  0.0086
11123TIP3   OH254859   4.810   2.193  16.372 -0.2509  0.0296  0.0784
11123TIP3    H154860   4.764   2.114  16.344 -0.0721 -0.4412  1.0956
11123TIP3    H254861   4.896   2.187  16.329 -0.9375  0.6658 -1.4236
11124TIP3   OH254862   4.061   6.600  16.041  0.6766  0.1609 -0.0982
11124TIP3    H154863   4.051   6.623  15.948  2.0302 -2.1337 -0.8343
11124TIP3    H254864   3.976   6.564  16.066  0.1575  1.2217 -0.3042
11125TIP3   OH254865   0.235   3.958   0.014 -0.6858  1.0404 -0.0812
11125TIP3    H154866   0.218   3.883   0.072  0.4162  0.5776 -0.3478
11125TIP3    H254867   0.179   4.028   0.048 -2.4766 -0.1959 -0.4395
11126TIP3   OH254868   3.419   1.458   1.293 -0.0552 -0.3204  0.0988
11126TIP3    H154869   3.456   1.519   1.230 -0.5160 -2.4006 -2.2669
11126TIP3    H254870   3.495   1.416   1.334  0.2401  0.8549  0.7759
11127TIP3   OH254871   4.169   4.536  14.889  0.0880  0.3518 -0.4731
11127TIP3    H154872   4.137   4.447  14.875  0.2985  0.3711 -1.0925
11127TIP3    H254873   4.090   4.588  14.902  0.0246 -0.1659  1.3597
11128TIP3   OH254874   3.132   0.467   0.865 -0.1134 -0.9553 -0.0085
11128TIP3    H154875   3.100   0.497   0.780  1.7437  1.8962  0.2017
11128TIP3    H254876   3.179   0.386   0.846 -0.5724 -0.8877 -1.5215
11129TIP3   OH254877   5.545   2.777  16.889 -0.0471 -0.1996 -0.3742
11129TIP3    H154878   5.491   2.700  16.873 -1.6076  1.0232 -1.1854
11129TIP3    H254879   5.618   2.745  16.943 -1.6272 -1.8640  0.8360
11130TIP3   OH254880   6.723   4.300  13.095 -0.3254  0.3315 -0.0268
11130TIP3    H154881   6.795   4.344  13.139  0.2168 -0.2959 -0.2847
11130TIP3    H254882   6.751   4.208  13.087 -1.8747 -0.2926  1.4549
11131TIP3   OH254883   0.796   2.205   5.253 -0.4740 -0.3938 -0.0035
11131TIP3    H154884   0.861   2.228   5.320 -0.5973 -0.6828  0.2140
11131TIP3    H254885   0.712   2.223   5.294 -0.5830 -1.6043  0.3041
11132TIP3   OH254886   5.219   2.393   1.683 -0.4649 -0.0838  0.9226
11132TIP3    H154887   5.145   2.334   1.700 -1.9354  0.8902 -1.8997
11132TIP3    H254888   5.284   2.338   1.639 -0.2805 -0.4841  1.6864
11133TIP3   OH254889   0.944   3.679  11.778 -0.4544 -0.2223 -0.1473
11133TIP3    H154890   1.035   3.695  11.754 -1.2165  2.4387 -1.4891
11133TIP3    H254891   0.940   3.585  11.795  2.7924 -0.1977  1.1450
11134TIP3   OH254892   0.051   2.334   2.846  0.6650 -0.1574  0.1090
11134TIP3    H154893   0.068   2.401   2.780 -0.8556  1.8343  1.6391
11134TIP3    H254894   0.107   2.357   2.919  0.7079 -1.0276  0.3592
11135TIP3   OH254895   1.952   3.403  17.006  0.1822 -0.1786 -0.2479
11135TIP3    H154896   2.045   3.427  17.004  0.1836 -0.2357 -0.8711
11135TIP3    H254897   1.908   3.480  17.042  0.7090 -0.9303  2.0827
11136TIP3   OH254898   3.098   5.724  12.413  0.1736 -0.0367  0.2479
11136TIP3    H154899   3.039   5.783  12.365 -0.2310 -0.8831 -0.3096
11136TIP3    H254900   3.186   5.759  12.394 -0.1495  1.3873  1.3070
11137TIP3   OH254901   5.888   1.801   5.191 -0.5916 -0.3828  0.4579
11137TIP3    H154902   5.934   1.768   5.114  1.9256 -0.2238  1.8398
11137TIP3    H254903   5.818   1.738   5.206  0.6166 -1.9260 -0.2985
11138TIP3   OH254904   2.857   3.033   2.389  0.2516  0.1523 -0.4724
11138TIP3    H154905   2.792   2.967   2.365 -1.2440  0.9550  1.2313
11138TIP3    H254906   2.879   3.014   2.480 -0.6180  2.2888  0.2333
11139TIP3   OH254907   4.135   2.509  13.194 -0.4978 -0.0129 -0.2008
11139TIP3    H154908   4.201   2.577  13.200 -1.9557  1.4214  0.0812
11139TIP3    H254909   4.123   2.494  13.101  0.4130 -0.4674 -0.2432
11140TIP3   OH254910   0.186   2.070   0.902  0.1741  0.0424  0.3677
11140TIP3    H154911   0.228   2.148   0.938  0.5730 -0.7273  1.5980
11140TIP3    H254912   0.258   2.019   0.866  0.0473 -0.2884  0.5841
11141TIP3   OH254913   6.456   4.861  15.412 -0.3150  0.3769  1.0232
11141TIP3    H154914   6.365   4.882  15.432 -0.7770  0.9789 -1.4788
11141TIP3    H254915   6.508   4.925  15.462 -1.2870  0.6042  1.7512
11142TIP3   OH254916   0.179   2.676   4.382  0.4351 -0.1384  0.1341
11142TIP3    H154917   0.267   2.712   4.384  0.0147  0.8814  0.4592
11142TIP3    H254918   0.189   2.591   4.338  1.5244  0.0922 -0.0807
11143TIP3   OH254919   6.188   6.388   4.655 -0.2638  0.1105 -0.1187
11143TIP3    H154920   6.098   6.416   4.637  0.4907  1.9483 -1.1502
11143TIP3    H254921   6.232   6.468   4.683  0.9662 -0.8573  0.7253
11144TIP3   OH254922   3.876   4.824   2.651 -0.0763 -0.6680  0.3759
11144TIP3    H154923   3.864   4.871   2.734  1.4225 -0.6152  0.5746
11144TIP3    H254924   3.941   4.756   2.671 -0.2166 -1.0923 -0.5894
11145TIP3   OH254925   3.824   5.472   0.992  0.4114  0.2335 -0.3546
11145TIP3    H154926   3.807   5.498   0.901  1.4454 -0.2662 -0.6926
11145TIP3    H254927   3.802   5.379   0.995  0.0772  0.3206 -0.0083
11146TIP3   OH254928   3.963   0.854  15.249 -0.5385  0.0994 -0.0276
11146TIP3    H154929   3.869   0.838  15.243 -0.5799 -0.5337  1.9860
11146TIP3    H254930   3.971   0.930  15.307  0.1164  1.5231 -1.9174
11147TIP3   OH254931   6.698   2.120   2.187 -0.6304  0.2548  0.1086
11147TIP3    H154932   6.714   2.135   2.093  1.5359 -1.7750  0.1115
11147TIP3    H254933   6.756   2.182   2.231 -0.8276  0.4429  0.1031
11148TIP3   OH254934   2.546   0.082   0.616 -0.1018  0.0812 -0.4006
11148TIP3    H154935   2.586   0.006   0.660 -2.7271 -0.3155  1.3915
11148TIP3    H254936   2.572   0.072   0.524  1.5471 -1.6870  0.2181
11149TIP3   OH254937   3.589   2.445   2.059 -0.1746 -0.8258  0.0624
11149TIP3    H154938   3.504   2.402   2.068 -0.2234 -1.0056 -1.1782
11149TIP3    H254939   3.568   2.535   2.032  0.0578 -1.2889 -1.7324
11150TIP3   OH254940   3.736   4.229   4.056 -0.2677  0.3769 -0.2204
11150TIP3    H154941   3.777   4.206   3.973 -0.3010 -0.9754  0.1189
11150TIP3    H254942   3.805   4.272   4.106 -0.2316  1.1442 -0.9206
11151TIP3   OH254943   6.426   5.733   2.625 -0.3155  0.1345  0.9634
11151TIP3    H154944   6.382   5.649   2.636 -1.4764  1.1188  4.8004
11151TIP3    H254945   6.519   5.713   2.637 -0.2415 -1.0657 -1.4044
11152TIP3   OH254946   4.292   5.804   3.974  0.1106 -0.3016 -0.2509
11152TIP3    H154947   4.248   5.822   3.891  0.2154 -1.0251 -0.4694
11152TIP3    H254948   4.336   5.886   3.997 -0.0144 -0.0665 -0.8464
11153TIP3   OH254949   4.841   2.109  13.161  0.0031  0.5025 -0.2290
11153TIP3    H154950   4.795   2.146  13.085 -0.0064 -1.3677 -1.1717
11153TIP3    H254951   4.931   2.098  13.131 -0.0918 -0.6240 -0.0960
11154TIP3   OH254952   0.006   0.217   0.619 -0.0221  0.5495  0.0367
11154TIP3    H154953   0.068   0.291   0.615 -0.6894  1.1019 -0.1614
11154TIP3    H254954  -0.079   0.257   0.601 -0.5708 -0.0343  1.3128
11155TIP3   OH254955   3.424   1.042  15.777 -0.6313 -0.0181  0.1337
11155TIP3    H154956   3.489   0.988  15.822 -0.1789  0.1326 -0.3338
11155TIP3    H254957   3.462   1.058  15.691 -1.4233 -0.1738 -0.2449
11156TIP3   OH254958   5.467   0.315  12.541 -0.1772  0.5440 -0.0842
11156TIP3    H154959   5.512   0.236  12.570  1.5807  2.0723  1.5078
11156TIP3    H254960   5.498   0.330  12.452 -1.8476 -1.4730 -1.0486
11157TIP3   OH254961   6.482   5.108  12.872 -0.1894  0.9176  0.1300
11157TIP3    H154962   6.469   5.166  12.796 -2.2456  2.0251  1.2643
11157TIP3    H254963   6.522   5.164  12.938 -2.6465  1.2366  1.4057
11158TIP3   OH254964   5.925   3.187  14.322  0.0452  0.7136 -0.4523
11158TIP3    H154965   5.880   3.175  14.406 -0.5830 -1.5781 -1.0902
11158TIP3    H254966   6.015   3.212  14.347  0.5997 -2.5275  0.9678
11159TIP3   OH254967   3.237   6.094   3.906 -0.2589 -0.1221 -0.9141
11159TIP3    H154968   3.221   6.001   3.922 -1.2150  0.3690  1.1960
11159TIP3    H254969   3.251   6.131   3.993 -2.0618  2.0863 -1.4970
11160TIP3   OH254970   0.699   1.815   1.691 -0.1053  0.4634  0.6729
11160TIP3    H154971   0.649   1.763   1.628 -1.2121  1.0971  1.0078
11160TIP3    H254972   0.790   1.807   1.662 -0.6067  0.8661 -1.1019
11161TIP3   OH254973   3.373   0.192  14.291 -0.3383  0.0652  0.7428
11161TIP3    H154974   3.316   0.209  14.215  1.2024  2.1530  0.0112
11161TIP3    H254975   3.328   0.122  14.339 -0.8921 -2.0385 -2.5938
11162TIP3   OH254976   4.271   4.278   0.413  0.0966  0.2557 -0.1081
11162TIP3    H154977   4.293   4.211   0.478 -0.0751  1.3016  1.0508
11162TIP3    H254978   4.204   4.237   0.358 -0.4396 -0.3172  0.9558
11163TIP3   OH254979   1.679   2.922   3.301 -0.3369  0.0815 -0.3433
11163TIP3    H154980   1.743   2.991   3.317 -0.1355  0.1901 -1.6016
11163TIP3    H254981   1.662   2.926   3.207 -1.6428 -0.4249 -0.1384
11164TIP3   OH254982   6.590   2.836   0.890  0.2876 -0.5057  0.0088
11164TIP3    H154983   6.617   2.746   0.872  1.7852 -0.2365  0.7997
11164TIP3    H254984   6.494   2.833   0.887  0.3152 -2.0960 -0.0905
11165TIP3   OH254985   2.305   3.449  12.003 -0.7146  0.1326 -0.1506
11165TIP3    H154986   2.305   3.354  12.016 -1.5405  0.1488 -0.0427
11165TIP3    H254987   2.398   3.472  12.004 -0.4286 -0.8664 -1.5717
11166TIP3   OH254988   3.123   6.551   1.703  0.0647  0.6478 -0.5202
11166TIP3    H154989   3.132   6.599   1.621  1.3259  1.4593  0.0882
11166TIP3    H254990   3.156   6.464   1.684  0.1598  0.7707 -0.9228
11167TIP3   OH254991   0.765   2.574   2.546  0.1173 -0.0158  0.0723
11167TIP3    H154992   0.776   2.549   2.454 -1.8636 -0.5409 -0.0613
11167TIP3    H254993   0.701   2.510   2.580  1.3601 -0.2606  2.0063
11168TIP3   OH254994   1.069   5.456   5.822 -0.2202 -0.3708 -0.2781
11168TIP3    H154995   1.086   5.536   5.870  0.3051  0.0272 -1.1148
11168TIP3    H254996   0.975   5.458   5.804 -0.1724  0.1617 -0.4782
11169TIP3   OH254997   0.514   5.738   5.910 -0.7373  0.2184  0.5080
11169TIP3    H154998   0.495   5.815   5.963  1.0474  1.4104 -0.5662
11169TIP3    H254999   0.607   5.745   5.889 -0.7186 -1.8466 -0.2324
11170TIP3   OH255000   2.993   4.441   3.040 -0.3326  0.5474 -0.3832
11170TIP3    H155001   3.005   4.534   3.018  0.2291  0.6063  0.1569
11170TIP3    H255002   3.031   4.394   2.965  1.5367  0.7515  0.4032
11171TIP3   OH255003   3.868   5.268   5.195 -0.3135 -0.0672 -0.5780
11171TIP3    H155004   3.902   5.180   5.210 -0.9702 -0.3698 -0.8738
11171TIP3    H255005   3.825   5.292   5.278 -0.4855 -0.1837 -0.6333
11172TIP3   OH255006   3.777   4.205   1.272 -0.4146 -0.2817  0.1397
11172TIP3    H155007   3.858   4.178   1.230 -0.2826  0.8852 -0.3936
11172TIP3    H255008   3.708   4.185   1.209 -0.2045  1.5776 -0.7286
11173TIP3   OH255009   2.153   1.120  11.761  0.0016  0.5295 -0.4040
11173TIP3    H155010   2.196   1.121  11.675 -0.2859 -1.1281 -0.5931
11173TIP3    H255011   2.103   1.038  11.762 -0.3264  0.7227  1.1839
11174TIP3   OH255012   6.246   2.186   3.320 -0.0184  0.2131  0.2903
11174TIP3    H155013   6.164   2.141   3.298 -1.6144  2.3810  1.7167
11174TIP3    H255014   6.298   2.119   3.365 -2.3897 -0.2202  2.4677
11175TIP3   OH255015   6.026   6.666  16.831 -0.1119 -0.0516  0.2860
11175TIP3    H155016   5.998   6.725  16.901 -0.0686 -0.2799  0.4937
11175TIP3    H255017   6.065   6.591  16.876 -2.5591 -1.4799  0.1168
11176TIP3   OH255018   0.672   3.734   1.616  0.4692 -0.6223 -0.3571
11176TIP3    H155019   0.630   3.790   1.551  0.2451  0.3448  0.6161
11176TIP3    H255020   0.684   3.790   1.693  0.3375 -1.8776  0.5928
11177TIP3   OH255021   3.063   3.073   0.386 -0.3993  0.1340 -0.7028
11177TIP3    H155022   3.024   3.024   0.314 -0.0839 -0.7048 -0.3118
11177TIP3    H255023   3.085   3.158   0.348  1.1915 -0.8346 -2.0338
11178TIP3   OH255024   3.601   6.188   1.534 -0.1410 -0.1159  0.5728
11178TIP3    H155025   3.571   6.103   1.566  0.3770 -0.6668 -0.3810
11178TIP3    H255026   3.670   6.214   1.595  0.9388 -1.2277 -0.1649
11179TIP3   OH255027   5.807   6.758  15.676  0.0376  0.0534  0.0803
11179TIP3    H155028   5.784   6.780  15.586  2.6584  0.5225 -0.5263
11179TIP3    H255029   5.902   6.773  15.681 -0.0325 -0.1100  2.8727
11180TIP3   OH255030   5.596   4.537   5.624  0.2812  0.0633 -0.3625
11180TIP3    H155031   5.590   4.443   5.640 -1.1026  0.3747  1.0667
11180TIP3    H255032   5.571   4.548   5.532 -1.6218 -0.7478  0.0508
11181TIP3   OH255033   2.160   1.597   1.559 -0.2574 -0.2735 -0.8648
11181TIP3    H155034   2.072   1.636   1.561 -0.4911 -0.6145 -3.0994
11181TIP3    H255035   2.145   1.505   1.579 -0.0900  0.1229  1.1973
11182TIP3   OH255036   1.103   1.036   2.990  0.1171 -0.2022 -0.0127
11182TIP3    H155037   1.075   1.102   2.926 -0.1157 -0.7375 -0.4607
11182TIP3    H255038   1.189   1.067   3.020 -1.0974  1.6837  1.6857
11183TIP3   OH255039   0.534   0.392   0.783  0.3599  0.7590  0.3367
11183TIP3    H155040   0.563   0.392   0.692  0.1783  0.5243  0.2773
11183TIP3    H255041   0.448   0.436   0.781  0.7773  1.5905  0.5345
11184TIP3   OH255042   2.493   5.189  14.803 -0.3406 -0.2034  0.0912
11184TIP3    H155043   2.558   5.172  14.871 -0.5887  0.6159  0.5405
11184TIP3    H255044   2.414   5.144  14.835 -0.1425 -0.7533 -0.1973
11185TIP3   OH255045   0.212   6.724   3.261  0.1040  0.3785  0.2167
11185TIP3    H155046   0.285   6.747   3.203  0.8070 -1.0228  0.5223
11185TIP3    H255047   0.220   6.630   3.274 -2.7012 -0.0896 -0.9890
11186TIP3   OH255048   4.867   3.258  14.132  0.9027  0.4004  0.4636
11186TIP3    H155049   4.798   3.204  14.169  0.9109 -0.2536 -0.4601
11186TIP3    H255050   4.917   3.288  14.208 -1.4006  2.3037  1.2774
11187TIP3   OH255051   4.025   4.847  13.144  0.4112 -0.1133  0.3548
11187TIP3    H155052   3.957   4.843  13.211  0.7777  0.1841  0.7433
11187TIP3    H255053   4.052   4.938  13.142 -0.0125  0.0014 -0.6181
11188TIP3   OH255054   1.572   2.763  10.919 -0.2018  0.4476 -0.4494
11188TIP3    H155055   1.543   2.824  10.987 -1.5771  0.3073 -0.8795
11188TIP3    H255056   1.667   2.765  10.924 -0.2775  0.5293  1.3862
11189TIP3   OH255057   0.473   1.790   0.281  0.6790 -0.3369  0.4940
11189TIP3    H155058   0.500   1.881   0.270 -0.9459 -0.1400 -2.6068
11189TIP3    H255059   0.542   1.740   0.237 -0.0738 -0.3477 -0.7004
11190TIP3   OH255060   3.187   2.234  11.399 -0.5655 -0.3159  0.3621
11190TIP3    H155061   3.124   2.228  11.471  0.2316  3.1604  1.4488
11190TIP3    H255062   3.145   2.291  11.335 -0.0186 -0.9712 -0.5880
11191TIP3   OH255063   4.406   0.439   3.224  0.1330 -0.3790  0.5978
11191TIP3    H155064   4.333   0.398   3.271  0.5027 -1.0721  0.5789
11191TIP3    H255065   4.365   0.480   3.148 -0.0270 -2.2864 -0.3778
11192TIP3   OH255066   4.445   1.694  15.118  0.4658  0.6038  0.2742
11192TIP3    H155067   4.477   1.722  15.203 -0.1642  0.8897  0.4228
11192TIP3    H255068   4.482   1.756  15.056 -1.0804  1.9147  0.6232
11193TIP3   OH255069   0.392   6.345   2.660  0.6820 -0.5809  0.0205
11193TIP3    H155070   0.438   6.428   2.650  0.0074  0.0241  1.7467
11193TIP3    H255071   0.406   6.299   2.577  1.5956  0.9834 -0.7025
11194TIP3   OH255072   0.290   4.143   4.513 -0.2729 -0.0463  0.3751
11194TIP3    H155073   0.349   4.214   4.490 -0.2723 -0.3612 -0.6223
11194TIP3    H255074   0.333   4.098   4.585  0.5590 -0.0917 -0.1508
11195TIP3   OH255075   6.632   5.526  17.009  0.2613 -0.0122  0.0528
11195TIP3    H155076   6.580   5.458  17.053 -1.2158  1.6842  1.0502
11195TIP3    H255077   6.707   5.540  17.067  0.0982 -0.1752  0.3055
11196TIP3   OH255078   4.546   4.584  12.269  0.0340 -0.3142 -0.1476
11196TIP3    H155079   4.567   4.497  12.235  0.5826  1.2009 -3.9248
11196TIP3    H255080   4.627   4.634  12.259 -0.6370  0.9992  0.8202
11197TIP3   OH255081   5.542   1.330  16.292 -0.4124 -0.0159  0.3912
11197TIP3    H155082   5.620   1.383  16.274 -0.1721 -1.1024 -2.1095
11197TIP3    H255083   5.546   1.313  16.386  1.9248  0.6515  0.4648
11198TIP3   OH255084   3.729   3.447  17.017 -0.6558 -0.4195  0.7857
11198TIP3    H155085   3.693   3.488  16.938  0.7760  0.2923  0.4822
11198TIP3    H255086   3.701   3.504  17.089  1.8201  1.4845  0.3062
11199TIP3   OH255087   0.191   5.098  11.205 -0.3553  0.5151  0.0924
11199TIP3    H155088   0.216   5.100  11.297  2.2456 -1.3836 -0.5423
11199TIP3    H255089   0.140   5.018  11.195  0.6801 -0.0765 -0.4467
11200TIP3   OH255090   0.240   4.093   5.672 -0.3841 -0.0109 -0.8243
11200TIP3    H155091   0.248   4.153   5.597 -0.4277  3.1019  1.5849
11200TIP3    H255092   0.293   4.132   5.741  0.0539 -3.0855  0.6954
11201TIP3   OH255093   1.280   2.148  12.931  0.4520  0.1298 -0.0965
11201TIP3    H155094   1.199   2.119  12.973 -0.7802  2.3961 -0.7693
11201TIP3    H255095   1.335   2.180  13.003 -0.0144  0.2851  0.1907
11202TIP3   OH255096   0.897   3.879  15.115  0.3350 -0.1991 -0.4998
11202TIP3    H155097   0.963   3.810  15.109  1.5477  0.9199 -0.4438
11202TIP3    H255098   0.814   3.835  15.099  0.9274 -1.9602  1.0796
11203TIP3   OH255099   0.045   5.945  15.782 -0.2863 -0.3669 -0.1099
11203TIP3    H155100   0.122   5.983  15.737  0.0923 -2.0055 -0.8696
11203TIP3    H255101  -0.029   5.968  15.726  0.0834 -1.6771 -1.1640
11204TIP3   OH255102   1.369   0.472   4.094  0.3482 -0.8655  0.2071
11204TIP3    H155103   1.448   0.424   4.119 -0.5096 -1.8604  1.0653
11204TIP3    H255104   1.303   0.445   4.159 -0.5441  0.3633 -0.1654
11205TIP3   OH255105   1.530   6.262  14.463 -0.0322  0.1088 -0.0626
11205TIP3    H155106   1.583   6.268  14.542 -0.9282 -0.0851  0.5662
11205TIP3    H255107   1.523   6.352  14.431 -0.8559  0.3921  0.8859
11206TIP3   OH255108   0.853   2.451  12.669  0.0410 -0.1558  0.5924
11206TIP3    H155109   0.948   2.463  12.677  0.0760  0.7455 -0.8185
11206TIP3    H255110   0.819   2.539  12.654 -0.7709 -0.7047 -0.9762
11207TIP3   OH255111   2.988   2.013  10.400  0.4442  0.2321 -0.0586
11207TIP3    H155112   2.928   1.957  10.449 -0.1577 -1.1463 -2.3293
11207TIP3    H255113   2.936   2.089  10.375 -0.1435 -0.5335 -1.2292
11208TIP3   OH255114   4.391   2.172   2.265 -0.2059 -0.3375 -0.3111
11208TIP3    H155115   4.458   2.233   2.232  0.4690 -0.4423  0.8473
11208TIP3    H255116   4.427   2.085   2.249  0.1351 -0.3901  0.7005
11209TIP3   OH255117   6.364   4.226   5.941 -0.0325  0.1585  0.0398
11209TIP3    H155118   6.443   4.176   5.963  1.3968  2.6907  0.8577
11209TIP3    H255119   6.292   4.175   5.979  0.8514 -3.6062 -3.0236
11210TIP3   OH255120   3.545   3.811  11.495 -0.2116 -0.0686 -0.6006
11210TIP3    H155121   3.519   3.793  11.404  0.0514  0.9420 -0.8885
11210TIP3    H255122   3.603   3.887  11.488 -0.1657 -0.0053  0.4143
11211TIP3   OH255123   0.860   5.730  13.050  0.0450 -0.2008  0.5617
11211TIP3    H155124   0.769   5.706  13.065 -0.5472  1.0339 -0.9085
11211TIP3    H255125   0.883   5.784  13.126 -0.7925  0.3910  0.3979
11212TIP3   OH255126   5.163   2.007  10.966 -0.0087  0.5633 -0.0863
11212TIP3    H155127   5.156   1.945  10.893 -0.3309 -0.9183  1.1791
11212TIP3    H255128   5.209   2.082  10.929  0.9639 -0.6917 -1.4809
11213TIP3   OH255129   5.093   5.789   3.991 -0.7699  0.7605 -0.1194
11213TIP3    H155130   5.053   5.730   4.055  2.4675  0.9043  2.1582
11213TIP3    H255131   5.106   5.735   3.913 -1.6812 -0.3889  0.5112
11214TIP3   OH255132   3.094   3.383   3.465  0.1311  0.2373  0.3417
11214TIP3    H155133   3.107   3.383   3.560  0.1247 -0.5488  0.3462
11214TIP3    H255134   3.049   3.300   3.447  1.7731 -0.4724 -0.5692
11215TIP3   OH255135   4.749   6.201   2.849  0.1810 -0.3585 -0.4105
11215TIP3    H155136   4.742   6.166   2.760  2.9900  1.2018 -1.3115
11215TIP3    H255137   4.683   6.270   2.852  0.1231 -0.3673 -1.3247
11216TIP3   OH255138   4.932   6.221  12.704  0.4296 -0.0007  0.6894
11216TIP3    H155139   4.933   6.125  12.701 -1.0768  0.0073 -0.3993
11216TIP3    H255140   4.889   6.242  12.787 -0.4614 -0.2840  0.3077
11217TIP3   OH255141   3.650   0.156  15.475 -0.6999  0.5963  0.4191
11217TIP3    H155142   3.557   0.153  15.454 -0.8112 -0.3119  1.0366
11217TIP3    H255143   3.689   0.207  15.404 -1.9989  2.9548  1.3540
11218TIP3   OH255144   6.577   2.530   3.431 -0.2381  0.5989 -0.2830
11218TIP3    H155145   6.581   2.447   3.478  2.0445  0.6048 -0.3956
11218TIP3    H255146   6.511   2.516   3.363 -1.0208 -0.5735  0.6935
11219TIP3   OH255147   1.315   3.154  15.090  0.1507 -0.9928  0.6774
11219TIP3    H155148   1.222   3.137  15.100  0.3377 -2.1955  0.4955
11219TIP3    H255149   1.358   3.079  15.132  1.0213 -1.1371 -0.4326
11220TIP3   OH255150   5.197   3.382  14.407 -0.7109  0.6036 -0.1796
11220TIP3    H155151   5.107   3.350  14.419 -0.6199  0.8380  1.2601
11220TIP3    H255152   5.228   3.337  14.329 -2.5846  1.6493 -1.5519
11221TIP3   OH255153   5.190   5.105  12.174 -0.0854 -0.7729 -0.3249
11221TIP3    H155154   5.174   5.103  12.268 -1.6321 -2.0707 -0.5951
11221TIP3    H255155   5.246   5.030  12.157  0.6390 -0.2288 -0.3767
11222TIP3   OH255156   3.253   0.652   3.519  0.4807  0.3412 -0.0416
11222TIP3    H155157   3.159   0.635   3.524  0.0532  1.5428 -3.1738
11222TIP3    H255158   3.263   0.740   3.556  0.6322 -0.3933  1.7395
11223TIP3   OH255159   6.753   3.283  10.614  0.7576 -0.1286 -0.4463
11223TIP3    H155160   6.677   3.239  10.576  1.1919  0.5911 -2.2345
11223TIP3    H255161   6.716   3.360  10.658  0.2948 -0.6321  0.0403
11224TIP3   OH255162   1.857   1.374   1.821  0.1076  0.0632 -0.2032
11224TIP3    H155163   1.943   1.354   1.784 -0.1208 -1.0038 -0.1900
11224TIP3    H255164   1.875   1.393   1.913  0.4659  0.9759 -0.4616
11225TIP3   OH255165   2.008   4.489   3.554 -0.1855  0.1336 -0.3831
11225TIP3    H155166   2.071   4.491   3.626 -1.0245  2.9621  0.3275
11225TIP3    H255167   1.974   4.399   3.555  1.6387 -0.5796  1.1241
11226TIP3   OH255168   3.296   1.149   2.498 -0.0300 -0.3473  0.0003
11226TIP3    H155169   3.251   1.150   2.582  2.3710 -0.8423  1.3437
11226TIP3    H255170   3.369   1.089   2.511  1.1443  0.5934 -2.0316
11227TIP3   OH255171   6.285   3.256   5.206 -0.0907 -0.1787 -0.3586
11227TIP3    H155172   6.299   3.319   5.277  1.9440 -2.4251  1.3095
11227TIP3    H255173   6.309   3.304   5.127  0.6068  1.3947  0.7830
11228TIP3   OH255174   3.911   1.547  13.747  0.1098  0.5066  0.0646
11228TIP3    H155175   3.820   1.522  13.738  0.4392 -0.7378  0.0711
11228TIP3    H255176   3.938   1.510  13.832  0.2944  1.8973  0.6343
11229TIP3   OH255177   5.648   1.897  12.868 -0.4760 -0.1674  0.1474
11229TIP3    H155178   5.582   1.857  12.925 -1.3307  1.4882  0.3406
11229TIP3    H255179   5.598   1.928  12.793  0.3617 -0.5110 -0.5540
11230TIP3   OH255180   1.956   5.249   1.619 -0.7294 -0.7334 -0.5265
11230TIP3    H155181   1.875   5.300   1.612 -0.4892 -0.2943 -0.1127
11230TIP3    H255182   1.936   5.181   1.682  0.0817  1.0560  1.7279
11231TIP3   OH255183   6.546   5.168   1.405  0.1933  0.6019  0.2842
11231TIP3    H155184   6.563   5.095   1.465 -0.3695  0.3191  0.1093
11231TIP3    H255185   6.481   5.133   1.344  1.5607  0.5306 -1.1551
11232TIP3   OH255186   0.700   0.773  16.838  0.6539 -0.3202 -0.5737
11232TIP3    H155187   0.753   0.806  16.765 -1.6029  1.8428 -1.2946
11232TIP3    H255188   0.678   0.683  16.813  1.1323 -0.0861 -1.8758
11233TIP3   OH255189   2.232   0.849  15.951  0.3816  0.6921 -0.4357
11233TIP3    H155190   2.232   0.840  15.856  0.9018 -0.1412 -0.3555
11233TIP3    H255191   2.155   0.801  15.980 -0.2375  1.6262 -0.4915
11234TIP3   OH255192   5.337   1.275  15.922 -0.4832  0.0082  0.1340
11234TIP3    H155193   5.299   1.298  15.837 -2.0047  1.1821  1.1030
11234TIP3    H255194   5.270   1.219  15.963 -0.9069  1.5596  1.5999
11235TIP3   OH255195   3.533   2.884   1.272 -0.0385  0.3520 -0.0536
11235TIP3    H155196   3.438   2.876   1.259 -0.1567 -0.8948  1.3718
11235TIP3    H255197   3.546   2.864   1.365  1.7419 -0.5426 -0.4728
11236TIP3   OH255198   5.687   1.843  14.085  0.6455  0.4820 -0.3421
11236TIP3    H155199   5.708   1.756  14.050  2.0244 -0.4690  2.6714
11236TIP3    H255200   5.752   1.901  14.045 -0.0805  0.1002 -2.1203
11237TIP3   OH255201   4.188   4.469  13.014  0.0453  0.2488 -0.0248
11237TIP3    H155202   4.197   4.516  12.931 -0.9045 -0.3796 -0.4879
11237TIP3    H255203   4.275   4.476  13.055 -0.7272  4.6286  1.1257
11238TIP3   OH255204   2.473   0.459   0.722 -0.1919 -0.0827  0.1530
11238TIP3    H155205   2.468   0.431   0.631  0.5348 -0.1893  0.1448
11238TIP3    H255206   2.391   0.507   0.737  0.2098  0.9542 -0.8998
11239TIP3   OH255207   2.288   5.867  10.485 -0.1565  0.0122 -0.2151
11239TIP3    H155208   2.277   5.914  10.402  0.2617 -1.0729 -0.8803
11239TIP3    H255209   2.296   5.937  10.551  1.2304  0.8808 -1.2906
11240TIP3   OH255210   3.467   0.616   5.488  0.1442  0.7696 -0.1123
11240TIP3    H155211   3.471   0.521   5.474 -1.3843  0.8388 -1.1099
11240TIP3    H255212   3.506   0.629   5.575  0.2525 -0.7765  0.0890
11241TIP3   OH255213   4.501   5.479   3.806 -0.4129 -0.5759  0.3018
11241TIP3    H155214   4.593   5.490   3.827 -0.2186 -0.0438 -0.8208
11241TIP3    H255215   4.455   5.500   3.887  0.3696  0.6351  0.4415
11242TIP3   OH255216   5.280   5.210   3.451  0.2254 -0.2305  0.1327
11242TIP3    H155217   5.336   5.152   3.503  2.6216  1.2971 -0.6979
11242TIP3    H255218   5.224   5.150   3.401  3.2649 -1.9147 -1.3943
11243TIP3   OH255219   2.754   2.416  13.737 -0.1511 -0.0399 -0.0443
11243TIP3    H155220   2.761   2.341  13.796 -0.6852 -0.0227  0.0425
11243TIP3    H255221   2.791   2.489  13.787  1.2996 -0.4523 -0.5101
11244TIP3   OH255222   0.764   5.288  15.897 -0.3599  0.1614  0.1091
11244TIP3    H155223   0.810   5.269  15.816  1.9958 -0.3497  1.5303
11244TIP3    H255224   0.750   5.382  15.895  1.8824  0.5114  0.2277
11245TIP3   OH255225   0.708   3.983   4.924 -0.1833  0.0886  0.0145
11245TIP3    H155226   0.655   3.961   5.001  0.2078 -0.5533  0.1046
11245TIP3    H255227   0.780   3.920   4.925 -1.4468 -1.4516 -2.2107
11246TIP3   OH255228   2.296   1.414   0.808 -0.0023  0.7628  0.1326
11246TIP3    H155229   2.368   1.352   0.806 -1.1536 -0.6077 -0.0049
11246TIP3    H255230   2.321   1.483   0.747  0.3725 -0.6468 -1.3566
11247TIP3   OH255231   1.464   5.016  12.885 -0.3790  0.1222 -0.7018
11247TIP3    H155232   1.415   5.037  12.806 -1.8925  0.3753  0.2651
11247TIP3    H255233   1.449   5.092  12.943  1.6996  0.4952 -0.6243
11248TIP3   OH255234   4.637   5.183   5.142 -0.0899 -0.3580 -0.0397
11248TIP3    H155235   4.600   5.239   5.211 -0.2148  0.1849 -0.5436
11248TIP3    H255236   4.717   5.148   5.180  1.2522  2.0573 -0.5640
11249TIP3   OH255237   6.055   5.290   1.257  0.3338 -0.4513  0.6257
11249TIP3    H155238   6.054   5.342   1.176 -2.0124  0.9888  1.5218
11249TIP3    H255239   6.085   5.351   1.324  0.2556 -1.0434  1.1978
11250TIP3   OH255240   4.635   5.610  13.408  0.2979  0.3015  0.3270
11250TIP3    H155241   4.658   5.655  13.489  0.8299  0.2740  0.1939
11250TIP3    H255242   4.549   5.644  13.385  0.3613  0.6755  0.6366
11251TIP3   OH255243   5.348   5.244   5.848  0.4344 -0.2129 -0.6364
11251TIP3    H155244   5.381   5.267   5.761 -0.3451  0.0066 -0.8788
11251TIP3    H255245   5.402   5.295   5.909  0.7478 -0.0959 -1.0125
11252TIP3   OH255246   5.583   6.573   4.028 -0.1558 -0.4419 -0.1579
11252TIP3    H155247   5.614   6.651   4.072 -1.7742 -1.1767  2.3545
11252TIP3    H255248   5.622   6.500   4.077 -3.3141 -1.3013  1.2064
11253TIP3   OH255249   3.046   3.381   4.974 -0.5413  0.0444  0.3135
11253TIP3    H155250   2.977   3.405   5.035  0.2001  1.2202  0.7022
11253TIP3    H255251   3.058   3.458   4.919  0.6406 -0.0503  0.4231
11254TIP3   OH255252   1.875   6.609   0.503  0.5846 -0.1218 -0.1545
11254TIP3    H155253   1.957   6.560   0.499  0.4813 -0.3642  0.7632
11254TIP3    H255254   1.902   6.700   0.511  0.7564 -0.2514  0.7061
11255TIP3   OH255255   5.087   1.444   1.668 -0.3251 -0.7890  0.4179
11255TIP3    H155256   5.090   1.407   1.757  0.0394 -1.8591 -0.0364
11255TIP3    H255257   4.995   1.439   1.644 -0.1099 -2.5479 -0.1074
11256TIP3   OH255258   4.285   2.274  13.300  0.2827 -0.0729  0.6382
11256TIP3    H155259   4.219   2.340  13.278  1.3376  0.3056 -1.5204
11256TIP3    H255260   4.336   2.315  13.371 -0.9900  0.1478  1.4414
11257TIP3   OH255261   3.119   0.015   1.778 -0.5361  0.8319 -0.0903
11257TIP3    H155262   3.050   0.081   1.778 -0.6812  0.7765  2.8731
11257TIP3    H255263   3.072  -0.068   1.779 -0.4133  0.7621 -0.2788
11258TIP3   OH255264   0.941   3.385  11.029 -0.4409 -0.0985 -0.6559
11258TIP3    H155265   1.027   3.390  11.070 -1.8800  0.9436  2.4012
11258TIP3    H255266   0.955   3.415  10.939  2.4410 -0.2986 -0.3010
11259TIP3   OH255267   1.701   4.967  13.673 -0.2686 -0.2623  0.0202
11259TIP3    H155268   1.684   5.057  13.643 -0.4016 -0.2754  0.0574
11259TIP3    H255269   1.649   4.912  13.615  1.1947 -0.4324 -1.1648
11260TIP3   OH255270   4.831   5.228  15.082  0.9900 -0.1579  0.5694
11260TIP3    H155271   4.831   5.265  14.994  0.9386 -1.6407 -0.0781
11260TIP3    H255272   4.843   5.303  15.140 -0.3142  1.0030 -0.6213
11261TIP3   OH255273   3.279   3.925   5.907  0.7145  0.1235 -0.3741
11261TIP3    H155274   3.189   3.957   5.911  0.6861  0.0108 -0.0853
11261TIP3    H255275   3.274   3.835   5.939  0.5853 -0.6196 -2.4189
11262TIP3   OH255276   3.826   5.483   0.716  0.0756  0.3685 -0.5016
11262TIP3    H155277   3.913   5.515   0.691 -0.1187  0.8368 -0.5895
11262TIP3    H255278   3.808   5.412   0.654  1.1454 -0.9473  0.6472
11263TIP3   OH255279   3.181   0.483   6.219  0.2200 -0.0834  0.0854
11263TIP3    H155280   3.254   0.422   6.212 -1.2128 -1.8716  0.3765
11263TIP3    H255281   3.144   0.486   6.130  0.0230  0.0345  0.1707
11264TIP3   OH255282   2.486   2.362  10.566 -0.2645 -0.3742  0.1486
11264TIP3    H155283   2.416   2.426  10.572 -0.2400 -0.0242 -2.5084
11264TIP3    H255284   2.442   2.277  10.576 -0.4729 -0.0305  2.3925
11265TIP3   OH255285   2.267   4.605  15.600  0.6907  0.0512  0.3088
11265TIP3    H155286   2.319   4.600  15.681 -0.6202  2.8970  1.3901
11265TIP3    H255287   2.332   4.617  15.531  1.6698  0.4843  1.2791
11266TIP3   OH255288   0.593   5.921  10.879  0.6470 -0.3478 -0.1741
11266TIP3    H155289   0.497   5.918  10.880  0.6600 -1.4526 -1.0754
11266TIP3    H255290   0.620   5.850  10.938  0.9260  1.8085  2.3970
11267TIP3   OH255291   4.828   1.417  13.979 -0.1616 -0.0214  0.5176
11267TIP3    H155292   4.808   1.510  13.984 -0.1185 -0.0296  0.8953
11267TIP3    H255293   4.825   1.396  13.886  0.1575  0.4287  0.4070
11268TIP3   OH255294   3.452   2.560   0.400 -0.3009  0.8125 -0.2569
11268TIP3    H155295   3.500   2.524   0.474 -0.5018 -0.6123 -0.7986
11268TIP3    H255296   3.478   2.505   0.326 -1.3140  1.2164 -0.9250
11269TIP3   OH255297   3.493   3.237   0.301  0.3767  0.0600 -0.4130
11269TIP3    H155298   3.467   3.169   0.239  0.0430  1.0962 -1.4399
11269TIP3    H255299   3.497   3.193   0.386  0.3761 -1.2757 -1.0972
11270TIP3   OH255300   0.863   5.807  13.896 -1.1387  0.6242  0.5699
11270TIP3    H155301   0.824   5.751  13.963 -0.2794 -1.5449 -0.6646
11270TIP3    H255302   0.932   5.855  13.940 -0.7632 -0.5816  1.3111
11271TIP3   OH255303   4.436   4.043   2.068  0.0439  0.6477 -0.9385
11271TIP3    H155304   4.468   3.974   2.010 -1.2355 -0.9644  0.2319
11271TIP3    H255305   4.513   4.098   2.084  0.6309  0.5885 -3.3840
11272TIP3   OH255306   6.627   0.760   1.195 -0.5790  0.2996 -0.3702
11272TIP3    H155307   6.697   0.805   1.242 -1.8431  0.8172  1.0389
11272TIP3    H255308   6.651   0.667   1.200 -0.8004  0.3321  1.4821
11273TIP3   OH255309   2.148   2.120   6.064 -0.2142 -0.3527  0.1393
11273TIP3    H155310   2.151   2.025   6.058  2.6245 -0.4697  2.3800
11273TIP3    H255311   2.113   2.137   6.152 -0.4706  0.6812 -0.1570
11274TIP3   OH255312   4.305   1.662   3.342 -0.2795 -0.3509  0.3594
11274TIP3    H155313   4.399   1.659   3.362 -0.1512  0.0387 -0.1705
11274TIP3    H255314   4.294   1.598   3.271 -0.5657 -1.0111  0.9853
11275TIP3   OH255315   4.240   4.826  17.121 -0.2827 -0.0110 -0.6706
11275TIP3    H155316   4.277   4.907  17.086 -1.0237  0.4477 -0.3984
11275TIP3    H255317   4.150   4.825  17.088 -0.6383 -0.1309  0.3079
11276TIP3   OH255318   5.234   0.733  10.516 -0.6461  0.7484 -0.1640
11276TIP3    H155319   5.207   0.723  10.607  0.0355 -1.0287 -0.1340
11276TIP3    H255320   5.293   0.809  10.516  0.5806 -0.1818  1.1507
11277TIP3   OH255321   3.062   6.218  16.899  0.2907  0.2377 -0.2483
11277TIP3    H155322   3.067   6.277  16.823  1.6418 -0.0334 -0.3811
11277TIP3    H255323   3.114   6.261  16.966 -1.6391  0.9246  0.8663
11278TIP3   OH255324   6.576   0.074   3.228  0.2625 -0.5702  0.2236
11278TIP3    H155325   6.617   0.161   3.231 -0.1745 -0.3738  0.5796
11278TIP3    H255326   6.627   0.021   3.288  0.7841 -0.6660 -0.3067
11279TIP3   OH255327   6.260   5.130   1.278 -0.1096  0.1309 -0.6896
11279TIP3    H155328   6.175   5.165   1.305  0.7968  1.7898  0.0856
11279TIP3    H255329   6.239   5.050   1.230 -2.0397 -0.1402  0.5565
11280TIP3   OH255330   1.559   5.061   5.777  0.1046  0.2785  0.1470
11280TIP3    H155331   1.492   5.016   5.829 -0.4916 -0.0797 -0.9218
11280TIP3    H255332   1.638   5.055   5.830  0.2532 -2.7527 -0.3208
11281TIP3   OH255333   2.918   3.125  15.733 -0.2083 -0.0916  0.3547
11281TIP3    H155334   3.001   3.144  15.777 -0.4388  0.1398  0.6931
11281TIP3    H255335   2.906   3.031  15.744 -0.3589 -0.0046  0.9583
11282TIP3   OH255336   4.631   2.989   3.069 -0.0726 -0.1263 -0.6442
11282TIP3    H155337   4.607   2.910   3.021  0.0673  0.1986 -1.2455
11282TIP3    H255338   4.678   3.043   3.005 -1.6097  1.1687 -0.6902
11283TIP3   OH255339   4.951   0.004  11.615 -0.2767  0.4526 -0.1779
11283TIP3    H155340   4.959   0.046  11.701  1.3939  1.8812 -0.9949
11283TIP3    H255341   4.930   0.076  11.555 -1.4379 -0.5336 -0.9788
11284TIP3   OH255342   1.171   4.463   0.595  0.0950 -0.0626  0.6560
11284TIP3    H155343   1.247   4.509   0.559 -0.7590  0.4985 -0.4322
11284TIP3    H255344   1.106   4.531   0.609 -0.7324 -0.7463  0.1895
11285TIP3   OH255345   5.543   2.316   1.966  0.5240 -0.9353 -0.2995
11285TIP3    H155346   5.535   2.253   1.895 -0.8818 -1.8471  0.6312
11285TIP3    H255347   5.484   2.283   2.035  3.6226 -1.3575  2.2575
11286TIP3   OH255348   6.182   1.776  13.871 -0.8125  0.7110 -0.2950
11286TIP3    H155349   6.191   1.787  13.965 -1.2005 -0.6846 -0.0772
11286TIP3    H255350   6.253   1.828  13.833  0.4497 -0.1419  0.8409
11287TIP3   OH255351   6.563   5.950   4.813 -0.7554  0.2641 -0.0902
11287TIP3    H155352   6.479   5.929   4.774  0.0610  0.1267 -1.8450
11287TIP3    H255353   6.576   6.043   4.793 -0.3253  0.1884 -0.1783
11288TIP3   OH255354   3.578   3.556  15.388 -0.6071 -0.4975  0.1149
11288TIP3    H155355   3.573   3.617  15.314 -0.5917  0.1156  0.6160
11288TIP3    H255356   3.548   3.472  15.352 -0.1908 -0.3080 -0.6991
11289TIP3   OH255357   1.512   5.887  16.027  0.3775 -0.1393 -0.0360
11289TIP3    H155358   1.604   5.877  16.053  0.7919 -0.0452 -1.4413
11289TIP3    H255359   1.484   5.798  16.006  0.7848  0.1151 -1.6937
11290TIP3   OH255360   0.932   1.027  12.052  0.0624 -0.3599  0.1260
11290TIP3    H155361   0.922   0.954  12.113  1.4767 -1.9651 -1.4709
11290TIP3    H255362   0.850   1.028  12.002  0.0631 -0.9312  0.1075
11291TIP3   OH255363   0.813   6.636   5.549 -0.1269  0.6346 -0.3518
11291TIP3    H155364   0.729   6.659   5.508  0.0646  1.2634 -0.4014
11291TIP3    H255365   0.879   6.666   5.486  0.1746  1.9353  0.5814
11292TIP3   OH255366   0.574   5.597   4.593 -0.1622  0.1235 -0.0396
11292TIP3    H155367   0.570   5.649   4.674  0.1778 -2.3601  1.6227
11292TIP3    H255368   0.482   5.579   4.572 -0.2444  0.5748 -0.0728
11293TIP3   OH255369   0.282   1.544   0.146  0.8321  0.0695  0.2471
11293TIP3    H155370   0.292   1.622   0.200  2.1126 -0.2737  0.5175
11293TIP3    H255371   0.199   1.506   0.175  0.3644  1.1447  0.3352
11294TIP3   OH255372   3.710   0.804   3.598  0.0823 -0.1210  0.3525
11294TIP3    H155373   3.650   0.855   3.652  1.6974  2.2316 -0.0305
11294TIP3    H255374   3.660   0.787   3.518 -0.9850 -0.4272  1.0646
11295TIP3   OH255375   1.285   0.933  11.223 -0.5455  0.3266 -0.7429
11295TIP3    H155376   1.212   0.935  11.161 -2.0904 -2.1026  0.8989
11295TIP3    H255377   1.266   1.004  11.285 -3.2346 -2.1603  1.4382
11296TIP3   OH255378   3.970   0.232   1.150  0.0381 -0.4416  0.2372
11296TIP3    H155379   3.890   0.201   1.194 -0.2744 -0.8499 -0.6112
11296TIP3    H255380   4.041   0.188   1.196 -0.3380 -1.5640 -0.2542
11297TIP3   OH255381   6.175   0.758  16.740 -0.2500 -0.4917  0.1053
11297TIP3    H155382   6.191   0.798  16.654  3.0705  0.1059  0.9241
11297TIP3    H255383   6.203   0.668  16.730 -0.6850 -0.6535  0.3402
11298TIP3   OH255384   3.166   0.715  17.068  0.0699  0.0323  0.0604
11298TIP3    H155385   3.158   0.806  17.042  2.4718  1.0917  2.7718
11298TIP3    H255386   3.088   0.673  17.033 -0.1728  2.7161 -2.7997
11299TIP3   OH255387   6.425   0.505   4.146 -0.1079  1.6146 -0.5666
11299TIP3    H155388   6.392   0.578   4.199 -1.4505  0.7563 -0.2049
11299TIP3    H255389   6.424   0.430   4.206  1.7526  1.4022 -0.7927
11300TIP3   OH255390   5.224   4.836  14.117 -0.3890  0.4692  0.3068
11300TIP3    H155391   5.300   4.838  14.059 -0.0406 -0.1917  0.7407
11300TIP3    H255392   5.151   4.810  14.061  0.2455 -1.8211  0.4883
11301TIP3   OH255393   1.142   0.053   4.855  0.4408 -0.2590 -0.1014
11301TIP3    H155394   1.212   0.106   4.893  0.0187  0.7390 -0.7035
11301TIP3    H255395   1.103   0.109   4.788  0.1054 -1.3949 -0.8696
11302TIP3   OH255396   4.896   0.033   4.325 -0.0840 -0.6281  0.3279
11302TIP3    H155397   4.832   0.096   4.359  2.4534  1.1219  1.9929
11302TIP3    H255398   4.881  -0.046   4.376 -0.3073  0.0730  1.3667
11303TIP3   OH255399   5.842   6.700   4.356 -0.1203 -0.3238  0.1394
11303TIP3    H155400   5.765   6.733   4.310 -1.0144  1.0522  2.5091
11303TIP3    H255401   5.914   6.755   4.325 -1.1271  2.1910  2.0478
11304TIP3   OH255402   3.137   4.325   5.596  0.2957 -0.3877  0.3485
11304TIP3    H155403   3.133   4.348   5.689 -0.0191 -2.9969  1.0292
11304TIP3    H255404   3.048   4.339   5.563  0.3203  0.1915  0.5308
11305TIP3   OH255405   5.874   3.975   4.637 -0.1561 -0.0338 -0.6155
11305TIP3    H155406   5.790   4.008   4.603 -1.6851 -0.4435  2.5499
11305TIP3    H255407   5.921   4.054   4.665 -0.3262  0.0566 -0.5856
11306TIP3   OH255408   3.539   6.409  11.964 -0.6489 -0.3171 -0.1901
11306TIP3    H155409   3.530   6.504  11.960 -1.3176 -0.3974 -0.6325
11306TIP3    H255410   3.577   6.385  11.880  1.2709 -0.2609  0.6260
11307TIP3   OH255411   3.489   1.400   2.478  0.5500  0.0145 -0.3126
11307TIP3    H155412   3.429   1.329   2.457  0.4429 -0.3563  1.1926
11307TIP3    H255413   3.575   1.358   2.485  0.3607 -0.1256  1.3900
11308TIP3   OH255414   1.786   3.064   3.922  0.0805  0.0653  0.3803
11308TIP3    H155415   1.694   3.051   3.946  0.3420 -1.3649  0.7060
11308TIP3    H255416   1.783   3.099   3.833 -0.7901  0.2400  0.4708
11309TIP3   OH255417   1.773   4.496   5.060 -0.2480 -0.3857 -0.2911
11309TIP3    H155418   1.729   4.440   4.997 -1.0676 -0.0143 -0.0482
11309TIP3    H255419   1.797   4.438   5.132 -2.0412 -0.2176  0.4423
11310TIP3   OH255420   3.215   4.469  14.798 -0.3369  0.6239  0.6332
11310TIP3    H155421   3.145   4.420  14.841 -1.0874  0.9432 -0.2016
11310TIP3    H255422   3.221   4.550  14.848 -1.1658  0.9680  0.1967
11311TIP3   OH255423   2.084   1.317   1.661 -0.3782  0.1370  0.3263
11311TIP3    H155424   2.064   1.264   1.584 -1.0353 -0.5642  0.9805
11311TIP3    H255425   2.171   1.289   1.688 -1.2943 -1.6077  1.5056
11312TIP3   OH255426   3.196   6.261   6.654 -0.4773  0.0776 -0.0578
11312TIP3    H155427   3.164   6.280   6.566  1.0244 -3.3674 -1.4331
11312TIP3    H255428   3.240   6.342   6.681 -2.0893  1.6312 -1.9000
11313TIP3   OH255429   5.203   3.681   2.145 -0.3257 -0.2675  0.0461
11313TIP3    H155430   5.126   3.727   2.177  1.4068  1.8505  1.2933
11313TIP3    H255431   5.257   3.668   2.223  1.5118  0.1461 -1.1241
11314TIP3   OH255432   3.645   0.221   3.077 -0.2521 -0.7967  0.0850
11314TIP3    H155433   3.555   0.207   3.106 -0.0969 -0.2178  0.8418
11314TIP3    H255434   3.636   0.241   2.983 -1.0956  1.3063  0.5936
11315TIP3   OH255435   4.971   1.535   6.005  0.0475  0.2682 -0.0523
11315TIP3    H155436   4.968   1.472   6.077  1.0534 -0.0241 -0.2470
11315TIP3    H255437   5.032   1.603   6.035  2.6620 -1.2475 -1.6721
11316TIP3   OH255438   3.884   2.111   2.521 -0.0640  0.2663 -0.3596
11316TIP3    H155439   3.941   2.059   2.464  0.5166 -0.6584  1.0492
11316TIP3    H255440   3.796   2.097   2.484  0.0292 -2.0245  0.1835
11317TIP3   OH255441   6.260   2.486  11.297 -0.1771  0.0988 -0.1848
11317TIP3    H155442   6.275   2.532  11.379  1.7029 -0.4983 -0.1655
11317TIP3    H255443   6.243   2.395  11.323 -0.5653  0.1069 -0.4018
11318TIP3   OH255444   2.864   0.089   5.772 -0.4183  0.2548 -0.6031
11318TIP3    H155445   2.875   0.043   5.689  0.9816 -0.1769 -0.1874
11318TIP3    H255446   2.918   0.041   5.834 -0.5373  1.2563  0.3007
11319TIP3   OH255447   6.125   1.096   4.049  0.1096 -0.7505  0.0083
11319TIP3    H155448   6.206   1.131   4.014  0.1054 -0.6699  0.0768
11319TIP3    H255449   6.060   1.165   4.034  0.4655 -0.0303  1.6505
11320TIP3   OH255450   1.132   4.124  15.348  0.2500  0.0268  0.0384
11320TIP3    H155451   1.047   4.166  15.359  0.5652  0.8930 -0.7678
11320TIP3    H255452   1.174   4.173  15.278  1.8654  0.3182  1.1832
11321TIP3   OH255453   4.785   2.768  11.339 -0.6428 -0.1006 -0.2103
11321TIP3    H155454   4.840   2.690  11.350 -0.4422  0.2844  1.6288
11321TIP3    H255455   4.841   2.830  11.292 -0.3214 -0.5555 -0.4311
11322TIP3   OH255456   1.780   3.504   1.934 -0.0458 -0.2405  0.1279
11322TIP3    H155457   1.700   3.520   1.884  0.9181  2.0639 -0.7497
11322TIP3    H255458   1.793   3.585   1.984  2.3674 -0.1337 -0.6356
11323TIP3   OH255459   1.618   2.838  12.117 -0.1869 -0.3603  0.0582
11323TIP3    H155460   1.560   2.867  12.046 -0.2337 -1.2721 -0.2788
11323TIP3    H255461   1.567   2.853  12.196 -0.2197  0.4579 -0.1105
11324TIP3   OH255462   3.718   2.201  10.980 -0.2674 -0.3347 -0.3525
11324TIP3    H155463   3.745   2.185  11.071  0.2116 -1.1557 -0.6419
11324TIP3    H255464   3.637   2.252  10.989 -0.8819 -1.4367  0.5518
11325TIP3   OH255465   4.938   2.584   4.243 -0.1008  0.1494  0.5679
11325TIP3    H155466   4.970   2.634   4.318  1.0480  1.6340 -0.8613
11325TIP3    H255467   4.879   2.644   4.198  1.2902  0.2725 -1.1678
11326TIP3   OH255468   2.229   5.225   0.265  0.1783  0.1404 -0.1758
11326TIP3    H155469   2.288   5.158   0.229 -0.8421 -0.4158 -0.8244
11326TIP3    H255470   2.186   5.181   0.339  1.3439  0.8838  0.9734
11327TIP3   OH255471   0.966   1.726   0.434 -0.0794 -0.3628 -0.1413
11327TIP3    H155472   0.970   1.766   0.521  2.3769 -1.3228  0.2159
11327TIP3    H255473   0.914   1.788   0.383  3.3688  3.2674  0.4736
11328TIP3   OH255474   3.334   5.454   2.232 -0.0875  0.6241  0.4760
11328TIP3    H155475   3.251   5.426   2.193  1.1425 -0.3274 -1.5432
11328TIP3    H255476   3.357   5.384   2.292  0.0076  0.1411 -0.1145
11329TIP3   OH255477   5.190   4.061   3.080  0.4177 -0.0457  0.3263
11329TIP3    H155478   5.284   4.069   3.069  0.5949 -0.4227  1.4806
11329TIP3    H255479   5.177   3.971   3.112 -0.4788 -0.5505 -1.3718
11330TIP3   OH255480   6.668   1.882  14.333  0.0799 -0.8049  0.5360
11330TIP3    H155481   6.582   1.885  14.375  0.8511 -0.9621  2.1817
11330TIP3    H255482   6.672   1.961  14.280 -0.3912  0.1170  1.8503
11331TIP3   OH255483   2.016   1.034   3.627 -0.1603  0.0324  0.5039
11331TIP3    H155484   2.004   0.962   3.565  1.2014  1.7447 -1.7991
11331TIP3    H255485   2.087   1.006   3.684  0.8812 -0.1208 -0.8706
11332TIP3   OH255486   2.565   3.933  12.496  0.0181  0.3202 -0.4610
11332TIP3    H155487   2.484   3.904  12.537  0.8625  0.1463  1.1391
11332TIP3    H255488   2.544   4.019  12.459 -0.9871  0.1065 -0.3944
11333TIP3   OH255489   2.829   0.843   1.246  0.2187 -0.1292  0.5356
11333TIP3    H155490   2.735   0.861   1.247  0.2113 -0.2009  1.2221
11333TIP3    H255491   2.839   0.761   1.295  0.8056  0.6967  1.8232
11334TIP3   OH255492   0.164   0.174   6.076 -0.5319  0.0751 -0.0534
11334TIP3    H155493   0.166   0.260   6.117 -2.9396  0.4467 -0.6148
11334TIP3    H255494   0.149   0.113   6.149 -0.9093  0.3507  0.1016
11335TIP3   OH255495   4.891   2.476  13.095  0.4949  0.1224  0.0163
11335TIP3    H155496   4.961   2.413  13.104  1.1445  0.6331 -1.3761
11335TIP3    H255497   4.826   2.433  13.040  0.3087  0.1619  0.2005
11336TIP3   OH255498   4.172   3.145  13.293 -0.0050  0.2137  0.2386
11336TIP3    H155499   4.119   3.082  13.342 -1.7382  1.5931  0.1847
11336TIP3    H255500   4.206   3.205  13.359 -0.4251  0.6966  0.0182
11337TIP3   OH255501   5.494   1.494  16.575  0.0534 -0.8630  0.1236
11337TIP3    H155502   5.579   1.532  16.598 -0.2378 -0.3775  0.4144
11337TIP3    H255503   5.504   1.401  16.595  1.2387 -1.2190 -1.9520
11338TIP3   OH255504   1.400   0.235  15.355 -0.9362 -0.2507 -0.5348
11338TIP3    H155505   1.365   0.153  15.321 -0.1372 -0.0087 -1.9775
11338TIP3    H255506   1.475   0.208  15.408 -1.1958 -0.5143 -0.2985
11339TIP3   OH255507   6.298   6.023   1.799 -0.0408 -0.2741 -0.2800
11339TIP3    H155508   6.393   6.031   1.794 -0.0303 -0.2726 -0.0754
11339TIP3    H255509   6.280   6.002   1.891 -0.2239 -0.4438 -0.3532
11340TIP3   OH255510   6.645   3.788  11.972  0.4202  0.1561 -0.0497
11340TIP3    H155511   6.657   3.766  12.065 -2.2713  0.9824  0.5439
11340TIP3    H255512   6.710   3.856  11.955 -0.1847  1.2078  1.6977
11341TIP3   OH255513   6.661   1.989   1.198  0.2174 -1.0054 -1.2227
11341TIP3    H155514   6.716   2.042   1.141 -0.3330 -1.0497 -1.7978
11341TIP3    H255515   6.604   2.051   1.242 -0.2932 -1.1022 -1.7490
11342TIP3   OH255516   2.954   5.565  16.931 -0.3302 -0.5739  0.2736
11342TIP3    H155517   2.868   5.532  16.906 -0.8442  2.2348 -1.8631
11342TIP3    H255518   2.938   5.617  17.010 -0.7125  0.3433 -0.3957
11343TIP3   OH255519   6.035   6.107  13.240 -0.1827  0.4985 -0.2708
11343TIP3    H155520   6.038   6.075  13.150  2.2528  1.1953 -0.4664
11343TIP3    H255521   6.003   6.197  13.232  0.6317  0.7676 -0.4977
11344TIP3   OH255522   1.096   0.004  15.387 -0.2705  0.7689 -0.1227
11344TIP3    H155523   1.007  -0.030  15.399 -1.0168  2.7410  0.1167
11344TIP3    H255524   1.146  -0.072  15.357 -1.9653 -0.4440  0.0017
11345TIP3   OH255525   4.436   4.740   0.603 -0.2163 -0.2138  0.7320
11345TIP3    H155526   4.426   4.660   0.551 -1.2884  0.4695 -0.1399
11345TIP3    H255527   4.374   4.802   0.564 -0.4420  0.5838  2.2953
11346TIP3   OH255528   6.379   4.409  10.967  0.1888  0.2958 -0.0669
11346TIP3    H155529   6.465   4.375  10.989  0.2736 -0.5275 -1.6539
11346TIP3    H255530   6.396   4.497  10.933  0.3599  0.2324 -0.1423
11347TIP3   OH255531   3.165   2.376  15.899  0.4141  0.2073 -0.3136
11347TIP3    H155532   3.178   2.345  15.988 -1.8336  0.9263  0.3033
11347TIP3    H255533   3.172   2.298  15.844  0.3504 -0.4741  0.6427
11348TIP3   OH255534   5.760   5.523   2.488  0.4958 -0.3232  0.0829
11348TIP3    H155535   5.733   5.531   2.579 -1.3044  0.2043 -0.4883
11348TIP3    H255536   5.736   5.433   2.464 -0.1396 -0.0704 -0.2296
11349TIP3   OH255537   3.710   1.862   6.245 -0.2329  0.2722  0.1922
11349TIP3    H155538   3.619   1.850   6.217  0.3348 -3.8719 -0.2027
11349TIP3    H255539   3.709   1.841   6.338  0.2327  0.9131  0.3441
11350TIP3   OH255540   3.021   5.682  14.193  0.2354 -0.0244 -0.2957
11350TIP3    H155541   2.984   5.600  14.225  0.1976  0.2776  0.4530
11350TIP3    H255542   3.023   5.672  14.098 -1.1683 -0.3088 -0.3033
11351TIP3   OH255543   5.372   6.528   6.093 -0.1307  0.1462  0.2235
11351TIP3    H155544   5.379   6.569   6.006 -1.5732 -0.1641 -0.0595
11351TIP3    H255545   5.278   6.508   6.102  0.2508 -1.2988  1.1730
11352TIP3   OH255546   4.807   6.303  11.996 -0.0995 -0.0919  0.2474
11352TIP3    H155547   4.852   6.276  12.076  0.5603 -1.5058 -0.5663
11352TIP3    H255548   4.813   6.398  11.995  0.8820 -0.1420  1.3138
11353TIP3   OH255549   2.889   0.467   6.035 -0.0761 -0.1774  0.8560
11353TIP3    H155550   2.829   0.539   6.054 -0.8047 -0.2032 -1.1777
11353TIP3    H255551   2.835   0.403   5.987  1.2987 -0.6835 -0.0362
11354TIP3   OH255552   4.951   2.345   3.993  0.0271 -0.0605 -0.4474
11354TIP3    H155553   5.046   2.344   4.001  0.0040 -0.8972 -0.2345
11354TIP3    H255554   4.920   2.280   4.056 -0.6682 -0.0199 -0.7347
11355TIP3   OH255555   3.531   3.336   6.089  0.0057 -0.2446  0.0296
11355TIP3    H155556   3.600   3.403   6.091  0.7806 -1.0284  0.0370
11355TIP3    H255557   3.472   3.364   6.019  0.3032  0.4646  0.0597
11356TIP3   OH255558   5.914   6.474  13.219 -0.1794  0.1413 -0.5091
11356TIP3    H155559   5.888   6.387  13.189 -0.7537 -0.2955  1.1938
11356TIP3    H255560   6.010   6.471  13.221 -0.2164 -1.2513  1.6836
11357TIP3   OH255561   0.847   3.695   5.651 -0.2162 -0.1487 -0.0527
11357TIP3    H155562   0.757   3.727   5.650 -0.2176 -0.1327  0.2515
11357TIP3    H255563   0.839   3.601   5.667 -0.2322 -0.3979 -1.5182
11358TIP3   OH255564   3.983   0.386   4.381  0.2294  0.0891  0.6416
11358TIP3    H155565   4.037   0.410   4.305  0.7675  1.3150  1.3976
11358TIP3    H255566   3.959   0.295   4.365  3.6131 -0.9346  0.8850
11359TIP3   OH255567   3.087   2.698   5.776 -0.0017 -0.3329  0.7728
11359TIP3    H155568   3.000   2.699   5.737 -0.0130  1.1480  0.8051
11359TIP3    H255569   3.077   2.644   5.854 -0.5429 -1.3537  0.0073
11360TIP3   OH255570   0.586   4.708   0.691 -0.6566  0.1040  0.2340
11360TIP3    H155571   0.592   4.724   0.597  0.7467  0.4417  0.3640
11360TIP3    H255572   0.673   4.731   0.725 -0.9876 -0.4987  1.5378
11361TIP3   OH255573   5.744   6.633  16.500 -0.3251 -0.2977  0.3107
11361TIP3    H155574   5.714   6.621  16.410  0.4814 -1.8644  0.2218
11361TIP3    H255575   5.823   6.686  16.493  1.2222 -2.5909 -0.1813
11362TIP3   OH255576   1.350   1.717  13.236  0.2343  0.1042 -0.2615
11362TIP3    H155577   1.433   1.756  13.211  1.6439 -1.8169  1.2409
11362TIP3    H255578   1.323   1.765  13.314  0.8031 -0.3824  0.2397
11363TIP3   OH255579   0.235   2.296  14.132 -0.2019  0.4955 -0.1271
11363TIP3    H155580   0.302   2.344  14.083  1.0119  1.3255  2.2639
11363TIP3    H255581   0.283   2.227  14.177 -1.1798  0.1451  0.3955
11364TIP3   OH255582   6.309   2.230  11.124  0.3286 -0.0273  0.3183
11364TIP3    H155583   6.244   2.244  11.194  0.5255 -1.1309  0.7381
11364TIP3    H255584   6.260   2.183  11.056  0.3754  0.2248  0.1122
11365TIP3   OH255585   2.502   6.774  16.366 -0.2622  0.0663 -0.2695
11365TIP3    H155586   2.462   6.741  16.285 -0.1830 -2.4799  0.6562
11365TIP3    H255587   2.500   6.698  16.425  0.9224  1.4962  1.6478
11366TIP3   OH255588   6.282   4.580  13.941  0.7933  0.7169 -0.6997
11366TIP3    H155589   6.257   4.670  13.960  3.1415  1.3056 -0.2428
11366TIP3    H255590   6.293   4.578  13.846  1.6559  1.1705 -0.6143
11367TIP3   OH255591   2.870   3.804  15.077 -0.1298 -0.3557 -0.1277
11367TIP3    H155592   2.775   3.794  15.080 -0.2838  1.3767  1.6817
11367TIP3    H255593   2.884   3.896  15.053  1.0893 -0.5119 -0.0441
11368TIP3   OH255594   5.277   2.587  14.954  0.1070 -0.8383  0.0971
11368TIP3    H155595   5.341   2.639  14.905 -0.3504  0.4767  0.8749
11368TIP3    H255596   5.227   2.651  15.004 -2.2029 -1.7613 -0.9158
11369TIP3   OH255597   0.156   0.680   6.755 -0.4059 -0.3018 -0.5559
11369TIP3    H155598   0.195   0.710   6.837 -0.2693  0.2360 -0.8130
11369TIP3    H255599   0.192   0.739   6.688 -0.3069 -0.9023 -1.0432
11370TIP3   OH255600   5.795   4.452  14.345 -0.2266 -0.0312 -0.1014
11370TIP3    H155601   5.744   4.496  14.413 -1.5335  2.4251 -2.5602
11370TIP3    H255602   5.865   4.513  14.324  0.5149 -1.0212 -0.5637
11371TIP3   OH255603   1.216   3.868  13.630  0.1399 -0.0799 -0.0314
11371TIP3    H155604   1.242   3.959  13.618  1.3784 -0.4091  0.0598
11371TIP3    H255605   1.171   3.866  13.715  1.6210  0.1385  0.7721
11372TIP3   OH255606   3.003   3.978  14.759 -0.1016 -0.3990 -0.1097
11372TIP3    H155607   3.074   3.940  14.707  1.6737  0.8140  1.3619
11372TIP3    H255608   2.952   4.029  14.696  1.9131  0.9174 -0.7169
11373TIP3   OH255609   2.904   3.269   4.761  0.1838 -0.4869  0.5648
11373TIP3    H155610   2.979   3.268   4.702 -0.4243 -0.4100 -0.2198
11373TIP3    H255611   2.941   3.288   4.847  1.2463 -1.8912  0.4365
11374TIP3   OH255612   4.846   0.337  13.102 -0.8441  0.3200 -0.8995
11374TIP3    H155613   4.939   0.352  13.119 -0.8380  1.8587 -2.1767
11374TIP3    H255614   4.839   0.242  13.092  0.7179  0.2422 -1.4767
11375TIP3   OH255615   0.191   0.175   1.303 -0.4647 -0.4574  0.0202
11375TIP3    H155616   0.204   0.082   1.318 -2.1427 -1.0247 -1.7331
11375TIP3    H255617   0.146   0.180   1.218  2.2423  2.1139 -1.3774
11376TIP3   OH255618   4.167   0.961   6.127 -0.1537 -0.5833  0.6567
11376TIP3    H155619   4.239   1.001   6.177 -1.7651 -0.2650  2.7708
11376TIP3    H255620   4.208   0.887   6.081  1.7797  0.3508  0.8039
11377TIP3   OH255621   2.183   1.754  13.725 -0.0230 -0.4000 -0.3582
11377TIP3    H155622   2.252   1.688  13.719  0.8405  0.4011  0.5292
11377TIP3    H255623   2.105   1.711  13.689  0.7314 -1.5965 -0.5940
11378TIP3   OH255624   5.220   5.957   1.850 -0.1618 -0.1900  0.1664
11378TIP3    H155625   5.305   5.939   1.808 -0.8483  0.0069 -1.3360
11378TIP3    H255626   5.234   5.936   1.942  1.4767 -0.3329 -0.0980
11379TIP3   OH255627   3.198   2.964   1.622 -0.1446 -0.2207  0.0313
11379TIP3    H155628   3.239   3.048   1.602  0.8250 -0.2395  1.7999
11379TIP3    H255629   3.208   2.912   1.542 -2.1235  1.8467 -1.6116
11380TIP3   OH255630   6.399   4.298  13.903 -0.8173  0.1096  0.7456
11380TIP3    H155631   6.342   4.221  13.911 -0.8684  0.2855  2.2661
11380TIP3    H255632   6.339   4.369  13.879 -1.0785  0.0708  1.2693
11381TIP3   OH255633   2.604   1.747  15.311  0.2674 -0.0602  0.2970
11381TIP3    H155634   2.676   1.810  15.312  0.5719 -0.4129  2.3213
11381TIP3    H255635   2.623   1.690  15.237  1.3067  0.7241 -0.0516
11382TIP3   OH255636   2.064   5.233  14.447 -0.0399 -0.1962  0.0040
11382TIP3    H155637   2.152   5.199  14.429 -0.9228 -1.5305 -2.0008
11382TIP3    H255638   2.011   5.155  14.462 -1.3696  0.4387 -1.1989
11383TIP3   OH255639   4.135   1.781  15.792  0.2072  0.1297 -0.2654
11383TIP3    H155640   4.153   1.769  15.885 -0.9989 -0.1226 -0.0555
11383TIP3    H255641   4.042   1.803  15.788 -0.2727 -1.9882 -1.5854
11384TIP3   OH255642   5.504   0.432  15.496  0.1928 -0.4379 -0.1061
11384TIP3    H155643   5.506   0.426  15.592 -0.8579 -1.5549 -0.1505
11384TIP3    H255644   5.429   0.489  15.478  0.9737  0.5601 -0.2381
11385TIP3   OH255645   2.465   3.221   1.138  0.2658 -0.1315 -0.1202
11385TIP3    H155646   2.418   3.302   1.158  0.4339 -0.1900  0.5355
11385TIP3    H255647   2.501   3.235   1.050  0.2699  0.4961 -0.0219
11386TIP3   OH255648   4.655   1.561  13.348 -0.1593 -0.3340 -0.3039
11386TIP3    H155649   4.598   1.613  13.405  0.5398 -0.9341  0.9599
11386TIP3    H255650   4.709   1.510  13.409 -0.7472 -2.4458 -1.5267
11387TIP3   OH255651   0.294   6.556  16.804 -0.1923 -0.2305  0.1699
11387TIP3    H155652   0.256   6.602  16.729  1.1140 -0.6410 -0.7433
11387TIP3    H255653   0.385   6.583  16.806  0.4421 -2.2667  0.0082
11388TIP3   OH255654   1.031   5.155   4.670 -0.1021  0.3338  0.0241
11388TIP3    H155655   0.963   5.162   4.604  0.8408  0.7056 -0.9251
11388TIP3    H255656   0.988   5.180   4.752 -0.8295  1.6744 -0.7395
11389TIP3   OH255657   0.992   1.679  12.631 -0.2069  0.7511 -0.0744
11389TIP3    H155658   1.029   1.764  12.609 -0.5574  0.4734 -1.7687
11389TIP3    H255659   0.936   1.695  12.707 -0.9424  2.1820 -0.9117
11390TIP3   OH255660   3.308   2.976   0.352 -0.0583 -0.6627 -0.4895
11390TIP3    H155661   3.282   2.884   0.360 -0.6963 -0.5043 -0.6564
11390TIP3    H255662   3.225   3.025   0.358  0.4179 -0.0154  0.9325
11391TIP3   OH255663   6.148   1.310   6.237  0.1410 -0.4049 -0.6367
11391TIP3    H155664   6.064   1.265   6.231 -0.0025  0.0618 -2.3346
11391TIP3    H255665   6.127   1.403   6.225  0.6634 -0.0820  0.8926
11392TIP3   OH255666   3.715   4.845  11.627 -0.2022 -0.4377 -0.9902
11392TIP3    H155667   3.705   4.914  11.562 -0.5537  0.9621  0.5393
11392TIP3    H255668   3.626   4.828  11.657 -0.0077 -0.9196 -0.6821
11393TIP3   OH255669   2.465   2.113  15.130  0.1063 -0.4326  0.0223
11393TIP3    H155670   2.544   2.081  15.086  0.6261  1.6574 -0.6336
11393TIP3    H255671   2.439   2.190  15.079 -1.9229 -0.6637  0.6910
11394TIP3   OH255672   0.874   3.693   3.937  0.4696 -0.9753 -0.0067
11394TIP3    H155673   0.861   3.755   3.866  1.1498 -3.0727 -2.0245
11394TIP3    H255674   0.910   3.746   4.009 -1.6621  1.4560 -0.6385
11395TIP3   OH255675   1.818   0.036   5.958  0.3228  0.0172 -0.2142
11395TIP3    H155676   1.771  -0.048   5.969  1.5396 -0.8605 -1.6593
11395TIP3    H255677   1.830   0.045   5.864  0.2623  1.8117 -0.0628
11396TIP3   OH255678   0.338   5.783   1.839  0.6895 -0.2572  0.1878
11396TIP3    H155679   0.289   5.861   1.814 -1.5567 -0.2684  4.0892
11396TIP3    H255680   0.419   5.817   1.878 -0.1199  0.1974  1.5444
11397TIP3   OH255681   4.711   4.589  11.999  0.1928 -0.4329 -0.3744
11397TIP3    H155682   4.788   4.561  12.049  0.5095  0.1470 -0.5247
11397TIP3    H255683   4.715   4.538  11.918  0.0138 -0.9379 -0.0616
11398TIP3   OH255684   0.931   0.076   0.391 -0.2061 -0.0392 -0.7103
11398TIP3    H155685   0.845   0.107   0.421 -0.2004  0.6489 -1.3763
11398TIP3    H255686   0.918  -0.017   0.373 -0.1828 -0.4823  1.5037
11399TIP3   OH255687   5.502   2.270  12.027 -1.1424  0.3457 -0.2723
11399TIP3    H155688   5.527   2.273  11.935 -1.4465 -0.2701 -0.3813
11399TIP3    H255689   5.579   2.234  12.071 -0.7975  1.1576 -0.2090
11400TIP3   OH255690   2.813   1.012   5.100  0.1512  0.4576  0.3329
11400TIP3    H155691   2.718   1.002   5.109  0.3010 -0.4664  0.9520
11400TIP3    H255692   2.834   1.090   5.150 -0.3063  0.7367  0.0874
11401TIP3   OH255693   1.290   4.229   2.739 -0.5840 -0.0856 -0.2818
11401TIP3    H155694   1.204   4.194   2.760  0.0675 -0.4760  1.8646
11401TIP3    H255695   1.275   4.287   2.664 -2.2396 -2.2620 -1.6920
11402TIP3   OH255696   5.251   4.321   4.856  0.0103 -0.0134 -0.0642
11402TIP3    H155697   5.179   4.379   4.830  0.7856  0.7876 -0.4478
11402TIP3    H255698   5.212   4.263   4.922 -0.4398  1.8248  1.3147
11403TIP3   OH255699   3.442   0.621   4.553  0.0533  0.2197 -1.0065
11403TIP3    H155700   3.474   0.533   4.536 -0.8074  0.0547 -1.8185
11403TIP3    H255701   3.510   0.679   4.518  0.9551 -0.1061  0.1700
11404TIP3   OH255702   1.002   6.693   1.639 -0.5392  0.0035 -0.1536
11404TIP3    H155703   1.015   6.705   1.545  0.6626  0.0201  0.0011
11404TIP3    H255704   1.019   6.780   1.676  1.6263 -0.5877  0.3239
11405TIP3   OH255705   3.814   5.325  14.305  0.1374 -0.1127  0.2184
11405TIP3    H155706   3.728   5.285  14.320  0.3979 -1.0039 -0.6374
11405TIP3    H255707   3.794   5.417  14.285 -0.6498 -0.4024 -0.3763
11406TIP3   OH255708   6.808   4.640  14.165 -0.1196  0.3052  0.1093
11406TIP3    H155709   6.809   4.545  14.176 -0.1994  0.3064  0.1354
11406TIP3    H255710   6.890   4.670  14.204  0.2541  0.1776 -0.5804
11407TIP3   OH255711   1.489   6.052  11.488 -0.5922 -0.1423 -0.3034
11407TIP3    H155712   1.566   6.095  11.525 -1.1015 -0.1806  0.7939
11407TIP3    H255713   1.455   6.115  11.424 -0.4559  0.4474  0.2018
11408TIP3   OH255714   6.779   5.249  11.150 -0.5924  0.5231  0.0803
11408TIP3    H155715   6.857   5.211  11.189 -0.6705  0.2528 -0.0243
11408TIP3    H255716   6.805   5.336  11.122  0.0315 -0.0584 -1.1638
11409TIP3   OH255717   5.520   6.366   5.312  0.3916  0.4792  0.2373
11409TIP3    H155718   5.579   6.291   5.323  0.4860  0.6132  0.6529
11409TIP3    H255719   5.502   6.368   5.219 -1.8445 -1.7765  0.5586
11410TIP3   OH255720   3.724   1.919   3.329  0.3795  0.5088 -0.1467
11410TIP3    H155721   3.694   1.984   3.266 -0.7792 -1.5353 -1.7588
11410TIP3    H255722   3.650   1.860   3.341  2.5225 -2.5856 -1.4694
11411TIP3   OH255723   0.122   3.806  13.073 -1.0617 -0.4496 -0.2886
11411TIP3    H155724   0.102   3.733  13.131  0.3760 -1.7447 -1.3911
11411TIP3    H255725   0.209   3.787  13.038  0.0073  2.5680  0.5815
11412TIP3   OH255726   2.214   0.121   2.688 -0.3158  0.1747 -0.1421
11412TIP3    H155727   2.222   0.188   2.756 -1.3493 -0.3625  0.5158
11412TIP3    H255728   2.146   0.154   2.630 -0.1588  0.1463 -0.3412
11413TIP3   OH255729   2.635   6.338   2.033  0.3565  0.0149  0.5369
11413TIP3    H155730   2.720   6.332   1.989 -0.9899 -1.0046 -2.0336
11413TIP3    H255731   2.635   6.265   2.095  0.8178 -0.8571 -0.4714
11414TIP3   OH255732   2.813   0.266   5.272  0.2334 -0.3239 -0.0272
11414TIP3    H155733   2.877   0.325   5.232  0.6807  0.2056  1.4522
11414TIP3    H255734   2.830   0.182   5.230  2.1211 -0.2721  0.5660
11415TIP3   OH255735   2.073   5.252   3.155  0.2214  0.5204  0.1110
11415TIP3    H155736   2.044   5.234   3.245 -0.5068 -2.3803 -0.6236
11415TIP3    H255737   2.096   5.165   3.120  0.7037  1.6263 -2.4278
11416TIP3   OH255738   0.710   0.141   4.109 -0.2439  0.1597 -0.1982
11416TIP3    H155739   0.712   0.174   4.019  1.0734  1.0355  0.1474
11416TIP3    H255740   0.777   0.071   4.110 -1.2532 -0.8213 -0.2642
11417TIP3   OH255741   4.552   6.592   0.715  0.2136  0.3359  0.5660
11417TIP3    H155742   4.568   6.498   0.706  1.4062  0.7097 -1.4666
11417TIP3    H255743   4.633   6.627   0.752  0.5869  0.8574 -0.7116
11418TIP3   OH255744   2.956   5.738  15.963 -0.1369 -0.0077 -0.3574
11418TIP3    H155745   2.884   5.731  15.901 -0.5074  1.1165 -0.0511
11418TIP3    H255746   3.034   5.748  15.908 -0.1014 -1.9197 -0.7121
11419TIP3   OH255747   0.911   2.760  17.205  0.4311 -0.3671  0.5499
11419TIP3    H155748   0.885   2.676  17.169  2.0571 -0.7870  0.3417
11419TIP3    H255749   0.945   2.809  17.130  0.8643 -0.0717  0.9400
11420TIP3   OH255750   1.294   4.393  12.028 -0.1540 -0.3745 -0.0542
11420TIP3    H155751   1.227   4.413  12.093  1.2497  0.3142  1.2212
11420TIP3    H255752   1.246   4.375  11.948 -1.8129  1.2035  0.5540
11421TIP3   OH255753   5.666   4.912  10.656 -0.0277 -0.0378  0.5677
11421TIP3    H155754   5.638   4.895  10.566  0.8432  0.0728  0.2708
11421TIP3    H255755   5.652   4.830  10.702  2.4697 -1.0838 -0.4297
11422TIP3   OH255756   0.763   2.520   0.717  0.2277  0.4900  0.8933
11422TIP3    H155757   0.756   2.593   0.778 -1.0270  0.9919  0.1591
11422TIP3    H255758   0.728   2.553   0.635  0.9353 -0.5066  0.1776
11423TIP3   OH255759   0.787   4.688   1.906  0.2595 -0.0144  0.3888
11423TIP3    H155760   0.824   4.599   1.908 -1.3687 -0.6900  1.0620
11423TIP3    H255761   0.783   4.711   1.813  1.9311 -0.1093  0.2809
11424TIP3   OH255762   1.178   2.937   0.569 -0.3588  0.2088 -0.0401
11424TIP3    H155763   1.185   3.026   0.533  1.6425 -0.7585 -2.2078
11424TIP3    H255764   1.090   2.909   0.545 -1.4737  2.0387  1.7709
11425TIP3   OH255765   1.523   0.807   5.547 -0.0494  0.1464  0.0583
11425TIP3    H155766   1.481   0.733   5.503  0.2668  0.3751 -0.6270
11425TIP3    H255767   1.486   0.885   5.505 -2.2847  0.4441  2.5071
11426TIP3   OH255768   4.499   2.645  12.696 -0.1853 -0.0868 -0.5157
11426TIP3    H155769   4.488   2.718  12.636  2.3440  0.3067 -0.5346
11426TIP3    H255770   4.534   2.574  12.643 -0.8924 -0.7410 -0.1240
11427TIP3   OH255771   2.759   2.750  12.114  0.8531  0.2953  0.7064
11427TIP3    H155772   2.751   2.715  12.203 -1.1142  1.5570  1.0678
11427TIP3    H255773   2.691   2.703  12.065  0.2942  1.3444  0.4660
11428TIP3   OH255774   3.604   6.518  14.199  0.2387  0.0468  0.0288
11428TIP3    H155775   3.619   6.493  14.107 -0.4426 -3.2471  0.7212
11428TIP3    H255776   3.513   6.548  14.201 -0.4137 -1.8130 -0.0717
11429TIP3   OH255777   0.657   5.937   1.010 -0.0899  0.0888  0.2451
11429TIP3    H155778   0.614   5.967   1.090  0.3381 -0.7392  0.7874
11429TIP3    H255779   0.611   5.857   0.986  0.0776  0.0929 -0.0909
11430TIP3   OH255780   5.747   1.213   4.853 -0.5378 -0.3807  0.0164
11430TIP3    H155781   5.828   1.165   4.871 -1.2512 -2.4441 -1.9992
11430TIP3    H255782   5.722   1.250   4.937  2.4817  0.2962  0.6871
11431TIP3   OH255783   1.270   5.142  17.154  0.3125  0.0171  0.1124
11431TIP3    H155784   1.358   5.105  17.145  0.1478 -0.4957  0.5844
11431TIP3    H255785   1.265   5.208  17.085  1.4050  0.7100  0.6765
11432TIP3   OH255786   1.109   2.958   5.388 -0.1684 -0.6368  0.1157
11432TIP3    H155787   1.100   2.864   5.399 -1.3379 -0.6312 -0.7340
11432TIP3    H255788   1.050   2.996   5.453 -0.3642 -0.4945 -0.1468
11433TIP3   OH255789   4.334   5.065   3.685  0.1247 -0.0234  0.5659
11433TIP3    H155790   4.277   5.022   3.621 -1.1045 -0.6239  2.0187
11433TIP3    H255791   4.325   5.158   3.666  1.5585 -0.2923 -1.5836
11434TIP3   OH255792   1.781   2.850   5.921  0.1583 -0.1901 -0.0177
11434TIP3    H155793   1.744   2.936   5.901  2.0048  0.4020 -1.0630
11434TIP3    H255794   1.797   2.810   5.836  1.4896 -0.5920  0.4056
11435TIP3   OH255795   1.847   5.952   6.016 -0.3374  0.0192 -0.0069
11435TIP3    H155796   1.764   5.976   5.974  0.1087  1.2710 -0.1792
11435TIP3    H255797   1.879   6.032   6.056 -0.0427 -0.8507  1.5374
11436TIP3   OH255798   6.605   6.606   1.659  0.5076  0.2919 -0.2875
11436TIP3    H155799   6.516   6.630   1.685 -0.3829  0.1404 -3.0412
11436TIP3    H255800   6.613   6.513   1.682 -0.7825 -0.2331 -1.8851
11437TIP3   OH255801   6.025   0.439  15.579 -0.8973 -0.5040 -0.6377
11437TIP3    H155802   5.974   0.360  15.600  0.7283 -0.9984  1.7636
11437TIP3    H255803   5.998   0.503  15.645  0.6008 -0.3769 -0.1027
11438TIP3   OH255804   1.302   6.242  16.767 -0.6400 -0.1356  0.3971
11438TIP3    H155805   1.387   6.201  16.778 -0.9159 -0.3362  2.0237
11438TIP3    H255806   1.243   6.192  16.824 -1.5835  0.7218  0.2027
11439TIP3   OH255807   4.236   1.660  11.842 -0.0734  0.1990 -0.2126
11439TIP3    H155808   4.257   1.728  11.778  0.6000 -0.3505 -0.5809
11439TIP3    H255809   4.188   1.593  11.791 -0.7401  0.3945  0.1479
11440TIP3   OH255810   5.458   1.464   3.544  0.3157  0.0330 -0.8322
11440TIP3    H155811   5.371   1.427   3.527 -0.4397  0.8561  1.1484
11440TIP3    H255812   5.518   1.392   3.526 -1.0643 -1.8898  1.9901
11441TIP3   OH255813   0.190   4.978  14.707 -0.4941 -0.4926  0.4032
11441TIP3    H155814   0.190   4.883  14.717  0.8718 -0.5906 -0.3953
11441TIP3    H255815   0.282   5.001  14.695 -0.6920  1.0601  1.6904
11442TIP3   OH255816   6.594   4.144  12.510 -0.5796  0.0076 -0.0289
11442TIP3    H155817   6.544   4.213  12.467  0.3654  0.5371 -0.2837
11442TIP3    H255818   6.528   4.089  12.552 -1.2299  2.0041  1.5761
11443TIP3   OH255819   6.333   6.741  13.193  0.0493  0.2382 -0.2347
11443TIP3    H155820   6.388   6.681  13.142 -0.4275 -0.2279 -0.1908
11443TIP3    H255821   6.381   6.753  13.275  0.3631  0.2670 -0.4218
11444TIP3   OH255822   2.246   5.992  12.128 -0.8003  0.0310 -0.3842
11444TIP3    H155823   2.324   5.944  12.156  0.7582  3.5409  1.6222
11444TIP3    H255824   2.269   6.028  12.042 -0.7125  0.0292 -0.3613
11445TIP3   OH255825   2.289   4.459   4.350  0.5126 -0.5151  0.1862
11445TIP3    H155826   2.219   4.447   4.286  1.0794  0.1029 -0.5591
11445TIP3    H255827   2.243   4.472   4.433 -0.2125 -2.4511  0.1271
11446TIP3   OH255828   5.517   2.244   3.716  0.0353  0.0454 -0.5601
11446TIP3    H155829   5.493   2.318   3.772 -0.7474 -1.3050  0.9361
11446TIP3    H255830   5.503   2.167   3.771 -1.5988 -1.3960 -2.9008
11447TIP3   OH255831   6.721   0.247  15.315  0.2662 -0.5860  0.2540
11447TIP3    H155832   6.801   0.238  15.263 -0.1938 -0.3811 -0.4946
11447TIP3    H255833   6.668   0.171  15.291  0.6982 -1.3354  1.5935
11448TIP3   OH255834   5.972   5.235  16.440  0.0850 -0.1049 -0.0242
11448TIP3    H155835   6.015   5.210  16.358  0.0735  0.9335 -0.3456
11448TIP3    H255836   5.931   5.319  16.422  0.7634  0.5324  1.2860
11449TIP3   OH255837   6.116   0.536   1.252  0.2257  0.0640 -0.4453
11449TIP3    H155838   6.062   0.510   1.177  0.6098 -0.5634 -0.5035
11449TIP3    H255839   6.072   0.614   1.287  0.7136  1.0869 -2.0585
11450TIP3   OH255840   4.844   2.943   3.488 -0.3950  0.1905 -0.0306
11450TIP3    H155841   4.778   2.906   3.547 -0.6162  3.3160  1.7746
11450TIP3    H255842   4.927   2.912   3.523 -0.6198  0.7027  0.9649
11451TIP3   OH255843   6.177   3.458  17.074 -0.3018 -0.3170 -0.3371
11451TIP3    H155844   6.120   3.406  17.018  0.7590 -0.6754 -1.1032
11451TIP3    H255845   6.186   3.406  17.154  0.3147 -1.0624 -0.8840
11452TIP3   OH255846   3.714   1.717   5.102 -0.3214 -0.3145  0.6357
11452TIP3    H155847   3.763   1.668   5.168  1.1228 -3.2227 -2.4557
11452TIP3    H255848   3.765   1.797   5.088  2.8697 -2.5817 -1.4101
11453TIP3   OH255849   3.190   3.378  15.507 -0.1912  0.2860  0.7809
11453TIP3    H155850   3.094   3.385  15.505 -0.2916 -1.1402 -1.6607
11453TIP3    H255851   3.208   3.297  15.461  2.3119  1.5920 -0.5897
11454TIP3   OH255852   4.976   0.989  10.493  0.1607  0.0879 -0.7443
11454TIP3    H155853   4.932   0.905  10.491  1.6923 -0.7171 -2.4551
11454TIP3    H255854   5.046   0.979  10.557  0.2736  0.0917 -0.8663
11455TIP3   OH255855   0.163   5.824  14.715 -0.2813  0.2502 -0.4400
11455TIP3    H155856   0.248   5.798  14.751 -0.3534  0.8116  0.1430
11455TIP3    H255857   0.104   5.752  14.741  0.4911 -1.3287 -2.8988
11456TIP3   OH255858   1.957   5.700   3.509 -0.4935  0.6389 -0.0685
11456TIP3    H155859   1.947   5.605   3.515  0.6845  0.5725  1.2717
11456TIP3    H255860   1.903   5.735   3.580  2.7296  0.6506  2.5476
11457TIP3   OH255861   3.879   2.083   1.337  0.2047 -0.0874 -0.0610
11457TIP3    H155862   3.903   2.081   1.245 -0.4284  0.2559 -0.2300
11457TIP3    H255863   3.850   2.172   1.353  0.6253 -0.0546  0.5514
11458TIP3   OH255864   6.440   6.053   4.014 -1.1294 -0.0219  0.4964
11458TIP3    H155865   6.408   5.963   4.008 -2.6399  0.5143  0.2488
11458TIP3    H255866   6.360   6.106   4.019 -0.2761  1.4168 -0.8244
11459TIP3   OH255867   0.054   3.986  13.440  0.3773  0.2048  0.0842
11459TIP3    H155868   0.046   3.910  13.382 -0.4432  0.3087  0.0532
11459TIP3    H255869   0.109   4.048  13.391 -0.2527  0.2658 -0.5557
11460TIP3   OH255870   0.951   1.463  12.473 -0.0767 -0.4710  0.0834
11460TIP3    H155871   0.949   1.503  12.386  1.8817 -0.3563  0.0774
11460TIP3    H255872   0.972   1.535  12.532  0.8696 -0.9956  0.3838
11461TIP3   OH255873   4.132   1.821   0.143  0.0935  0.2895  0.8823
11461TIP3    H155874   4.039   1.835   0.161 -0.3681 -1.2276 -0.2549
11461TIP3    H255875   4.136   1.802   0.049  1.8316  2.6330  0.4372
11462TIP3   OH255876   3.194   2.915   5.669  0.1629  0.2140  0.8523
11462TIP3    H155877   3.158   2.837   5.710 -2.0267  0.7023 -0.0904
11462TIP3    H255878   3.277   2.886   5.631 -0.2021 -1.4289  1.2706
11463TIP3   OH255879   2.022   5.817  11.373  0.1079  0.4363  0.4356
11463TIP3    H155880   1.989   5.837  11.285  0.7912  0.9553  0.2958
11463TIP3    H255881   1.953   5.849  11.432  0.6276  2.0993  0.1652
11464TIP3   OH255882   1.152   5.480  17.099  0.0366  0.2295 -0.3365
11464TIP3    H155883   1.071   5.496  17.051 -0.7843 -1.3756  0.4605
11464TIP3    H255884   1.187   5.400  17.060 -1.3568 -1.8941  2.5670
11465TIP3   OH255885   5.448   0.913  15.510  0.0274  0.6349 -0.0216
11465TIP3    H155886   5.431   0.824  15.478  2.6335 -0.0597  0.4137
11465TIP3    H255887   5.429   0.970  15.436 -2.5521 -0.1767 -0.0289
11466TIP3   OH255888   2.690   2.372  14.624 -0.1784  0.4502 -0.7108
11466TIP3    H155889   2.617   2.416  14.666  0.6601  1.4021 -0.2384
11466TIP3    H255890   2.731   2.320  14.694  0.8805  1.5959 -0.4654
11467TIP3   OH255891   6.269   1.409   6.514  0.4756 -0.3251  0.6323
11467TIP3    H155892   6.207   1.433   6.583  1.3676 -0.8974  1.6507
11467TIP3    H255893   6.340   1.365   6.560  2.0353  1.0549 -0.4202
11468TIP3   OH255894   1.435   1.060   2.490  0.2499 -0.1720 -0.2936
11468TIP3    H155895   1.417   0.973   2.526 -1.1217 -0.2296 -1.0771
11468TIP3    H255896   1.530   1.070   2.496  0.4154 -1.7407 -0.2284
11469TIP3   OH255897   0.723   5.914  11.172 -0.4437 -0.0347 -0.8398
11469TIP3    H155898   0.803   5.865  11.154  0.2223  0.6962  0.0549
11469TIP3    H255899   0.727   5.989  11.112 -1.0694 -0.6456 -1.6513
11470TIP3   OH255900   2.162   6.600   5.951 -0.7962 -0.4921 -0.1901
11470TIP3    H155901   2.110   6.522   5.967 -1.2748 -0.1559 -0.0908
11470TIP3    H255902   2.122   6.668   6.006  1.3401 -0.8623  1.9375
11471TIP3   OH255903   2.052   4.867  10.896 -0.0999 -0.0539  0.1864
11471TIP3    H155904   1.977   4.836  10.948 -1.4581 -0.3924 -1.8926
11471TIP3    H255905   2.054   4.808  10.820  2.5282 -0.2805  0.3869
11472TIP3   OH255906   2.385   2.230  15.767 -0.1149 -0.0878  0.4893
11472TIP3    H155907   2.298   2.220  15.806 -0.5307  1.4443 -0.0237
11472TIP3    H255908   2.443   2.181  15.825 -1.4131 -1.7555  0.4397
11473TIP3   OH255909   6.432   2.420   4.687  0.3065  0.4124 -0.1086
11473TIP3    H155910   6.434   2.458   4.775 -1.8487  0.5044 -0.0666
11473TIP3    H255911   6.520   2.434   4.653  0.7583  1.6615  1.5020
11474TIP3   OH255912   3.791   4.606  11.517 -0.2038 -0.0667 -0.0428
11474TIP3    H155913   3.882   4.624  11.491 -0.3517  0.2178 -0.3587
11474TIP3    H255914   3.759   4.689  11.552  0.7700 -1.0444  3.3669
11475TIP3   OH255915   3.891   6.353   5.844 -0.2654 -0.1357  0.7037
11475TIP3    H155916   3.824   6.298   5.884 -0.4811  0.6235  1.4009
11475TIP3    H255917   3.974   6.321   5.881 -0.4681  0.5951  1.8197
11476TIP3   OH255918   4.279   3.263  16.997  0.2908  0.3738  0.2329
11476TIP3    H155919   4.312   3.203  16.930 -0.0896 -1.1782  1.3984
11476TIP3    H255920   4.297   3.218  17.080 -3.1328  0.2783  0.9857
11477TIP3   OH255921   6.349   4.921  16.390  0.1822  0.3665 -0.5191
11477TIP3    H155922   6.368   4.873  16.471  0.4615  1.5117  0.0998
11477TIP3    H255923   6.408   4.995  16.391 -1.2585  1.5370 -0.7417
11478TIP3   OH255924   3.610   6.062  16.442  0.0702 -0.1689  0.1708
11478TIP3    H155925   3.571   5.992  16.390 -0.1564 -1.5266  2.1229
11478TIP3    H255926   3.554   6.069  16.519  0.7227  1.4300  0.5267
11479TIP3   OH255927   4.440   1.487   4.512 -0.0521 -0.0408  0.3739
11479TIP3    H155928   4.509   1.546   4.543 -0.0324  0.3348 -0.3617
11479TIP3    H255929   4.418   1.433   4.588  0.3652  0.5000  0.8850
11480TIP3   OH255930   6.700   6.103  14.200  0.0718  0.4592  0.6655
11480TIP3    H155931   6.654   6.084  14.282 -1.4339  2.1306  0.2476
11480TIP3    H255932   6.633   6.095  14.132  1.3964 -1.3208 -0.4763
11481TIP3   OH255933   0.890   5.437  10.698  0.4376  0.5513  0.5114
11481TIP3    H155934   0.838   5.502  10.651 -1.8830 -0.8766  1.0203
11481TIP3    H255935   0.827   5.395  10.757  1.7444 -2.5580 -0.2420
11482TIP3   OH255936   2.935   5.206   4.478  0.3529 -0.2718  0.0455
11482TIP3    H155937   3.010   5.245   4.432  0.5449  1.2276  1.5466
11482TIP3    H255938   2.867   5.273   4.475  1.0469  0.7320  3.6077
11483TIP3   OH255939   2.777   6.578  15.232  0.0678 -0.0603 -0.1485
11483TIP3    H155940   2.828   6.639  15.178  0.7481 -1.8389 -1.5602
11483TIP3    H255941   2.841   6.522  15.274 -0.6108 -0.7321  0.0119
11484TIP3   OH255942   3.115   2.164  12.206 -0.3550  0.2826  0.0113
11484TIP3    H155943   3.185   2.212  12.161 -0.6224  0.2802 -0.4124
11484TIP3    H255944   3.058   2.133  12.135 -1.1248  0.8203  0.3958
11485TIP3   OH255945   6.654   2.324   5.998 -0.0184  0.5282 -0.3809
11485TIP3    H155946   6.594   2.277   5.940 -0.5089  1.1182 -0.3478
11485TIP3    H255947   6.630   2.416   5.989  0.9775  0.7819 -0.4703
11486TIP3   OH255948   0.849   6.553  14.487 -0.6506  0.3539 -0.0007
11486TIP3    H155949   0.900   6.472  14.487 -0.5633  0.4097  0.3123
11486TIP3    H255950   0.911   6.621  14.512 -0.8239  0.4563  0.1451
11487TIP3   OH255951   2.897   4.517  16.991  0.3426  0.1673 -0.3855
11487TIP3    H155952   2.953   4.440  17.003 -0.1013 -0.1697 -0.4637
11487TIP3    H255953   2.828   4.488  16.930  0.5933  0.8415 -1.0034
11488TIP3   OH255954   2.117   1.854   4.246  0.2494  0.8564  0.2213
11488TIP3    H155955   2.164   1.834   4.327 -0.9135 -0.8184  0.5125
11488TIP3    H255956   2.029   1.818   4.260  0.0543  0.4848 -1.7940
11489TIP3   OH255957   1.831   5.106  13.045  0.0545  0.1049 -0.2507
11489TIP3    H155958   1.872   5.087  12.961 -2.8623 -0.6821 -1.5493
11489TIP3    H255959   1.796   5.021  13.074  0.1915  0.5601  1.2893
11490TIP3   OH255960   4.831   0.207  14.464 -0.2074  0.6671 -0.2985
11490TIP3    H155961   4.828   0.256  14.546 -0.1189  0.9632 -0.4730
11490TIP3    H255962   4.774   0.131  14.479 -0.7571  1.0968 -0.2150
11491TIP3   OH255963   2.452   3.643  14.503  0.0994  0.0283  0.3532
11491TIP3    H155964   2.433   3.724  14.550 -0.1776 -0.3691  0.9340
11491TIP3    H255965   2.368   3.597  14.499  0.6071 -1.0412  1.5967
11492TIP3   OH255966   2.512   5.764  10.621 -0.7551  0.7515  0.0657
11492TIP3    H155967   2.502   5.836  10.683 -0.1916 -0.3495  1.4362
11492TIP3    H255968   2.429   5.762  10.573 -0.4461  2.8820 -0.6107
11493TIP3   OH255969   1.752   2.293  12.091 -0.2563  0.3773  0.0439
11493TIP3    H155970   1.832   2.318  12.138 -0.4377 -0.3698  0.7453
11493TIP3    H255971   1.700   2.374  12.089  0.3262  0.7538 -0.0326
11494TIP3   OH255972   3.782   5.909   0.493 -0.5398 -0.0957 -0.3592
11494TIP3    H155973   3.818   5.996   0.477  1.2501 -0.5445  1.0659
11494TIP3    H255974   3.823   5.880   0.574 -1.7504 -1.9395 -0.3647
11495TIP3   OH255975   1.585   2.494  12.079 -0.2334  0.0736  0.7039
11495TIP3    H155976   1.514   2.433  12.101 -1.0287  0.5631 -0.4558
11495TIP3    H255977   1.544   2.580  12.084  0.3904  0.3851  0.4157
11496TIP3   OH255978   6.135   5.094   3.274 -0.2807  0.7349  0.3955
11496TIP3    H155979   6.054   5.062   3.234  0.5307 -1.2570  0.3339
11496TIP3    H255980   6.204   5.061   3.218  0.6053  2.2270  0.5934
11497TIP3   OH255981   6.133   4.404   0.644 -0.0717 -0.0132  0.4444
11497TIP3    H155982   6.106   4.344   0.713 -1.8990 -0.6856 -0.8302
11497TIP3    H255983   6.229   4.405   0.650 -0.0659 -2.1539  1.2475
11498TIP3   OH255984   5.304   6.040   4.130 -0.0806  0.1805 -0.6940
11498TIP3    H155985   5.297   5.946   4.146  0.3793  0.1206 -0.8716
11498TIP3    H255986   5.358   6.073   4.202  1.1022  0.0688 -1.5257
11499TIP3   OH255987   2.487   5.767  16.566  0.7700  0.4438 -0.0890
11499TIP3    H155988   2.471   5.819  16.488 -0.4297  1.8942  1.1037
11499TIP3    H255989   2.568   5.802  16.602  0.9152  0.2890 -0.2636
11500TIP3   OH255990   5.892   1.784  11.298 -0.1269 -0.4277 -0.2645
11500TIP3    H155991   5.830   1.791  11.225  2.0988 -1.5213 -2.3466
11500TIP3    H255992   5.957   1.852  11.281  0.1307 -0.3423  1.0064
11501TIP3   OH255993   4.834   2.961   6.079 -0.4924 -0.6469 -0.1416
11501TIP3    H155994   4.927   2.979   6.095 -0.6201 -0.6199  0.6091
11501TIP3    H255995   4.832   2.918   5.993 -0.0347  1.6233 -1.3276
11502TIP3   OH255996   0.317   0.439  13.464 -0.1374 -0.2771  0.0335
11502TIP3    H155997   0.380   0.511  13.478  0.0715 -0.9186  2.6693
11502TIP3    H255998   0.310   0.432  13.369  0.8667  2.3501 -0.2835
11503TIP3   OH255999   0.486   0.932   1.931  0.3957  0.5436  0.1003
11503TIP3    H156000   0.426   1.004   1.950 -1.3923 -0.7173 -0.6745
11503TIP3    H256001   0.430   0.862   1.896  2.4371 -0.3248 -1.5020
11504TIP3   OH256002   0.632   0.873  11.508 -1.0273  0.2912  0.6576
11504TIP3    H156003   0.585   0.871  11.425 -0.2927 -0.6644  0.2599
11504TIP3    H256004   0.579   0.930  11.564 -0.6943  2.2793 -0.9663
11505TIP3   OH256005   4.295   3.153  11.584 -0.0677  0.2422  0.3157
11505TIP3    H156006   4.327   3.163  11.674 -1.3130 -3.4809  1.2638
11505TIP3    H256007   4.366   3.107  11.539  0.0429  0.9867 -0.2643
11506TIP3   OH256008   6.134   1.706   5.096 -0.3327  0.2669 -0.4468
11506TIP3    H156009   6.163   1.740   5.011 -1.7316 -0.9858 -1.4527
11506TIP3    H256010   6.135   1.611   5.085 -0.9243  0.1135  0.7987
11507TIP3   OH256011   6.336   1.818   1.027  0.5395 -0.3249 -0.4909
11507TIP3    H156012   6.333   1.753   0.958  1.4036 -0.8125 -0.0759
11507TIP3    H256013   6.383   1.775   1.099 -1.3851 -0.2615  0.8469
11508TIP3   OH256014   3.061   5.910  14.538 -0.3138  0.4844 -0.0857
11508TIP3    H156015   3.043   5.825  14.499 -1.9038  0.6417  0.2870
11508TIP3    H256016   2.977   5.955  14.539  0.5971  2.2829 -0.7724
11509TIP3   OH256017   5.240   5.843  10.880  0.0829  0.5559 -0.3957
11509TIP3    H156018   5.255   5.756  10.844 -0.0753  0.0612  0.7280
11509TIP3    H256019   5.149   5.863  10.860 -0.2884 -0.1334  0.6169
11510TIP3   OH256020   5.982   2.259   2.979 -0.1006 -0.5149 -0.1414
11510TIP3    H156021   6.039   2.310   3.036 -4.3079  2.0373  2.0392
11510TIP3    H256022   5.999   2.293   2.891  3.0244 -1.1671  0.1357
11511TIP3   OH256023   3.804   0.899   2.555  0.2354  0.0794 -0.0014
11511TIP3    H156024   3.815   0.960   2.481  0.0166  0.0267 -0.0785
11511TIP3    H256025   3.736   0.838   2.525  0.7980 -0.4930 -0.1110
11512TIP3   OH256026   4.495   6.089  11.712  0.2053  0.2670  0.4143
11512TIP3    H156027   4.507   5.999  11.742  0.0641  0.4850  1.1490
11512TIP3    H256028   4.407   6.112  11.741  0.1617  0.5700  0.0419
11513TIP3   OH256029   0.651   2.389  16.595  0.4627  0.4232 -0.4169
11513TIP3    H156030   0.671   2.304  16.633  1.2835  0.1689 -1.3587
11513TIP3    H256031   0.556   2.393  16.591  0.3760  0.3313  1.3350
11514TIP3   OH256032   3.409   5.641  14.994  0.2446  1.2501 -0.3388
11514TIP3    H156033   3.377   5.655  14.904 -1.8514 -0.2392  0.1069
11514TIP3    H256034   3.460   5.560  14.988 -0.4672  0.7676 -0.1058
11515TIP3   OH256035   4.326   4.484  15.544  0.2925  0.5837  0.2795
11515TIP3    H156036   4.321   4.566  15.495  0.0009  0.0012 -0.6803
11515TIP3    H256037   4.236   4.451  15.545  0.7424 -0.7228 -1.0758
11516TIP3   OH256038   2.462   6.552   2.119  0.3962 -0.2589 -0.0004
11516TIP3    H156039   2.510   6.477   2.084 -0.1408 -0.0728 -1.1842
11516TIP3    H256040   2.513   6.628   2.090 -0.2438 -0.0899 -0.7158
11517TIP3   OH256041   6.538   2.282   3.800  0.3459 -0.3858  0.8713
11517TIP3    H156042   6.490   2.200   3.814  1.5030 -1.2264 -0.0090
11517TIP3    H256043   6.471   2.350   3.811 -0.5313 -1.4025  2.0798
11518TIP3   OH256044   0.903   0.387   5.295  0.2395 -0.2446  0.4159
11518TIP3    H156045   0.854   0.333   5.357  0.4565 -0.2841  0.5536
11518TIP3    H256046   0.982   0.337   5.277  0.1961 -0.2141  0.1373
11519TIP3   OH256047   1.158   1.175   3.994  0.0932  0.7411  0.1225
11519TIP3    H156048   1.099   1.155   3.921  1.0305 -0.1357 -0.4007
11519TIP3    H256049   1.109   1.239   4.047 -1.8712 -0.9113  0.4012
11520TIP3   OH256050   1.566   2.588  12.387 -0.2392 -0.4152  0.0039
11520TIP3    H156051   1.528   2.638  12.315  0.9481  0.4042 -0.0620
11520TIP3    H256052   1.659   2.612  12.387 -0.4040  0.4127  2.4599
11521TIP3   OH256053   4.112   2.646   2.304  0.6271 -0.2395 -0.1857
11521TIP3    H156054   4.134   2.737   2.323  2.5733 -0.3767 -1.5631
11521TIP3    H256055   4.139   2.598   2.382 -2.1800  0.5476  1.3385
11522TIP3   OH256056   5.317   2.719   3.831 -0.4173 -0.0338  0.0730
11522TIP3    H156057   5.410   2.701   3.841  0.0642  2.1174 -0.4146
11522TIP3    H256058   5.280   2.700   3.917  0.6161 -0.0641  0.5203
11523TIP3   OH256059   3.051   1.864   1.245 -0.2784  0.0217 -0.4927
11523TIP3    H156060   3.030   1.888   1.155  1.1653  0.8068 -0.6420
11523TIP3    H256061   2.969   1.830   1.281 -1.1394  0.7125 -1.7689
11524TIP3   OH256062   3.597   3.208  10.809 -0.1314 -0.0719 -0.2985
11524TIP3    H156063   3.690   3.194  10.828 -0.2695  0.9089  1.1777
11524TIP3    H256064   3.596   3.240  10.719  1.1077  1.3012  0.1419
11525TIP3   OH256065   4.940   3.978  14.153  0.0808  0.2064  0.4783
11525TIP3    H156066   4.900   3.891  14.154  0.3677  0.0775  0.7244
11525TIP3    H256067   4.912   4.019  14.235  0.7693 -0.0263  0.8309
11526TIP3   OH256068   0.926   5.882   5.517  0.4587  0.7256  0.5110
11526TIP3    H156069   0.832   5.863   5.528  0.6598  0.9766  3.0732
11526TIP3    H256070   0.969   5.798   5.525  0.4876  0.6655 -0.2629
11527TIP3   OH256071   5.253   0.217  16.147  0.3189  0.0955 -0.2945
11527TIP3    H156072   5.160   0.221  16.127  0.0663 -1.3868  0.4973
11527TIP3    H256073   5.257   0.193  16.240  1.4633 -1.3084 -0.6719
11528TIP3   OH256074   5.296   4.902   2.912  0.1218  0.0731 -0.1771
11528TIP3    H156075   5.214   4.949   2.924 -0.4560 -1.2276  1.1343
11528TIP3    H256076   5.271   4.810   2.912  1.5896 -0.3374  0.3753
11529TIP3   OH256077   3.765   0.532  11.264  0.1047  0.3282 -0.2373
11529TIP3    H156078   3.780   0.443  11.232  0.1906  1.2946 -3.0114
11529TIP3    H256079   3.670   0.541  11.269  0.0887  0.2313 -0.3753
11530TIP3   OH256080   3.662   6.703  15.878 -0.7578  0.1333  0.1253
11530TIP3    H156081   3.580   6.702  15.927 -1.2325 -2.3904 -0.6670
11530TIP3    H256082   3.702   6.618  15.896  0.4783  0.3393 -1.5073
11531TIP3   OH256083   1.021   6.025   5.718 -0.4580 -0.2635  0.5272
11531TIP3    H156084   0.971   5.982   5.787 -2.6056  0.5548 -0.4549
11531TIP3    H256085   0.992   5.982   5.637 -1.7376  2.1592 -0.3432
11532TIP3   OH256086   4.255   5.964  11.371  0.4748 -0.3157 -0.5918
11532TIP3    H156087   4.254   5.978  11.277 -0.1970  1.5034 -0.3374
11532TIP3    H256088   4.209   6.040  11.407  1.9339 -0.2805  1.2844
11533TIP3   OH256089   1.050   2.554  16.024 -0.1890  0.7966 -0.4666
11533TIP3    H156090   1.037   2.528  16.115 -1.6512 -0.4608 -1.0126
11533TIP3    H256091   0.975   2.611  16.005  1.1677  2.6589 -0.3004
11534TIP3   OH256092   1.482   6.001   4.331  0.6596  0.0786 -0.6690
11534TIP3    H156093   1.496   6.029   4.240  0.8813  0.1149 -0.6232
11534TIP3    H256094   1.508   6.077   4.383 -2.6666  1.3236 -0.6917
11535TIP3   OH256095   1.666   5.094   3.531  0.0487 -0.3689  0.4755
11535TIP3    H156096   1.748   5.066   3.573 -0.1866  1.3189  2.1501
11535TIP3    H256097   1.598   5.044   3.576 -0.1842  1.2843  2.0291
11536TIP3   OH256098   6.578   1.912   5.921 -0.3232 -0.4850  0.9029
11536TIP3    H156099   6.575   1.824   5.957 -1.4973 -0.5281  0.7285
11536TIP3    H256100   6.487   1.931   5.896  0.1514  0.2350 -0.3540
11537TIP3   OH256101   4.094   4.462   1.346  0.3765 -0.7766  0.3087
11537TIP3    H156102   4.158   4.512   1.294  0.4109 -1.6268 -0.4721
11537TIP3    H256103   4.042   4.415   1.281 -0.2481 -1.0521  1.0054
11538TIP3   OH256104   0.441   4.428  13.461  0.0232  0.3837 -0.2896
11538TIP3    H156105   0.487   4.348  13.436  3.4394  1.3758  2.4636
11538TIP3    H256106   0.482   4.496  13.407  0.7480  1.0383  1.0716
11539TIP3   OH256107   3.733   4.518   0.974  0.6296 -0.0562 -0.2107
11539TIP3    H156108   3.814   4.541   0.929  0.3073  0.3739 -0.5828
11539TIP3    H256109   3.722   4.587   1.039 -0.5951  1.1520 -1.6531
11540TIP3   OH256110   6.117   0.793   1.918 -0.4157  0.3656 -0.0867
11540TIP3    H156111   6.166   0.753   1.847  1.0407  1.7654  0.1082
11540TIP3    H256112   6.076   0.719   1.963  2.9221 -1.0397  0.8134
11541TIP3   OH256113   4.230   1.929  12.301 -0.1106 -0.2774 -0.1891
11541TIP3    H156114   4.214   1.857  12.239  0.4528 -0.3118 -0.2920
11541TIP3    H256115   4.208   2.008  12.251  2.7009 -0.1282 -1.2532
11542TIP3   OH256116   5.856   3.308  15.974  0.3665  0.1474  0.1269
11542TIP3    H156117   5.911   3.302  16.052  1.1341 -0.1557 -0.4273
11542TIP3    H256118   5.902   3.369  15.917 -1.4208  2.2548  0.8895
11543TIP3   OH256119   2.096   0.932   1.789 -0.5612  0.0551 -0.2574
11543TIP3    H156120   2.083   0.883   1.871  3.2360 -2.1332 -0.8412
11543TIP3    H256121   2.151   1.006   1.814  0.0298 -0.2384 -0.6679
11544TIP3   OH256122   2.959   6.345   5.119  0.1054 -0.5741 -0.5580
11544TIP3    H156123   2.880   6.380   5.158  0.0508 -1.2303 -0.0669
11544TIP3    H256124   2.985   6.410   5.054  0.2761  0.5937  0.6602
11545TIP3   OH256125   4.045   0.543  13.665  0.4358 -0.0233  0.3010
11545TIP3    H156126   3.955   0.574  13.660 -0.2628 -2.1979 -1.1302
11545TIP3    H256127   4.078   0.547  13.575  0.9101 -1.6828  0.3834
11546TIP3   OH256128   1.264   1.159  16.238 -0.0352 -0.5359  0.1008
11546TIP3    H156129   1.186   1.109  16.214  0.1277 -0.8719  0.2698
11546TIP3    H256130   1.265   1.233  16.177  1.0900 -2.0777 -1.8073
11547TIP3   OH256131   3.233   5.774  12.080  0.0609  0.1095  0.0365
11547TIP3    H156132   3.174   5.699  12.084 -1.0613  0.8963 -1.4052
11547TIP3    H256133   3.185   5.846  12.120  0.6439  0.3628  0.2873
11548TIP3   OH256134   2.127   6.099   4.158 -0.1946  0.6973 -0.1814
11548TIP3    H156135   2.204   6.045   4.168 -0.7800 -0.0785  0.1780
11548TIP3    H256136   2.061   6.060   4.216 -2.0853 -0.9778 -3.3190
11549TIP3   OH256137   2.443   0.639   2.902 -0.8064  0.0453 -0.2581
11549TIP3    H156138   2.452   0.680   2.816 -1.0004  0.3100 -0.1525
11549TIP3    H256139   2.428   0.712   2.962  1.1771  0.0500  0.2781
11550TIP3   OH256140   4.363   2.814  17.170 -0.6834 -0.4924  0.3668
11550TIP3    H156141   4.323   2.793  17.254 -1.2008 -0.5204  0.1202
11550TIP3    H256142   4.307   2.883  17.134 -1.3176 -1.5003 -0.6042
11551TIP3   OH256143   0.956   2.150   2.940  0.2429  0.5420  0.5977
11551TIP3    H156144   0.875   2.106   2.968 -1.6859  2.2707 -2.0577
11551TIP3    H256145   0.938   2.243   2.953  2.3905  0.8753  1.3663
11552TIP3   OH256146   5.277   0.121   0.289 -0.4152 -0.4370  0.4243
11552TIP3    H156147   5.285   0.201   0.341  1.6125  0.4153 -1.1640
11552TIP3    H256148   5.198   0.079   0.323 -1.2006  1.9462  1.6734
11553TIP3   OH256149   2.194   1.395   2.737 -0.8030 -0.2664 -0.0805
11553TIP3    H156150   2.237   1.353   2.811 -2.2037 -0.5060  0.6231
11553TIP3    H256151   2.129   1.454   2.777 -0.4740  0.8030 -1.0919
11554TIP3   OH256152   3.908   0.510   2.187  0.6455  0.8704  0.0482
11554TIP3    H156153   3.883   0.593   2.229  1.2419  1.1353 -0.1097
11554TIP3    H256154   3.827   0.460   2.182  0.5519  0.8645  1.4654
11555TIP3   OH256155   5.373   3.572   4.977 -0.0831  0.0930  0.6767
11555TIP3    H156156   5.374   3.525   5.060 -2.2370 -1.7316 -0.3065
11555TIP3    H256157   5.294   3.542   4.932  0.3404  2.0371 -1.4817
11556TIP3   OH256158   5.943   0.019   2.116  0.5218 -0.3935 -0.5122
11556TIP3    H156159   5.882  -0.051   2.139  2.0314 -2.2334 -1.9672
11556TIP3    H256160   5.906   0.059   2.037  0.3279 -0.4249 -0.4350
11557TIP3   OH256161   1.842   2.771   2.461 -0.1363  0.2732  0.6444
11557TIP3    H156162   1.885   2.838   2.514 -0.4882 -0.1244  1.4436
11557TIP3    H256163   1.882   2.779   2.374 -0.8166  2.1255  0.4804
11558TIP3   OH256164   5.925   6.241   4.720 -0.1107  0.1746 -0.2159
11558TIP3    H156165   5.894   6.311   4.662 -1.6869  0.8212  1.3688
11558TIP3    H256166   6.003   6.277   4.763 -0.3954  0.6131 -0.0751
11559TIP3   OH256167   1.941   6.460   4.311  0.2179  0.7281 -0.4336
11559TIP3    H156168   1.976   6.547   4.327 -0.4234  1.0436 -0.7078
11559TIP3    H256169   1.956   6.412   4.392 -1.7823  1.8952  0.6541
11560TIP3   OH256170   3.703   2.945  12.826  0.3407 -0.8411 -0.1737
11560TIP3    H156171   3.753   3.007  12.879 -0.5701 -0.3560  0.1241
11560TIP3    H256172   3.703   2.982  12.738  0.7145 -0.9750 -0.2343
11561TIP3   OH256173   4.424   6.361  14.878  0.2515 -0.2509  0.5536
11561TIP3    H156174   4.470   6.327  14.955 -0.8827  0.3036  1.5011
11561TIP3    H256175   4.447   6.454  14.877  0.6947 -0.3646 -0.1002
11562TIP3   OH256176   2.764   6.605  15.926 -1.2046  0.6105  0.0611
11562TIP3    H156177   2.780   6.528  15.980 -2.4937  0.6514  0.5232
11562TIP3    H256178   2.743   6.570  15.839 -0.1328  0.5085 -0.1606
11563TIP3   OH256179   6.201   5.969  16.514 -0.3206  0.3071  0.2393
11563TIP3    H156180   6.233   5.912  16.584 -3.0034  0.3651  1.5599
11563TIP3    H256181   6.161   5.909  16.452 -0.7102  0.5247  0.2843
11564TIP3   OH256182   1.858   2.830   5.457 -0.5889  0.1598  0.3639
11564TIP3    H156183   1.865   2.873   5.372 -0.4495 -1.5312 -0.5023
11564TIP3    H256184   1.807   2.891   5.511  1.6641  2.5049 -0.0669
11565TIP3   OH256185   2.131   4.268  16.395  0.1005  0.1058 -0.6779
11565TIP3    H156186   2.081   4.222  16.327 -1.9642  2.1147 -0.5785
11565TIP3    H256187   2.160   4.349  16.352  3.1109 -0.8817 -0.6502
11566TIP3   OH256188   4.349   4.962  10.794 -0.0413  0.0640 -0.2746
11566TIP3    H156189   4.318   5.003  10.713  0.6477  0.4711 -0.3333
11566TIP3    H256190   4.397   4.884  10.764  0.5949  0.4581 -0.2827
11567TIP3   OH256191   0.351   2.352   4.923 -0.1027  0.0072  0.0530
11567TIP3    H156192   0.407   2.306   4.985 -0.3663 -0.1335  0.1906
11567TIP3    H256193   0.405   2.366   4.846  0.7829  1.7307  0.9609
11568TIP3   OH256194   5.814   3.748  13.722  0.4516 -0.3244 -0.2069
11568TIP3    H156195   5.808   3.796  13.639  1.6120 -0.3409 -0.3160
11568TIP3    H256196   5.899   3.773  13.757 -0.9323  1.3864  2.0555
11569TIP3   OH256197   0.549   4.379  14.285  0.7512 -0.4904  0.2787
11569TIP3    H156198   0.562   4.471  14.263  0.7162 -0.4824  0.2934
11569TIP3    H256199   0.630   4.353  14.330  1.0532 -0.6579 -0.3558
11570TIP3   OH256200   4.256   0.752   5.950 -0.3584 -0.2167  0.1857
11570TIP3    H156201   4.269   0.789   5.863 -1.9528 -0.3094 -0.1051
11570TIP3    H256202   4.342   0.717   5.974  0.2647  0.4263 -1.0524
11571TIP3   OH256203   5.289   4.470  12.979 -0.4879 -0.3942  0.2442
11571TIP3    H156204   5.310   4.469  13.072 -1.8958 -0.7878  0.5715
11571TIP3    H256205   5.373   4.483  12.935  0.0718  0.6845  1.6034
11572TIP3   OH256206   5.137   5.090  14.611  0.2363 -0.3786 -0.8084
11572TIP3    H156207   5.071   5.021  14.609  1.1134 -1.2756  0.2295
11572TIP3    H256208   5.147   5.112  14.704  1.4504 -0.3208 -0.9382
11573TIP3   OH256209   3.410   4.518   2.263 -0.0009 -0.4040 -0.2271
11573TIP3    H156210   3.474   4.523   2.192  0.9304  1.0507  0.6891
11573TIP3    H256211   3.445   4.576   2.331 -1.7253 -0.4824  0.7516
11574TIP3   OH256212   1.775   0.040   3.790 -0.3026 -0.2624  0.4493
11574TIP3    H156213   1.814  -0.014   3.859  1.2343  1.5477  1.0240
11574TIP3    H256214   1.836   0.032   3.716 -0.0945  0.6013  0.5173
11575TIP3   OH256215   0.397   1.111  14.268 -0.2283  0.2516  0.6982
11575TIP3    H156216   0.306   1.093  14.246  0.0715 -1.5849  0.8629
11575TIP3    H256217   0.393   1.162  14.349 -1.1242  0.9747  0.2034
11576TIP3   OH256218   4.024   2.981   1.456 -0.1335 -1.1571 -0.6482
11576TIP3    H156219   4.008   2.982   1.551  0.5131  2.2881 -0.4820
11576TIP3    H256220   3.943   3.016   1.419  0.9697  1.0507 -1.0409
11577TIP3   OH256221   6.799   5.565  15.270 -0.0939 -0.0780 -0.0336
11577TIP3    H156222   6.813   5.594  15.180 -0.0896  0.3745  0.1151
11577TIP3    H256223   6.877   5.512  15.291  0.3619  0.6106  0.0337
11578TIP3   OH256224   4.852   0.569   5.522  0.3195  0.2284  0.1838
11578TIP3    H156225   4.804   0.616   5.590  1.0493  0.0506  0.8157
11578TIP3    H256226   4.931   0.622   5.508 -0.6344  1.2340 -1.7649
11579TIP3   OH256227   2.314   5.997  14.461 -0.5801  0.4770 -0.1602
11579TIP3    H156228   2.404   5.979  14.490 -0.1478  0.9689 -1.1727
11579TIP3    H256229   2.287   6.072  14.515 -0.4904  0.1427  0.3548
11580TIP3   OH256230   4.281   1.247   1.106 -0.1560 -0.0601 -0.5713
11580TIP3    H156231   4.336   1.218   1.179  0.4688 -0.5591 -1.2378
11580TIP3    H256232   4.300   1.185   1.035 -1.3338 -0.0435 -0.9137
11581TIP3   OH256233   1.420   2.620   2.895 -0.2184  0.5901 -0.4322
11581TIP3    H156234   1.376   2.645   2.814 -0.7469 -1.3339 -0.7552
11581TIP3    H256235   1.513   2.614   2.870 -0.1831  1.4191 -0.5300
11582TIP3   OH256236   6.156   1.740  13.073  0.4076  0.2912  0.5834
11582TIP3    H156237   6.144   1.682  12.998 -0.8612 -1.1303  1.8684
11582TIP3    H256238   6.246   1.772  13.064  0.6579 -0.7883 -0.9026
11583TIP3   OH256239   0.909   0.574   0.035  0.0454  0.0256 -0.5497
11583TIP3    H156240   0.852   0.630   0.089  1.1194  0.9423 -0.3352
11583TIP3    H256241   0.998   0.598   0.062  0.5310 -1.6159 -0.6465
11584TIP3   OH256242   3.260   2.179  11.714 -0.0156  0.0081 -0.2103
11584TIP3    H156243   3.231   2.098  11.671  0.6477  0.0908 -0.8216
11584TIP3    H256244   3.201   2.246  11.679 -1.4865 -0.4419  1.3786
11585TIP3   OH256245   2.861   1.734   3.115  0.0531 -0.0664 -0.3232
11585TIP3    H156246   2.797   1.689   3.060  2.1367 -2.7487 -0.6526
11585TIP3    H256247   2.902   1.797   3.057 -0.8524  0.2327 -0.6515
11586TIP3   OH256248   3.003   2.343   4.300  0.1570 -0.4797 -0.1939
11586TIP3    H156249   3.062   2.375   4.368  1.3341 -2.6109 -0.1912
11586TIP3    H256250   3.060   2.328   4.224 -0.5622 -1.5016 -0.5365
11587TIP3   OH256251   6.265   4.951  10.568 -0.0022 -0.4311  0.1903
11587TIP3    H156252   6.248   4.943  10.474 -0.6940  0.3032  0.2518
11587TIP3    H256253   6.298   4.865  10.594 -0.3353 -0.8054 -0.6182
11588TIP3   OH256254   0.749   6.076   1.964  0.0147  0.6149  0.0810
11588TIP3    H156255   0.667   6.057   1.919 -0.0993  2.7756 -0.7242
11588TIP3    H256256   0.808   6.106   1.894  0.7701  1.2326  0.9676
11589TIP3   OH256257   4.945   2.123  14.716 -0.1513  0.0470 -0.0881
11589TIP3    H156258   4.907   2.207  14.687 -0.4535 -0.1675 -0.3217
11589TIP3    H256259   4.893   2.057  14.670  1.0120 -0.2444 -1.0183
11590TIP3   OH256260   1.139   1.755   0.717  0.1576  0.1810  0.4044
11590TIP3    H156261   1.213   1.734   0.660  0.1485  1.6411 -0.1476
11590TIP3    H256262   1.173   1.740   0.806  1.1503  0.9051  0.1626
11591TIP3   OH256263   1.373   5.841   6.402  0.4834 -0.5521  0.8866
11591TIP3    H156264   1.397   5.929   6.431  1.1325  0.0087 -1.2630
11591TIP3    H256265   1.448   5.787   6.426  2.4596  0.5094 -2.4557
11592TIP3   OH256266   5.366   4.865   1.779  1.0237  0.2102 -0.2660
11592TIP3    H156267   5.382   4.772   1.797  0.5125 -0.1384 -1.6150
11592TIP3    H256268   5.452   4.906   1.787  1.5812 -0.6891 -1.5257
11593TIP3   OH256269   6.721   5.233  15.175  0.1734 -0.0832 -0.4825
11593TIP3    H156270   6.679   5.162  15.127 -0.5317  0.0200 -0.0356
11593TIP3    H256271   6.654   5.262  15.238  1.4331 -0.9704  1.3335
11594TIP3   OH256272   1.359   5.006  16.346 -0.0770 -0.4227  0.0669
11594TIP3    H156273   1.387   4.926  16.302 -1.1352 -1.1900  0.7670
11594TIP3    H256274   1.264   4.997  16.355  0.1896 -0.6461  3.1321
11595TIP3   OH256275   5.799   2.754  13.951  0.3425 -0.1395  0.1256
11595TIP3    H156276   5.833   2.819  13.889  0.8656  0.1914  0.7520
11595TIP3    H256277   5.790   2.674  13.900  0.6834  0.1601 -0.4045
11596TIP3   OH256278   1.883   6.731  15.647  0.0686  0.0306  0.2611
11596TIP3    H156279   1.841   6.816  15.635  2.3332  1.2789  0.8041
11596TIP3    H256280   1.873   6.687  15.562 -0.8854  0.9459 -0.1033
11597TIP3   OH256281   0.034   5.851  14.208  0.4087 -0.7191 -0.0199
11597TIP3    H156282  -0.016   5.832  14.287 -1.4873 -1.4172 -1.3629
11597TIP3    H256283   0.001   5.935  14.177  0.1037 -1.1464 -0.8767
11598TIP3   OH256284   6.586   6.366   0.021  0.0342 -0.1619  0.4644
11598TIP3    H156285   6.520   6.376   0.090  1.4283  0.6378  1.7154
11598TIP3    H256286   6.641   6.444   0.029  0.7497 -0.4941 -0.9992
11599TIP3   OH256287   4.966   1.124   5.096  0.4554  0.2954  0.5353
11599TIP3    H156288   4.925   1.174   5.026  0.5014 -0.7822 -0.2768
11599TIP3    H256289   4.976   1.187   5.168  2.8426  2.1276 -1.3232
11600TIP3   OH256290   1.907   1.724   1.553  0.3992 -0.5703 -0.1299
11600TIP3    H156291   1.871   1.797   1.502  0.8996 -0.5477 -0.4574
11600TIP3    H256292   1.908   1.757   1.643  0.1566 -0.3542 -0.2050
11601TIP3   OH256293   5.501   0.942  11.183  0.1272 -0.4007  0.0052
11601TIP3    H156294   5.536   0.928  11.271  0.2991 -0.3394 -0.0541
11601TIP3    H256295   5.408   0.963  11.198 -0.0115 -1.1105  0.1213
11602TIP3   OH256296   1.655   4.791   5.954 -0.1132 -0.4577 -0.3022
11602TIP3    H156297   1.587   4.857   5.967  0.5096  0.2660 -0.6319
11602TIP3    H256298   1.610   4.707   5.960 -1.1531  0.0314 -1.2897
11603TIP3   OH256299   1.901   1.152   1.103  0.1592  0.6943 -0.2437
11603TIP3    H156300   1.949   1.225   1.064 -1.1280  1.4607 -0.4500
11603TIP3    H256301   1.853   1.113   1.030  0.5113 -0.0895 -0.0570
11604TIP3   OH256302   4.547   0.788  13.898  0.4648 -0.3372 -0.1731
11604TIP3    H156303   4.539   0.705  13.850  1.1431 -0.5506  0.0722
11604TIP3    H256304   4.533   0.856  13.832  0.6994 -0.6350 -0.5288
11605TIP3   OH256305   4.884   1.527  16.429 -0.3917  0.1606  0.4495
11605TIP3    H156306   4.807   1.514  16.485 -0.4344 -0.1782  0.3157
11605TIP3    H256307   4.866   1.474  16.352 -0.6197  1.1331 -0.1664
11606TIP3   OH256308   0.105   1.948   6.322 -0.3394  0.1639 -0.0560
11606TIP3    H156309   0.087   1.954   6.415  0.9084  1.2545  0.1443
11606TIP3    H256310   0.121   1.855   6.305 -3.5796 -0.4887  0.1958
11607TIP3   OH256311   3.859   3.611  13.818  0.3135 -0.0108  0.8131
11607TIP3    H156312   3.899   3.677  13.875  3.1475  0.1839 -1.2638
11607TIP3    H256313   3.773   3.646  13.797  1.5049  2.7479  0.3118
11608TIP3   OH256314   2.074   5.638  16.984 -0.2125  0.3772  0.6129
11608TIP3    H156315   2.163   5.660  16.958 -0.6997  3.5044  1.3798
11608TIP3    H256316   2.082   5.555  17.030  2.1269  0.0248 -0.4028
11609TIP3   OH256317   0.670   4.623  11.413  0.0420 -0.4561  0.1169
11609TIP3    H156318   0.682   4.688  11.482  0.0829  0.8531 -1.0870
11609TIP3    H256319   0.595   4.571  11.441 -1.2111  1.3514  0.2003
11610TIP3   OH256320   5.478   3.930   0.496  0.0955 -0.0155  0.0846
11610TIP3    H156321   5.517   3.880   0.424  1.3629  0.8870  0.1413
11610TIP3    H256322   5.423   3.995   0.452  3.1338  2.4514 -0.2105
11611TIP3   OH256323   6.547   6.758  17.118 -0.0836  0.2123 -0.2779
11611TIP3    H156324   6.598   6.746  17.199  0.7550 -2.8109 -1.1872
11611TIP3    H256325   6.462   6.789  17.148  0.5703  0.1811  1.7014
11612TIP3   OH256326   5.999   6.772  15.202 -0.4128 -0.2340 -0.3700
11612TIP3    H156327   5.980   6.703  15.138  2.0673 -2.4483  1.1766
11612TIP3    H256328   6.080   6.812  15.171 -1.5154  1.5828 -0.9219
11613TIP3   OH256329   6.775   0.947   0.179 -0.4118 -0.1030  0.8394
11613TIP3    H156330   6.730   0.863   0.181  0.7028 -0.8097 -2.3817
11613TIP3    H256331   6.847   0.935   0.117  1.2450  2.5015  2.1594
11614TIP3   OH256332   1.452   1.230   0.545  0.8058 -0.3552 -0.1464
11614TIP3    H156333   1.410   1.145   0.532  1.5207 -0.7663  0.1881
11614TIP3    H256334   1.393   1.277   0.604 -0.6863  0.2058 -2.0097
11615TIP3   OH256335   0.537   4.540   1.234 -0.7600 -0.1017  0.8576
11615TIP3    H156336   0.489   4.602   1.180 -0.2365 -0.5050 -0.0727
11615TIP3    H256337   0.483   4.460   1.232  0.1596 -0.7046 -0.5641
11616TIP3   OH256338   2.564   2.604  15.219 -0.1493  0.1882 -0.4194
11616TIP3    H156339   2.469   2.607  15.206 -0.1346  1.3989 -0.2934
11616TIP3    H256340   2.581   2.515  15.250 -1.4235  0.4294  1.0050
11617TIP3   OH256341   1.688   6.491  12.219  0.2792 -0.3694 -0.0566
11617TIP3    H156342   1.596   6.514  12.216  0.1055 -1.1095 -0.6758
11617TIP3    H256343   1.695   6.413  12.164  1.8527  1.6292 -2.8599
11618TIP3   OH256344   5.445   4.022   2.380  0.3520  0.7805 -0.2915
11618TIP3    H156345   5.357   4.005   2.414  0.7753  1.5765  1.2466
11618TIP3    H256346   5.465   4.112   2.407  1.1843  1.0008 -1.6184
11619TIP3   OH256347   6.663   0.714  12.532 -0.0054  0.1660 -0.0087
11619TIP3    H156348   6.623   0.632  12.503  0.8205 -0.2631  0.0615
11619TIP3    H256349   6.624   0.729  12.619 -0.7806  0.2856 -0.3715
11620TIP3   OH256350   6.445   5.305  15.276 -0.6176 -0.2749  0.2030
11620TIP3    H156351   6.391   5.232  15.246  1.6150 -0.9290 -2.4582
11620TIP3    H256352   6.382   5.368  15.312 -2.9326 -1.8112 -0.9998
11621TIP3   OH256353   0.979   0.372  13.587 -0.8850  0.1921  0.5102
11621TIP3    H156354   1.059   0.373  13.535 -0.3311  0.6513  1.3550
11621TIP3    H256355   0.947   0.282  13.582 -1.2272  0.3938 -1.1959
11622TIP3   OH256356   6.634   1.069   3.096  0.1612 -0.4011  0.0547
11622TIP3    H156357   6.630   1.059   3.001  0.5875  0.6675 -0.0835
11622TIP3    H256358   6.703   1.008   3.124  1.1334  0.4293 -0.5011
11623TIP3   OH256359   5.840   4.709  11.099  0.0793 -0.1052 -0.2080
11623TIP3    H156360   5.798   4.776  11.045  1.1218  2.6706  2.2257
11623TIP3    H256361   5.772   4.645  11.116 -1.6303  1.5339 -0.7324
11624TIP3   OH256362   4.179   2.925   3.629 -0.1994  0.0766  0.1334
11624TIP3    H156363   4.231   2.990   3.675 -0.3655  1.3952 -1.4881
11624TIP3    H256364   4.110   2.976   3.586 -2.0367 -1.4866  1.1523
11625TIP3   OH256365   5.615   5.749   6.010 -0.5396  0.3400 -0.0147
11625TIP3    H156366   5.541   5.805   5.987 -0.6704  0.4563  0.6756
11625TIP3    H256367   5.648   5.786   6.092  0.4781  0.4810 -0.4776
11626TIP3   OH256368   4.381   3.578   2.421  0.3099  0.2970  0.6565
11626TIP3    H156369   4.369   3.648   2.485 -1.0324  2.4281 -1.8116
11626TIP3    H256370   4.472   3.587   2.392  0.1580  1.0215  0.3860
11627TIP3   OH256371   5.759   1.432   2.891  0.4487 -0.5191 -0.5779
11627TIP3    H156372   5.691   1.495   2.914 -0.3075 -1.3229 -0.5880
11627TIP3    H256373   5.721   1.347   2.912  1.6364 -0.9508 -0.1307
11628TIP3   OH256374   1.420   2.414  17.162  0.1748 -0.1783  0.0183
11628TIP3    H156375   1.496   2.471  17.146  1.0232 -1.4814 -0.7150
11628TIP3    H256376   1.347   2.459  17.121  0.3220  1.6853  1.7758
11629TIP3   OH256377   5.847   4.216   1.532  0.0844  1.0570  0.7835
11629TIP3    H156378   5.773   4.220   1.470 -0.6788  0.3219  1.6271
11629TIP3    H256379   5.812   4.167   1.607  1.9848 -0.8811  0.4315
11630TIP3   OH256380   5.521   4.676   0.859 -0.2046 -0.4326  0.0058
11630TIP3    H156381   5.531   4.738   0.787 -1.5929 -1.0024 -0.6980
11630TIP3    H256382   5.523   4.731   0.938 -1.1048  0.4900 -0.5909
11631TIP3   OH256383   1.695   1.939  13.470  0.1983  0.1489 -0.3606
11631TIP3    H156384   1.712   1.845  13.465 -0.0996  0.0487  0.5354
11631TIP3    H256385   1.780   1.978  13.491  0.2539  0.0579 -0.4168
11632TIP3   OH256386   0.139   2.337   1.193 -0.6640 -0.5339 -0.5266
11632TIP3    H156387   0.061   2.374   1.153 -0.6476 -1.0302 -1.0249
11632TIP3    H256388   0.193   2.310   1.119 -0.3918 -0.9572 -0.1773
11633TIP3   OH256389   1.305   6.398  15.639 -0.4493 -0.3197 -0.2827
11633TIP3    H156390   1.252   6.476  15.625  0.6688  0.3772 -0.6198
11633TIP3    H256391   1.319   6.395  15.734  0.8840  0.7992 -0.4339
11634TIP3   OH256392   3.546   5.709  12.708 -0.0842 -0.3776  0.2154
11634TIP3    H156393   3.520   5.627  12.665  0.5152  0.0766 -1.0347
11634TIP3    H256394   3.607   5.683  12.776 -0.8967 -1.0918  0.6832
11635TIP3   OH256395   4.958   3.972   3.417 -0.1431  0.1218  0.3319
11635TIP3    H156396   4.951   4.062   3.385 -0.2743  1.2320  3.3632
11635TIP3    H256397   4.975   3.981   3.511 -1.6282 -3.0273  0.9576
11636TIP3   OH256398   6.321   4.191   5.049  0.1572 -0.3950 -0.2281
11636TIP3    H156399   6.395   4.172   5.108 -0.7908 -0.1441  1.0529
11636TIP3    H256400   6.303   4.284   5.064  1.1429  0.1651 -2.3423
11637TIP3   OH256401   0.273   2.715  13.385  0.0773  0.9479 -0.1951
11637TIP3    H156402   0.246   2.724  13.477  2.0981 -0.6085  0.6052
11637TIP3    H256403   0.290   2.805  13.356 -0.6951  1.4702  0.9127
11638TIP3   OH256404   5.155   0.690   1.177 -0.8749  0.2318  0.5697
11638TIP3    H156405   5.240   0.685   1.220 -0.0576 -0.8153 -1.1316
11638TIP3    H256406   5.167   0.646   1.093 -2.8520  0.8658 -0.0889
11639TIP3   OH256407   3.364   3.731   3.530  0.0531  0.3274  0.4223
11639TIP3    H156408   3.369   3.663   3.464 -1.1050  0.5032  0.1429
11639TIP3    H256409   3.408   3.807   3.490  0.7937 -0.0612  0.4955
11640TIP3   OH256410   6.021   4.636   0.136 -0.1645 -0.0208 -0.0301
11640TIP3    H156411   6.072   4.667   0.212 -1.6447  0.0349  0.9618
11640TIP3    H256412   6.000   4.716   0.087  0.8843 -0.0666 -0.5724
11641TIP3   OH256413   2.306   1.122  12.516 -0.3968 -0.0380  0.3447
11641TIP3    H156414   2.330   1.169  12.596 -0.9069  0.4365  0.2231
11641TIP3    H256415   2.357   1.163  12.447 -0.5301  0.0591  0.3049
11642TIP3   OH256416   5.245   0.900   4.549  0.1769 -0.5647 -0.6386
11642TIP3    H156417   5.177   0.867   4.490 -0.3548 -0.1507 -0.2609
11642TIP3    H256418   5.260   0.990   4.520 -0.2238 -0.2960 -0.0273
11643TIP3   OH256419   4.942   6.275   0.107  0.2604 -0.2303 -0.1851
11643TIP3    H156420   4.866   6.279   0.165 -0.0415 -1.4122 -0.4953
11643TIP3    H256421   4.983   6.361   0.115  0.9913 -0.8097  2.8086
11644TIP3   OH256422   0.761   3.817   5.147  0.1803  0.1707 -0.4444
11644TIP3    H156423   0.789   3.727   5.133 -1.1550 -0.2281 -0.5907
11644TIP3    H256424   0.808   3.845   5.225  0.7281 -0.5982 -0.4963
11645TIP3   OH256425   2.693   6.167   5.431 -0.2697 -0.3601 -0.1237
11645TIP3    H156426   2.740   6.118   5.498 -1.0809 -1.1250 -0.1042
11645TIP3    H256427   2.609   6.189   5.472 -0.0603  0.7090 -0.2680
11646TIP3   OH256428   4.488   4.830   2.136 -0.1622  0.4386 -0.6450
11646TIP3    H156429   4.393   4.824   2.132 -0.0496 -0.8783 -1.5963
11646TIP3    H256430   4.512   4.886   2.063 -0.1704  0.4511 -0.6384
11647TIP3   OH256431   4.791   5.344  13.111  0.1011 -0.0465  0.4395
11647TIP3    H156432   4.767   5.353  13.019  2.7297 -0.5320 -0.3256
11647TIP3    H256433   4.794   5.433  13.144  0.3170  0.2030 -0.2558
11648TIP3   OH256434   1.116   4.942   3.836 -0.2670 -0.6414  0.7769
11648TIP3    H156435   1.087   5.031   3.815  0.3505 -0.4205  0.8651
11648TIP3    H256436   1.071   4.920   3.917  0.0682 -0.1770  1.0859
11649TIP3   OH256437   3.540   4.753  15.707 -0.2680 -0.1247  0.6109
11649TIP3    H156438   3.457   4.799  15.705 -0.4246 -0.3815  1.0806
11649TIP3    H256439   3.549   4.724  15.798  1.3106  1.6498  1.0388
11650TIP3   OH256440   4.529   2.197   0.672 -0.0219  0.9035 -0.3316
11650TIP3    H156441   4.525   2.220   0.579  0.6579  0.9336 -0.3584
11650TIP3    H256442   4.502   2.105   0.675 -1.0526  1.2036 -0.4321
11651TIP3   OH256443   3.311   0.434  15.251 -0.0254  0.3175 -0.1538
11651TIP3    H156444   3.345   0.504  15.307 -1.0419  0.6997 -0.0104
11651TIP3    H256445   3.359   0.444  15.169  0.6199  0.4905  0.2384
11652TIP3   OH256446   2.600   4.845  16.675  0.3990  0.0179  0.3377
11652TIP3    H156447   2.658   4.796  16.617  1.1002  0.4155  0.6940
11652TIP3    H256448   2.577   4.783  16.744  0.3329 -0.1693  0.1481
11653TIP3   OH256449   4.173   2.344   4.433 -0.5651  0.1293  0.1183
11653TIP3    H156450   4.182   2.275   4.367  1.7200 -0.2798  0.8333
11653TIP3    H256451   4.092   2.389   4.409 -0.7741 -1.2229 -1.8318
11654TIP3   OH256452   5.689   1.705   0.568 -0.0639 -0.1896 -0.2212
11654TIP3    H156453   5.672   1.788   0.613  2.0638  0.0442  0.1923
11654TIP3    H256454   5.622   1.645   0.603 -0.2419  0.7660  1.1004
11655TIP3   OH256455   0.968   5.433   6.325  0.4185 -0.5680  0.2376
11655TIP3    H156456   1.056   5.426   6.362  0.5056  0.2746  0.2183
11655TIP3    H256457   0.910   5.417   6.400  0.5888  2.4540  1.0877
11656TIP3   OH256458   1.537   5.358  15.636 -0.2078  1.0060 -0.3193
11656TIP3    H156459   1.471   5.288  15.644 -1.8042  2.1948 -2.6866
11656TIP3    H256460   1.619   5.312  15.620 -0.8399 -0.4226  0.4572
11657TIP3   OH256461   0.395   6.351  12.149 -0.4142  0.4772  0.2155
11657TIP3    H156462   0.486   6.343  12.176 -0.0990 -0.1174 -1.0256
11657TIP3    H256463   0.370   6.439  12.177  0.8714  1.0609 -0.4304
11658TIP3   OH256464   1.942   4.085  11.390 -0.5947 -0.1581 -0.1381
11658TIP3    H156465   1.918   3.993  11.388 -1.1856  0.0137 -1.2635
11658TIP3    H256466   2.026   4.086  11.436 -1.2682 -1.0832  1.1554
11659TIP3   OH256467   4.010   2.778  12.851 -0.5700  0.1534  0.2450
11659TIP3    H156468   4.105   2.784  12.856 -0.4286 -0.5029 -1.2948
11659TIP3    H256469   3.993   2.742  12.763 -2.3283  2.5606 -0.4393
11660TIP3   OH256470   2.249   0.256   4.816  0.5255 -0.1348  0.0329
11660TIP3    H156471   2.237   0.184   4.877  0.9765 -0.5513 -0.3617
11660TIP3    H256472   2.171   0.255   4.761 -0.0119  0.4205  0.7853
11661TIP3   OH256473   3.539   3.311   4.640  0.6357 -0.1673  0.2751
11661TIP3    H156474   3.575   3.382   4.693  1.3384 -0.3350  0.0186
11661TIP3    H256475   3.541   3.344   4.550  1.0946 -0.5641  0.1373
11662TIP3   OH256476   2.975   6.749  15.775 -0.1891  0.8311  0.6250
11662TIP3    H156477   3.047   6.797  15.816  1.8117 -0.2324 -1.5280
11662TIP3    H256478   2.945   6.689  15.843  1.9493  0.2667  1.1103
11663TIP3   OH256479   4.231   4.289  16.768  0.0732 -0.6834 -0.2352
11663TIP3    H156480   4.322   4.267  16.790 -0.9919 -1.9882  3.0853
11663TIP3    H256481   4.217   4.375  16.807 -0.4969 -1.0522  0.3779
11664TIP3   OH256482   5.695   3.030  15.054  0.1044 -0.5088 -0.3192
11664TIP3    H156483   5.689   3.026  14.958 -0.2576  2.4948 -0.4462
11664TIP3    H256484   5.608   3.004  15.084 -1.0442  2.4197 -0.9639
11665TIP3   OH256485   5.870   3.063  15.282  0.3771 -0.2792  0.4119
11665TIP3    H156486   5.921   2.986  15.257  0.6759  0.0472  0.0101
11665TIP3    H256487   5.800   3.067  15.216  1.2651  0.6804 -0.4978
11666TIP3   OH256488   0.582   5.622   0.399 -0.2548  0.4444 -1.0020
11666TIP3    H156489   0.653   5.579   0.352  0.2095  0.6507 -0.4937
11666TIP3    H256490   0.578   5.710   0.361 -0.4766  0.3177 -1.2756
11667TIP3   OH256491   0.954   0.327  15.454 -0.3874  0.0395 -0.3496
11667TIP3    H156492   1.017   0.370  15.396 -1.0289  0.9271 -0.3898
11667TIP3    H256493   1.009   0.277  15.515  0.4419  2.2207  0.7451
11668TIP3   OH256494   5.422   1.108   1.743  0.0635 -0.0622  0.1342
11668TIP3    H156495   5.358   1.134   1.677  1.9463  1.2528 -1.2175
11668TIP3    H256496   5.507   1.125   1.703  1.2958 -2.1302  1.7505
11669TIP3   OH256497   0.905   0.939   5.022 -0.1242 -0.3262  0.2144
11669TIP3    H156498   0.910   0.846   5.002  1.0818 -0.1190 -0.5453
11669TIP3    H256499   0.815   0.954   5.049 -0.3985 -1.6583  0.0367
11670TIP3   OH256500   1.943   1.798  11.435  0.6466  0.0737 -0.9362
11670TIP3    H156501   1.953   1.703  11.443  2.3158  0.3348  0.3497
11670TIP3    H256502   2.011   1.834  11.492  0.0829  2.0455 -1.4778
11671TIP3   OH256503   1.860   5.616   1.672  0.7383  0.1295 -0.1821
11671TIP3    H156504   1.950   5.646   1.656  0.9123  0.2044  0.8982
11671TIP3    H256505   1.844   5.635   1.764 -0.3856  0.0886 -0.3592
11672TIP3   OH256506   6.699   4.523   6.045 -0.3148  0.2938  0.0825
11672TIP3    H156507   6.654   4.493   5.965 -1.1863 -0.4533  0.8469
11672TIP3    H256508   6.639   4.501   6.116  1.4605 -1.1240  1.1796
11673TIP3   OH256509   6.149   4.549  11.812 -0.3746  0.1924  0.5008
11673TIP3    H156510   6.122   4.530  11.723  0.2500  0.6554  0.2076
11673TIP3    H256511   6.116   4.637  11.829  1.2375  0.9182  0.0071
11674TIP3   OH256512   6.330   3.059   1.128 -0.6190  0.4946  0.3564
11674TIP3    H156513   6.355   2.969   1.108  0.0042  0.7353  0.0653
11674TIP3    H256514   6.351   3.108   1.049 -1.1131  0.8699  0.4576
11675TIP3   OH256515   2.996   3.782   5.004 -0.3525 -0.3543 -0.4512
11675TIP3    H156516   2.986   3.860   4.948 -1.3406  0.9417  1.4846
11675TIP3    H256517   2.994   3.816   5.093 -0.0577 -2.5452  0.4207
11676TIP3   OH256518   4.996   6.431   4.676 -0.1384 -0.1681 -0.2573
11676TIP3    H156519   4.967   6.517   4.644 -0.7892  0.3190  1.5311
11676TIP3    H256520   5.090   6.429   4.658 -0.7265 -0.5786 -3.5452
11677TIP3   OH256521   0.492   4.743  11.689  0.8602 -0.5265  0.1379
11677TIP3    H156522   0.424   4.681  11.715  0.4685 -0.7483 -1.3902
11677TIP3    H256523   0.458   4.785  11.610  2.0624  0.0766 -0.0745
11678TIP3   OH256524   4.566   1.741   0.648 -0.0857 -0.0653  0.1005
11678TIP3    H156525   4.631   1.798   0.607  0.7406 -1.7594 -1.0538
11678TIP3    H256526   4.586   1.744   0.741 -0.0620  1.5245  0.0427
11679TIP3   OH256527   0.228   1.421   2.756  0.2462  0.2168 -0.5592
11679TIP3    H156528   0.211   1.426   2.850  0.0380  1.0572 -0.6358
11679TIP3    H256529   0.323   1.436   2.749  0.1938  0.5713 -0.5154
11680TIP3   OH256530   5.217   5.623   1.493 -0.3897 -0.4161 -0.1120
11680TIP3    H156531   5.137   5.674   1.508  0.0319 -0.2363  1.7045
11680TIP3    H256532   5.256   5.614   1.580  0.2817 -2.6267 -0.6017
11681TIP3   OH256533   0.004   4.597   2.325  0.0713 -0.3560 -0.5340
11681TIP3    H156534  -0.005   4.547   2.406 -1.5598  0.5156 -0.1585
11681TIP3    H256535   0.096   4.585   2.300  0.8133 -0.0558  1.8432
11682TIP3   OH256536   1.514   2.807   6.159 -0.2572 -0.4192 -0.2337
11682TIP3    H156537   1.536   2.895   6.189  0.7875 -0.4280 -0.9210
11682TIP3    H256538   1.425   2.792   6.190 -0.0834  0.4994  0.7376
11683TIP3   OH256539   3.693   4.935  16.852  0.2882  0.4136 -0.0105
11683TIP3    H156540   3.646   4.964  16.930 -1.3187 -1.0035 -0.4374
11683TIP3    H256541   3.644   4.972  16.779 -1.2209 -2.4752 -0.5314
11684TIP3   OH256542   0.173   5.763  12.867 -0.1073 -0.5285 -0.0533
11684TIP3    H156543   0.154   5.842  12.918 -0.9609 -0.4983 -0.4121
11684TIP3    H256544   0.193   5.696  12.933 -0.9545 -0.4270  0.3102
11685TIP3   OH256545   5.468   0.175  12.030 -0.6766  0.0003 -0.0902
11685TIP3    H156546   5.506   0.120  11.961 -1.3463  1.3081 -1.5251
11685TIP3    H256547   5.526   0.252  12.033  0.0207 -0.5823  1.6202
11686TIP3   OH256548   5.729   3.999  11.712 -0.4825  0.1903 -0.0763
11686TIP3    H156549   5.663   4.068  11.698 -1.6413 -1.1396 -1.3038
11686TIP3    H256550   5.790   4.010  11.639 -0.8792 -0.3267 -0.4846
11687TIP3   OH256551   4.814   6.677  13.896  0.4031  0.7323  0.1846
11687TIP3    H156552   4.852   6.593  13.870 -1.4425  0.2356 -0.9395
11687TIP3    H256553   4.890   6.734  13.910  1.5932 -0.3271 -1.7577
11688TIP3   OH256554   2.868   1.476  12.180 -0.0464  0.3044  0.4756
11688TIP3    H156555   2.863   1.570  12.164 -2.3725 -0.0539 -1.1628
11688TIP3    H256556   2.787   1.455  12.226  0.1861 -0.9971  0.3102
11689TIP3   OH256557   5.446   5.838   0.731 -0.1889 -0.0919  0.6419
11689TIP3    H156558   5.539   5.830   0.749  0.0749  1.4157  0.0069
11689TIP3    H256559   5.437   5.818   0.638 -0.3207  1.0688  0.4042
11690TIP3   OH256560   6.719   4.427   5.291 -0.1501  0.3087 -0.8317
11690TIP3    H156561   6.757   4.339   5.299 -3.6474 -1.1953 -0.0547
11690TIP3    H256562   6.770   4.480   5.352  0.7418 -1.6111  0.1357
11691TIP3   OH256563   1.292   1.230   2.831 -0.2310 -0.0687 -0.4523
11691TIP3    H156564   1.315   1.320   2.852 -0.1502 -0.3071  0.4928
11691TIP3    H256565   1.197   1.232   2.816 -0.5071 -0.1195  1.1874
11692TIP3   OH256566   1.778   6.272  14.129 -0.1493 -0.3732  0.2106
11692TIP3    H156567   1.862   6.252  14.170 -0.8635 -2.2188  0.8252
11692TIP3    H256568   1.747   6.350  14.174  1.2150  0.3037 -0.0070
11693TIP3   OH256569   6.436   2.633  15.134  0.0867  0.5808  0.0754
11693TIP3    H156570   6.374   2.669  15.197 -0.8479  0.5470 -0.7946
11693TIP3    H256571   6.419   2.539  15.135  1.5351  0.3143  1.3049
11694TIP3   OH256572   5.575   0.117  16.481 -0.8345 -0.3713  0.9289
11694TIP3    H156573   5.527   0.180  16.535 -1.2028 -0.0486  0.2334
11694TIP3    H256574   5.563   0.033  16.525 -0.5590 -0.0016  1.7202
11695TIP3   OH256575   5.008   3.893   4.867  0.0579  0.6794  0.2849
11695TIP3    H156576   5.097   3.928   4.872  0.5318 -0.4773  0.1688
11695TIP3    H256577   4.978   3.913   4.778  0.4679  0.4552  0.0956
11696TIP3   OH256578   2.451   2.748   0.453  0.7995  0.4486 -0.0671
11696TIP3    H156579   2.480   2.770   0.541 -0.6405  0.9238  0.2980
11696TIP3    H256580   2.356   2.739   0.460  0.9774 -2.9242 -0.8448
11697TIP3   OH256581   6.599   0.799  15.253 -0.9239  0.3318  0.2284
11697TIP3    H156582   6.658   0.752  15.310 -0.2695  0.5671 -0.2520
11697TIP3    H256583   6.656   0.851  15.196 -1.6600  2.5426  1.4683
11698TIP3   OH256584   3.735   0.876  16.953  0.1298  0.5734  0.7055
11698TIP3    H156585   3.698   0.922  16.878  0.4287  0.5263  0.5299
11698TIP3    H256586   3.698   0.788  16.948  0.4381  0.4606  0.4020
11699TIP3   OH256587   4.826   5.662  16.237 -0.0377 -0.0582  0.3042
11699TIP3    H156588   4.918   5.635  16.231 -0.4684 -1.2771 -1.0829
11699TIP3    H256589   4.830   5.753  16.269  1.5895 -0.4566  1.2980
11700TIP3   OH256590   0.330   6.195  13.290  0.0299 -0.1132  0.0924
11700TIP3    H156591   0.357   6.232  13.374 -0.1799  0.4549 -0.0880
11700TIP3    H256592   0.366   6.255  13.225  1.4083 -1.3304 -0.2785
11701TIP3   OH256593   3.574   1.177   4.831  0.4146 -0.3460 -0.1259
11701TIP3    H156594   3.491   1.131   4.823  0.1556  0.4857 -2.3351
11701TIP3    H256595   3.624   1.124   4.893 -0.9752 -1.9926 -0.3745
11702TIP3   OH256596   3.692   4.869   3.053 -0.1553 -0.0826 -0.1436
11702TIP3    H156597   3.612   4.828   3.020  0.7301 -0.7526 -1.4729
11702TIP3    H256598   3.762   4.811   3.024  0.8311  0.5336  0.9760
11703TIP3   OH256599   1.916   0.620   6.617  0.3316 -0.3593 -0.6507
11703TIP3    H156600   1.929   0.707   6.580  1.0696 -0.5819 -0.9162
11703TIP3    H256601   1.821   0.611   6.623  0.2448  0.3336 -0.9267
11704TIP3   OH256602   3.200   0.250   0.573  0.0448  0.6618 -0.6204
11704TIP3    H156603   3.183   0.158   0.556  1.0131  0.6997 -1.9636
11704TIP3    H256604   3.113   0.290   0.581 -0.3838 -0.2706 -0.5926
11705TIP3   OH256605   6.189   5.176  10.745  0.9285 -0.2253 -0.5806
11705TIP3    H156606   6.204   5.108  10.679  0.2874 -0.7329 -0.2020
11705TIP3    H256607   6.275   5.188  10.787  0.5436 -2.4845  0.9597
11706TIP3   OH256608   1.093   1.609   4.627 -0.5373 -0.2232  0.3571
11706TIP3    H156609   1.008   1.639   4.596 -0.1498  0.9408  0.4185
11706TIP3    H256610   1.150   1.615   4.551 -0.4410 -0.7680  0.3820
11707TIP3   OH256611   1.390   4.118   3.818 -0.5153  0.6929 -0.4431
11707TIP3    H156612   1.372   4.164   3.736 -1.6257 -0.2147 -0.7119
11707TIP3    H256613   1.450   4.048   3.794 -0.3403  0.8127 -0.3606
11708TIP3   OH256614   3.299   2.076   0.034  0.1677 -0.0344 -0.0233
11708TIP3    H156615   3.337   2.133  -0.033  0.0840  0.6056  0.4662
11708TIP3    H256616   3.205   2.080   0.017  0.1548  0.0479  0.0683
11709TIP3   OH256617   4.192   5.544  14.123  0.3857  0.0411  0.2836
11709TIP3    H156618   4.197   5.540  14.027 -0.0046 -2.5125  0.3402
11709TIP3    H256619   4.221   5.458  14.152 -0.5061  0.4343  2.4322
11710TIP3   OH256620   1.064   5.224   3.752 -0.0194 -0.8899 -0.4396
11710TIP3    H156621   1.004   5.218   3.827 -0.2034 -0.4974 -0.5512
11710TIP3    H256622   1.021   5.285   3.692  0.4847 -0.6101 -0.5242
11711TIP3   OH256623   6.196   2.108  13.417 -0.1062 -0.3599 -0.2733
11711TIP3    H156624   6.220   2.199  13.435 -0.4128 -0.6873  1.9125
11711TIP3    H256625   6.111   2.115  13.374 -0.2706  0.3927  0.1498
11712TIP3   OH256626   0.375   3.206   0.480 -0.7294 -0.1258 -0.2551
11712TIP3    H156627   0.320   3.280   0.504  1.6198  2.4563 -2.6126
11712TIP3    H256628   0.374   3.204   0.385  2.9271 -0.2463 -0.3637
11713TIP3   OH256629   0.776   5.347  11.665 -0.1427 -0.5027  0.0133
11713TIP3    H156630   0.817   5.425  11.627 -1.0597  0.8199  1.6756
11713TIP3    H256631   0.723   5.311  11.593 -0.9824  1.3315 -0.3088
11714TIP3   OH256632   1.548   1.054  12.401  0.0152  0.5921  0.6099
11714TIP3    H156633   1.592   1.060  12.316  1.9868  2.1503  1.7139
11714TIP3    H256634   1.558   1.141  12.440 -2.3729  0.4031  1.7340
11715TIP3   OH256635   1.473   2.473  14.873 -0.1228  0.6421  0.0659
11715TIP3    H156636   1.539   2.519  14.924 -0.1331  0.3718  0.3250
11715TIP3    H256637   1.433   2.541  14.819  1.8529  0.4550 -1.7199
11716TIP3   OH256638   0.854   6.711   1.154 -0.0524 -0.2013  0.1026
11716TIP3    H156639   0.794   6.668   1.214  0.7441  0.2040  1.2191
11716TIP3    H256640   0.876   6.644   1.089 -0.1164 -0.9670  0.8604
11717TIP3   OH256641   2.370   0.570  16.963 -0.1208 -0.5454 -0.1836
11717TIP3    H156642   2.339   0.493  16.915 -0.4932 -1.5493  1.6162
11717TIP3    H256643   2.328   0.563  17.049  0.8362  0.9991  0.4252
11718TIP3   OH256644   3.756   6.532  16.426  0.1588  0.5421  0.0059
11718TIP3    H156645   3.698   6.497  16.494 -0.4730 -0.0999 -0.8557
11718TIP3    H256646   3.702   6.536  16.348  1.5386 -1.0167 -1.0682
11719TIP3   OH256647   1.867   4.584  12.441 -0.5251 -0.6967  0.4763
11719TIP3    H156648   1.785   4.536  12.426  0.3353 -1.3147 -2.5295
11719TIP3    H256649   1.899   4.605  12.353  2.0983  0.3321  1.6276
11720TIP3   OH256650   2.245   4.001  11.341  0.5871 -0.2748  0.0284
11720TIP3    H156651   2.240   3.921  11.395  1.7372 -0.3039  0.0956
11720TIP3    H256652   2.218   3.972  11.254 -2.1858 -0.0395  0.7602
11721TIP3   OH256653   2.719   4.466  16.344 -0.1373 -0.5455 -0.3192
11721TIP3    H156654   2.813   4.483  16.336 -0.1606 -1.3388 -2.4099
11721TIP3    H256655   2.693   4.432  16.259 -2.1444 -1.2745  0.5579
11722TIP3   OH256656   3.260   6.080   2.623  0.3081  0.0889 -0.5034
11722TIP3    H156657   3.177   6.080   2.671  0.9950  0.3137  0.7220
11722TIP3    H256658   3.268   5.991   2.589  1.3960 -1.1171  2.7014
11723TIP3   OH256659   4.919   0.891  10.750  0.3906 -0.0661 -0.1266
11723TIP3    H156660   4.943   0.944  10.827 -0.4464 -0.9470  0.7518
11723TIP3    H256661   4.997   0.838  10.734  0.2011 -0.6228  0.7561
11724TIP3   OH256662   2.705   6.744   3.183 -0.1718  0.2320  0.5625
11724TIP3    H156663   2.704   6.651   3.162  1.7144  0.5113 -0.8933
11724TIP3    H256664   2.649   6.784   3.116  0.9681  0.4002 -0.3180
11725TIP3   OH256665   0.221   0.864  15.359 -0.0901 -0.1455  0.4505
11725TIP3    H156666   0.214   0.821  15.273  0.1809  0.0038  0.3527
11725TIP3    H256667   0.312   0.895  15.363  0.1027 -0.7811  1.0901
11726TIP3   OH256668   1.139   5.047  11.806 -0.0005 -0.4940  0.0081
11726TIP3    H156669   1.093   5.120  11.846  2.4118  1.4408 -0.6563
11726TIP3    H256670   1.069   4.991  11.770 -1.8693  1.2713  0.8085
11727TIP3   OH256671   5.679   3.544  13.549 -0.8049  0.0691  0.1761
11727TIP3    H156672   5.733   3.561  13.625  1.5837 -0.4050 -1.3658
11727TIP3    H256673   5.593   3.520  13.585  0.0504  0.6031  2.6552
11728TIP3   OH256674   4.620   5.900  14.970 -0.1633 -0.1278 -0.1498
11728TIP3    H156675   4.597   5.988  15.000  1.3031  0.3446 -0.3490
11728TIP3    H256676   4.685   5.915  14.901 -0.6384 -1.3360 -0.8533
11729TIP3   OH256677   5.062   1.270  14.531 -0.3674  0.2876 -0.2953
11729TIP3    H156678   5.005   1.268  14.608 -0.1965 -4.8712 -0.1558
11729TIP3    H256679   5.113   1.350  14.542 -1.9251  0.8629  3.7475
11730TIP3   OH256680   2.251   0.484  12.498 -0.0243 -0.5580 -0.5389
11730TIP3    H156681   2.165   0.443  12.511 -0.0441 -0.3893 -0.1196
11730TIP3    H256682   2.231   0.568  12.456 -0.0372 -0.6790 -0.7718
11731TIP3   OH256683   3.995   4.548   1.771  0.2499 -0.1857  0.1384
11731TIP3    H156684   4.061   4.616   1.758  0.8288 -0.6431  0.6326
11731TIP3    H256685   4.024   4.475   1.715 -0.8963  0.3174 -1.1483
11732TIP3   OH256686   5.988   2.241  11.627  0.0987  0.1631 -0.0682
11732TIP3    H156687   5.976   2.178  11.698 -1.3938  1.2098  0.6343
11732TIP3    H256688   5.971   2.191  11.548 -1.1449 -0.3003  0.4861
11733TIP3   OH256689   0.654   4.933   4.256  0.0132  0.2562 -0.0927
11733TIP3    H156690   0.617   4.924   4.344 -1.6214  0.0732 -0.7791
11733TIP3    H256691   0.676   4.844   4.229  0.4113  0.2997  0.0856
11734TIP3   OH256692   2.273   5.862  13.915  0.4367  0.9479 -0.5414
11734TIP3    H156693   2.281   5.924  13.987  0.5314 -1.7432  1.8710
11734TIP3    H256694   2.180   5.838  13.913  0.6177  0.2235 -0.6063
11735TIP3   OH256695   5.550   6.381  13.885 -0.1099  0.6585  0.4285
11735TIP3    H156696   5.528   6.407  13.795  1.2270  1.0519  0.2006
11735TIP3    H256697   5.607   6.451  13.917  0.8173 -0.3221  0.9829
11736TIP3   OH256698   3.880   3.526  15.214 -0.0672 -0.0304  0.5876
11736TIP3    H156699   3.825   3.546  15.290 -0.8912  0.6721 -0.1866
11736TIP3    H256700   3.863   3.433  15.197 -0.3668 -0.0295  0.8623
11737TIP3   OH256701   2.903   2.391   2.645  0.4047  0.0528 -0.3839
11737TIP3    H156702   2.844   2.425   2.577  0.1422 -0.6204 -0.4953
11737TIP3    H256703   2.951   2.320   2.602 -0.8131 -1.3635  0.5275
11738TIP3   OH256704   2.054   0.720  16.129 -0.8084  0.5046 -1.0607
11738TIP3    H156705   2.076   0.703  16.221  0.9493  0.8740 -1.4107
11738TIP3    H256706   1.959   0.706  16.125 -0.8550  0.1532  0.7364
11739TIP3   OH256707   1.427   2.414   3.545 -0.3175 -1.0536  0.2520
11739TIP3    H156708   1.444   2.400   3.638  1.2893 -1.0734 -0.0213
11739TIP3    H256709   1.430   2.509   3.534  1.6024 -1.1240 -0.1172
11740TIP3   OH256710   3.838   0.299  11.160  0.6700 -0.3751  0.4243
11740TIP3    H156711   3.762   0.247  11.134  0.2705 -0.4166  1.6177
11740TIP3    H256712   3.888   0.312  11.080 -1.4811  1.1273 -0.7104
11741TIP3   OH256713   0.293   1.286  14.495 -0.1747 -0.1258 -0.5095
11741TIP3    H156714   0.198   1.282  14.484 -0.4305  1.1718  0.9703
11741TIP3    H256715   0.313   1.379  14.496  1.1756 -0.4009 -1.2756
11742TIP3   OH256716   2.086   3.801   0.781  0.1011 -0.0962  0.2858
11742TIP3    H156717   2.157   3.845   0.736 -0.5696 -1.5790 -2.3373
11742TIP3    H256718   2.006   3.841   0.746 -0.4110 -0.4354  1.0491
11743TIP3   OH256719   5.535   5.574   2.089  0.0373 -0.0442 -0.0449
11743TIP3    H156720   5.574   5.660   2.074  1.2217 -0.3923  0.9619
11743TIP3    H256721   5.570   5.518   2.020  0.0980  0.0218 -0.0673
11744TIP3   OH256722   1.748   1.648   3.923  0.5433  0.2299  0.1838
11744TIP3    H156723   1.840   1.640   3.898  0.2258 -1.2096 -0.5898
11744TIP3    H256724   1.735   1.582   3.991  0.0262  0.2288  0.0888
11745TIP3   OH256725   1.534   1.722  14.075 -0.2896  0.1158  0.4913
11745TIP3    H156726   1.545   1.744  13.983  1.3070 -0.0333  0.6369
11745TIP3    H256727   1.459   1.775  14.103 -0.2623  0.7956 -0.6817
11746TIP3   OH256728   5.863   3.349  15.486  0.2446  0.9047 -0.5210
11746TIP3    H156729   5.834   3.271  15.439  1.6008 -0.4092  0.7620
11746TIP3    H256730   5.955   3.331  15.508  0.0169  2.0086  1.4591
11747TIP3   OH256731   4.040   0.199   2.513  0.4732 -0.0366  0.1647
11747TIP3    H156732   4.059   0.276   2.459 -2.4425 -0.3339 -1.4446
11747TIP3    H256733   4.125   0.164   2.537  1.8601  3.0472 -0.0084
11748TIP3   OH256734   5.563   5.682  15.147  0.0519  0.4484 -0.0917
11748TIP3    H156735   5.640   5.655  15.097  0.1017  1.6438 -0.6826
11748TIP3    H256736   5.591   5.763  15.191 -1.2352  1.5460 -1.2706
11749TIP3   OH256737   5.927   4.487   5.028 -0.0911  0.3499  0.8411
11749TIP3    H156738   5.997   4.482   5.092  0.9277 -0.7292 -0.3365
11749TIP3    H256739   5.950   4.561   4.972  0.9006 -0.9084 -0.4439
11750TIP3   OH256740   5.801   3.893   0.364  0.0014 -0.0807  0.1392
11750TIP3    H156741   5.714   3.854   0.369 -0.5202  1.3383  2.7666
11750TIP3    H256742   5.854   3.840   0.423  1.2004 -1.5037 -2.1322
11751TIP3   OH256743   2.077   5.212   2.452 -0.0716 -0.5145  0.3061
11751TIP3    H156744   2.040   5.250   2.372  1.9963  0.0913 -0.3887
11751TIP3    H256745   2.025   5.251   2.522 -1.0708 -0.0566 -0.6556
11752TIP3   OH256746   5.180   2.203  14.400 -0.0558 -0.0867  0.5166
11752TIP3    H156747   5.108   2.259  14.371  1.9504  1.3003 -2.0432
11752TIP3    H256748   5.138   2.120  14.424 -2.3693  0.2297 -2.1776
11753TIP3   OH256749   0.501   1.766   2.675 -0.3617  0.0029  0.2632
11753TIP3    H156750   0.497   1.790   2.583 -0.4486  2.0443  0.7752
11753TIP3    H256751   0.571   1.821   2.711 -0.4356 -0.6643  1.4352
11754TIP3   OH256752   1.001   5.300  16.489 -0.3162 -0.0659  0.1997
11754TIP3    H156753   1.051   5.228  16.451 -0.1780 -1.1929  2.4270
11754TIP3    H256754   0.940   5.257  16.550 -1.7109  1.5502 -0.0186
11755TIP3   OH256755   5.716   5.264   5.144 -0.3269  0.0427  0.5148
11755TIP3    H156756   5.705   5.218   5.227 -1.0221 -0.4515  0.1581
11755TIP3    H256757   5.747   5.197   5.083  1.1421  0.6174  0.6067
11756TIP3   OH256758   3.915   3.423   1.210 -0.5445  0.3599  0.3251
11756TIP3    H156759   3.833   3.471   1.211 -1.3380 -0.9789  0.8634
11756TIP3    H256760   3.982   3.489   1.228 -1.5150  1.4146  0.1170
11757TIP3   OH256761   6.046   1.676  16.411 -0.2691  0.4956  0.3775
11757TIP3    H156762   6.070   1.675  16.504 -0.3608 -1.2739  0.4018
11757TIP3    H256763   6.005   1.591  16.396 -0.1962  0.7371 -1.3013
11758TIP3   OH256764   5.959   1.938   2.238  0.3477 -0.5133 -0.1526
11758TIP3    H156765   5.927   2.028   2.240  2.2333  0.2058 -1.0808
11758TIP3    H256766   6.046   1.944   2.198  0.7016 -2.6848  0.2127
11759TIP3   OH256767   5.024   4.996  10.414 -0.2025  0.1197 -0.4208
11759TIP3    H156768   4.963   5.049  10.363  1.5840  1.7164 -0.9538
11759TIP3    H256769   4.980   4.912  10.423 -2.5887  1.2810 -0.5930
11760TIP3   OH256770   2.200   1.042  11.448  0.1346  0.0028 -0.1918
11760TIP3    H156771   2.168   0.952  11.461  0.9733 -0.2833 -0.0719
11760TIP3    H256772   2.271   1.033  11.386  0.8618  0.4647  0.5633
11761TIP3   OH256773   0.713   6.315   4.433  0.1773  0.6305  0.4081
11761TIP3    H156774   0.794   6.269   4.410  0.7656  1.8225  0.0970
11761TIP3    H256775   0.666   6.253   4.488  0.8313 -0.4795 -0.2534
11762TIP3   OH256776   0.626   6.433  11.088  0.0665  0.0020  0.2778
11762TIP3    H156777   0.668   6.496  11.029 -1.8679  0.5170 -0.6148
11762TIP3    H256778   0.681   6.355  11.083  0.6751  0.4973 -1.2151
11763TIP3   OH256779   5.777   6.638   2.183  0.0841  0.0649  0.6277
11763TIP3    H156780   5.761   6.576   2.112 -0.9327  1.3031 -0.2564
11763TIP3    H256781   5.707   6.623   2.246  1.5707 -1.7394  1.9025
11764TIP3   OH256782   6.219   5.189   2.588  0.1321 -0.1671 -0.2758
11764TIP3    H156783   6.288   5.151   2.644  0.1567  1.9230  1.1656
11764TIP3    H256784   6.155   5.224   2.650 -1.0205  0.0941 -1.6006
11765TIP3   OH256785   4.948   5.355   1.800  0.2850 -0.1910 -0.6067
11765TIP3    H156786   4.860   5.319   1.808 -0.2199  0.9268 -0.9766
11765TIP3    H256787   5.002   5.301   1.858 -1.0611  0.4270  1.2772
11766TIP3   OH256788   6.810   0.956  15.820  0.2002 -0.0632 -0.8606
11766TIP3    H156789   6.876   0.922  15.760  0.9950  0.9433 -0.5682
11766TIP3    H256790   6.766   1.026  15.772 -0.1251 -0.2134 -0.7829
11767TIP3   OH256791   5.190   1.096   2.313 -0.1227 -0.0843 -0.3134
11767TIP3    H156792   5.186   1.005   2.282 -0.3457  0.0897 -0.7970
11767TIP3    H256793   5.105   1.111   2.354 -0.7895  0.4986 -1.8936
11768TIP3   OH256794   3.679   5.338   3.003 -0.1600 -0.2535 -0.2044
11768TIP3    H156795   3.645   5.423   3.033  0.4322 -0.1793  0.2700
11768TIP3    H256796   3.750   5.361   2.943  0.9754 -0.4262  1.0779
11769TIP3   OH256797   2.003   5.559  12.900 -0.2700 -0.0393 -0.5655
11769TIP3    H156798   1.908   5.559  12.887 -0.4573  2.2384  0.6223
11769TIP3    H256799   2.016   5.505  12.978 -0.5863 -0.2584 -0.6587
11770TIP3   OH256800   5.052   1.738  17.187  0.2002  0.3416  0.0188
11770TIP3    H156801   4.973   1.702  17.227 -0.4860  0.0694 -1.5453
11770TIP3    H256802   5.124   1.687  17.224 -0.4697 -0.2553  0.4858
11771TIP3   OH256803   6.289   6.418   2.607 -0.0598  0.1767 -0.4447
11771TIP3    H156804   6.215   6.396   2.550 -0.4162 -1.8358  0.7290
11771TIP3    H256805   6.354   6.351   2.589 -0.9335 -1.6926  2.8015
11772TIP3   OH256806   1.574   3.609   2.970  0.2162 -0.1861  0.2360
11772TIP3    H156807   1.655   3.595   3.018  0.1886 -0.6946  0.1370
11772TIP3    H256808   1.594   3.583   2.880 -0.6664 -2.3853  0.6482
11773TIP3   OH256809   5.704   3.101   5.077 -0.3705  0.4088  0.4906
11773TIP3    H156810   5.667   3.018   5.045 -1.1894  1.5652 -1.6773
11773TIP3    H256811   5.633   3.164   5.066  1.5358  2.2543 -1.8515
11774TIP3   OH256812   6.214   0.364  16.365  0.1281  0.0330 -0.3033
11774TIP3    H156813   6.222   0.331  16.276  2.5098  0.7950 -0.4071
11774TIP3    H256814   6.227   0.288  16.421 -1.5644 -0.4829 -0.5827
11775TIP3   OH256815   4.717   4.736  10.924  0.1840 -0.1870 -0.0698
11775TIP3    H156816   4.726   4.735  10.828  1.4195  1.6412 -0.0042
11775TIP3    H256817   4.627   4.765  10.939  0.3724  0.7250 -0.6770
11776TIP3   OH256818   4.211   6.293   2.579 -0.2616  0.0299 -0.2860
11776TIP3    H156819   4.154   6.285   2.503 -0.5175  0.6326 -0.1609
11776TIP3    H256820   4.253   6.207   2.587 -0.3614 -0.0825 -0.9991
11777TIP3   OH256821   2.620   1.279  14.930  0.0070 -0.1157 -0.7792
11777TIP3    H156822   2.578   1.197  14.906  0.9723 -0.2586 -2.0506
11777TIP3    H256823   2.646   1.318  14.846 -2.3432  2.5188 -0.3817
11778TIP3   OH256824   0.870   2.622  15.714  0.1734 -0.1858 -0.1545
11778TIP3    H156825   0.885   2.703  15.761  0.9252  0.1426 -0.9474
11778TIP3    H256826   0.860   2.648  15.622  1.0624 -1.0461 -0.5075
11779TIP3   OH256827   4.604   3.865   4.491  0.2007 -0.4268 -0.0572
11779TIP3    H156828   4.586   3.938   4.431 -2.1426 -1.2815 -0.4351
11779TIP3    H256829   4.626   3.792   4.434  1.5004 -0.3131  0.2848
11780TIP3   OH256830   3.100   5.971   4.301 -0.8304  0.3192 -0.6137
11780TIP3    H156831   3.034   5.931   4.358  0.8246 -0.3156  0.8891
11780TIP3    H256832   3.111   5.908   4.230  0.8475 -1.4025  1.0940
11781TIP3   OH256833   0.664   1.490   0.046 -0.1144  1.1047  0.0233
11781TIP3    H156834   0.712   1.542   0.111 -0.8001  0.6830  0.8734
11781TIP3    H256835   0.642   1.552  -0.023  0.1821  1.6711  0.4338
11782TIP3   OH256836   3.046   6.264  14.940 -0.2983 -0.3297 -0.4030
11782TIP3    H156837   2.978   6.220  14.890  0.5101 -0.6810 -1.2061
11782TIP3    H256838   3.043   6.355  14.911 -2.6546  0.4021  1.9955
11783TIP3   OH256839   0.788   2.778  14.563  0.0916  0.0942  0.1375
11783TIP3    H156840   0.779   2.718  14.637 -1.8579 -0.1343 -0.2772
11783TIP3    H256841   0.845   2.847  14.597 -1.1411  0.2421  2.0211
11784TIP3   OH256842   0.026   0.060  17.203 -0.0622  0.6733 -0.1630
11784TIP3    H156843   0.072   0.063  17.287 -0.4939 -0.1835  0.0982
11784TIP3    H256844   0.080   0.003  17.149  0.0362  0.9596 -0.3715
11785TIP3   OH256845   4.976   3.597  16.480  0.0494  0.5438 -0.4033
11785TIP3    H156846   4.906   3.563  16.536  0.8441 -0.0008  0.2638
11785TIP3    H256847   5.042   3.630  16.541  0.9334 -0.0783 -1.0167
11786TIP3   OH256848   4.440   1.062  12.752 -0.7454 -0.4390  0.2593
11786TIP3    H156849   4.435   1.157  12.756 -1.4331 -0.4805  0.5105
11786TIP3    H256850   4.477   1.037  12.837  1.0213 -0.3018 -0.4597
11787TIP3   OH256851   1.020   6.081   3.373  0.1830  0.3038  0.3122
11787TIP3    H156852   1.067   6.020   3.430 -0.3177 -0.5761 -0.2026
11787TIP3    H256853   1.088   6.121   3.320  0.4376 -0.4905  0.0222
11788TIP3   OH256854   1.346   1.690   5.921  0.0670 -0.3374  0.0566
11788TIP3    H156855   1.421   1.747   5.907 -0.8050  0.4527 -1.5704
11788TIP3    H256856   1.271   1.750   5.925 -0.5641 -1.1724  0.8608
11789TIP3   OH256857   2.601   6.375  15.597  0.4938 -0.1546 -0.6478
11789TIP3    H156858   2.695   6.392  15.607  0.6646 -1.6104  0.3997
11789TIP3    H256859   2.559   6.442  15.651  1.0369 -1.0596  0.9330
11790TIP3   OH256860   6.764   2.785  16.887 -0.3381 -0.1326 -0.5654
11790TIP3    H156861   6.703   2.847  16.846 -2.0135 -2.3143 -1.4392
11790TIP3    H256862   6.844   2.793  16.835 -0.4681  1.4215 -0.5534
11791TIP3   OH256863   0.832   2.572  13.077  0.8350  0.4916 -0.1103
11791TIP3    H156864   0.768   2.629  13.034  0.8481  0.8793  0.3866
11791TIP3    H256865   0.829   2.491  13.027 -0.8650  0.1133  0.5873
11792TIP3   OH256866   0.923   3.780  15.760  0.0349 -0.5195 -0.1501
11792TIP3    H156867   0.998   3.763  15.817 -0.3268 -0.4923  0.3397
11792TIP3    H256868   0.947   3.857  15.709 -0.3642  0.5586  1.2660
11793TIP3   OH256869   1.485   6.316   0.064 -0.0103  0.0250  0.4085
11793TIP3    H156870   1.418   6.304   0.130  0.0914 -0.4201  0.4351
11793TIP3    H256871   1.564   6.278   0.102 -0.0354 -0.5514 -0.1014
11794TIP3   OH256872   3.657   2.768   3.193 -0.1332 -0.1456  0.5338
11794TIP3    H156873   3.602   2.734   3.264 -1.7197  0.7599 -0.2320
11794TIP3    H256874   3.601   2.833   3.149  0.7469 -0.8695 -1.6949
11795TIP3   OH256875   1.965   2.587   5.334  0.4289  0.2400  0.2014
11795TIP3    H156876   2.010   2.527   5.393  1.6461  0.6654 -0.2628
11795TIP3    H256877   1.913   2.643   5.391  1.4866  0.5582  0.8664
11796TIP3   OH256878   6.708   4.057  11.147  0.8848  0.1020 -0.6757
11796TIP3    H156879   6.698   3.976  11.095  1.6712 -1.2027  1.1699
11796TIP3    H256880   6.754   4.117  11.088 -0.0638 -0.6481 -2.2214
11797TIP3   OH256881   2.630   5.556   2.251 -0.0271  0.7205  0.3595
11797TIP3    H156882   2.582   5.602   2.320  0.0636 -2.4542  2.5995
11797TIP3    H256883   2.563   5.507   2.203  0.3892 -0.0886  0.5985
11798TIP3   OH256884   2.342   0.130  12.650 -0.2399 -0.1890  0.7492
11798TIP3    H156885   2.394   0.052  12.629 -0.3269 -0.3265  1.0358
11798TIP3    H256886   2.273   0.132  12.583  1.3807  1.1845 -0.9157
11799TIP3   OH256887   5.699   4.650  12.178 -0.1407  0.5137 -0.3051
11799TIP3    H156888   5.771   4.686  12.228 -1.2469  4.0195 -1.1309
11799TIP3    H256889   5.627   4.642  12.241 -0.0492  0.2436 -0.2366
11800TIP3   OH256890   5.301   4.852  12.051 -0.2923 -0.1531  0.2228
11800TIP3    H156891   5.276   4.786  12.116  1.7097  0.5248  1.7092
11800TIP3    H256892   5.326   4.800  11.974 -2.1031 -0.9811  0.1622
11801TIP3   OH256893   3.706   3.043  11.992 -0.4886  0.0820 -0.3787
11801TIP3    H156894   3.657   2.965  12.018 -2.9588  1.3687 -0.9895
11801TIP3    H256895   3.718   3.032  11.898 -1.0364  0.5213 -0.5028
11802TIP3   OH256896   3.650   3.055   2.350 -0.1721 -0.3416 -0.3649
11802TIP3    H156897   3.563   3.095   2.355 -0.4891 -0.8208 -1.6162
11802TIP3    H256898   3.689   3.071   2.435 -1.0724  0.8437 -0.1522
11803TIP3   OH256899   2.826   5.103   2.274  0.6161 -0.0662  0.7118
11803TIP3    H156900   2.862   5.183   2.235 -0.0872  0.2161  0.6204
11803TIP3    H256901   2.771   5.135   2.346  3.8899 -0.7212  3.5836
11804TIP3   OH256902   0.560   1.165   2.354 -0.2891 -0.3885 -0.2249
11804TIP3    H156903   0.575   1.115   2.435 -1.1359  0.7620  0.6591
11804TIP3    H256904   0.563   1.256   2.382 -0.5665  0.0179 -1.5168
11805TIP3   OH256905   1.678   3.238   6.645 -0.2119 -0.3308 -0.2417
11805TIP3    H156906   1.583   3.227   6.657 -0.1961  0.0639  0.2817
11805TIP3    H256907   1.710   3.262   6.732  0.3954 -0.6172 -0.3829
11806TIP3   OH256908   0.702   3.322  12.264  0.0565 -0.2067 -0.2196
11806TIP3    H156909   0.782   3.289  12.305  0.6070 -1.1371 -1.9745
11806TIP3    H256910   0.680   3.401  12.313  1.5451 -0.4560  0.8621
11807TIP3   OH256911   3.544   3.228  12.175 -0.5453 -0.5558 -0.1429
11807TIP3    H156912   3.575   3.176  12.101 -1.0415  0.1300 -0.8386
11807TIP3    H256913   3.493   3.167  12.228 -3.1541 -0.2476 -2.1975
11808TIP3   OH256914   2.725   0.253   3.237 -0.3333  0.4268 -0.3626
11808TIP3    H156915   2.678   0.178   3.272  0.2511 -0.1368 -0.7738
11808TIP3    H256916   2.814   0.221   3.222 -0.1391  1.1333 -0.7522
11809TIP3   OH256917   4.599   3.777  17.170  0.4285 -0.1252 -0.5065
11809TIP3    H156918   4.601   3.684  17.193 -1.2132 -0.0804 -0.1535
11809TIP3    H256919   4.687   3.795  17.137  1.3789 -1.3395  1.2626
11810TIP3   OH256920   5.378   0.716  16.702  0.1236  0.4527 -0.6750
11810TIP3    H156921   5.449   0.759  16.750  1.4042 -0.6075 -1.5701
11810TIP3    H256922   5.301   0.727  16.758  1.2011  0.7587  0.7849
11811TIP3   OH256923   0.908   2.056  12.807 -0.1447 -0.5779  0.1286
11811TIP3    H156924   0.814   2.064  12.794  0.0640 -0.4634 -1.4819
11811TIP3    H256925   0.941   2.145  12.802  0.1413 -0.6968 -0.1405
11812TIP3   OH256926   4.257   4.106  15.734  0.1092  0.7341 -0.3625
11812TIP3    H156927   4.255   4.117  15.639  0.4420  2.1060 -0.2217
11812TIP3    H256928   4.345   4.135  15.759  0.0404  0.3266  0.3497
11813TIP3   OH256929   2.321   6.569   0.143 -0.5243  0.2621 -0.7111
11813TIP3    H156930   2.408   6.608   0.153 -0.0831 -0.9752  0.4143
11813TIP3    H256931   2.312   6.512   0.220 -2.2325  0.2077 -0.9467
11814TIP3   OH256932   0.706   6.308   5.040  0.6889  0.1284 -0.2990
11814TIP3    H156933   0.698   6.227   4.990 -0.7883  1.2548 -1.9267
11814TIP3    H256934   0.623   6.316   5.086  0.7974  0.7830 -0.2211
11815TIP3   OH256935   5.205   3.380   1.717 -0.4468 -0.0410  0.0211
11815TIP3    H156936   5.299   3.397   1.724 -0.2865  0.4571 -2.8607
11815TIP3    H256937   5.199   3.286   1.702 -0.3802 -0.0079 -0.2148
11816TIP3   OH256938   2.646   4.723   0.401  0.4263  0.3528  0.2921
11816TIP3    H156939   2.643   4.634   0.365 -0.1641 -0.1279  1.4950
11816TIP3    H256940   2.554   4.747   0.413  0.4822  2.1045 -2.3083
11817TIP3   OH256941   2.950   0.873   3.501  0.1873  0.4881 -0.0369
11817TIP3    H156942   2.915   0.845   3.416 -2.0691 -0.5186  1.1660
11817TIP3    H256943   3.024   0.930   3.479  0.6142 -0.9686 -2.6500
11818TIP3   OH256944   4.678   5.408  10.982 -0.3474  0.0401 -0.4433
11818TIP3    H156945   4.699   5.492  10.942  0.0585 -0.3387 -1.0425
11818TIP3    H256946   4.604   5.375  10.931  0.6842 -0.8164 -1.4213
11819TIP3   OH256947   5.759   5.508  15.013  0.3007 -0.8489 -0.4260
11819TIP3    H156948   5.827   5.442  15.028  2.0145  0.6766 -1.3343
11819TIP3    H256949   5.707   5.473  14.941  0.0961 -2.0332  0.2802
11820TIP3   OH256950   0.498   2.826   0.995 -0.2057  0.0460 -0.6808
11820TIP3    H156951   0.506   2.892   0.926 -0.7891  1.1472  0.2911
11820TIP3    H256952   0.422   2.773   0.969  1.0441 -1.1012 -2.1456
11821TIP3   OH256953   4.099   6.504   3.121 -0.5979 -0.4102 -0.0791
11821TIP3    H156954   4.184   6.460   3.116 -0.2980  0.2858 -1.2125
11821TIP3    H256955   4.038   6.434   3.143 -0.0401 -1.3186 -1.3333
11822TIP3   OH256956   5.579   0.586  17.135  0.2256  0.3003 -0.0214
11822TIP3    H156957   5.656   0.641  17.119  0.4091 -0.1694 -0.7928
11822TIP3    H256958   5.615   0.502  17.165 -0.1235  1.2744  3.3259
11823TIP3   OH256959   1.104   1.199  12.526 -0.9223  0.4691  0.3875
11823TIP3    H156960   1.068   1.285  12.550  0.2220  1.1082 -0.1725
11823TIP3    H256961   1.074   1.185  12.436  0.5428  1.1834 -0.2230
11824TIP3   OH256962   5.237   5.447  12.585 -0.3595 -0.1141 -0.5942
11824TIP3    H156963   5.285   5.377  12.541 -0.4254 -1.0655  0.7896
11824TIP3    H256964   5.243   5.522  12.526  0.3036 -1.0852 -1.7864
11825TIP3   OH256965   0.111   6.732  13.025  0.1912  0.1032 -0.4774
11825TIP3    H156966   0.163   6.710  13.101  0.6527 -2.2964 -1.4453
11825TIP3    H256967   0.165   6.793  12.975  0.5380  0.4484  0.3161
11826TIP3   OH256968   5.688   5.901  12.968  0.2444 -0.4235 -0.4040
11826TIP3    H156969   5.595   5.903  12.946  0.6076 -1.6021 -2.1228
11826TIP3    H256970   5.732   5.932  12.888  1.3946 -1.1318 -0.0497
11827TIP3   OH256971   5.613   4.864  11.516  0.0112  0.7939 -0.0433
11827TIP3    H156972   5.664   4.842  11.593 -0.3809 -0.6489 -0.1819
11827TIP3    H256973   5.678   4.884  11.448  0.3738 -0.1713  0.0241
11828TIP3   OH256974   6.057   2.692  11.206  0.3278  0.1414 -0.4315
11828TIP3    H156975   6.106   2.610  11.215  0.4887  0.1114 -1.5295
11828TIP3    H256976   6.098   2.736  11.132 -0.5831  0.6312 -0.6476
11829TIP3   OH256977   1.675   3.404  14.608  0.0102  0.0721 -0.0541
11829TIP3    H156978   1.702   3.368  14.693 -0.2851  0.3050  0.1361
11829TIP3    H256979   1.611   3.341  14.575  1.1631 -0.7485 -0.7385
11830TIP3   OH256980   6.297   0.828   2.768  0.5780 -0.6802  0.1203
11830TIP3    H156981   6.223   0.794   2.818  0.2055 -2.4105 -1.5429
11830TIP3    H256982   6.373   0.780   2.801  0.8696  0.5392  1.2821
11831TIP3   OH256983   6.021   6.361  12.183  0.0645 -0.6585  0.2592
11831TIP3    H156984   6.072   6.399  12.254 -0.0524  1.2327 -0.6253
11831TIP3    H256985   5.934   6.349  12.219 -0.0824  0.6170  0.3629
11832TIP3   OH256986   0.043   4.043   4.478  0.7283  0.5886  0.5526
11832TIP3    H156987   0.002   4.097   4.410  0.7243  1.8001  1.4911
11832TIP3    H256988   0.136   4.066   4.473  0.9846 -0.5558 -0.1373
11833TIP3   OH256989   3.615   6.588  16.194 -0.4092  0.2981  0.2373
11833TIP3    H156990   3.552   6.648  16.153 -0.2202  1.3555  1.4746
11833TIP3    H256991   3.575   6.502  16.184 -0.7950  0.6405 -1.3643
11834TIP3   OH256992   4.159   4.297   3.941 -0.0224 -0.3267 -0.4448
11834TIP3    H156993   4.208   4.351   3.879 -0.8625  1.8704  0.7417
11834TIP3    H256994   4.217   4.224   3.960  0.9655 -0.1116 -2.4675
11835TIP3   OH256995   6.474   4.929  11.827 -0.2193  0.2894  0.0937
11835TIP3    H156996   6.528   4.995  11.786  1.6273 -0.9964  0.3825
11835TIP3    H256997   6.445   4.873  11.755 -0.3167  0.3838  0.0600
11836TIP3   OH256998   4.947   1.224  15.854 -0.2958  0.0799 -0.1801
11836TIP3    H156999   5.002   1.182  15.787 -2.8068 -0.8002 -1.7739
11836TIP3    H257000   4.992   1.306  15.874  1.9606 -0.9503 -0.8911
11837TIP3   OH257001   2.449   5.493   6.495  0.3207  0.1583 -0.1613
11837TIP3    H157002   2.514   5.502   6.425 -1.0942 -1.8425 -1.7498
11837TIP3    H257003   2.446   5.580   6.535  2.7905  0.7252 -1.0975
11838TIP3   OH257004   4.914   0.770  15.522  0.1378  0.1437 -0.0259
11838TIP3    H157005   4.901   0.694  15.579  0.1261 -0.4739 -0.8509
11838TIP3    H257006   4.832   0.777  15.472  0.4226  0.2513 -0.4801
11839TIP3   OH257007   5.589   6.490  13.034 -0.4698  0.3242 -0.4054
11839TIP3    H157008   5.560   6.548  13.104  1.6277 -0.2721  0.9825
11839TIP3    H257009   5.668   6.531  13.000  0.5357 -1.2453 -0.0127
11840TIP3   OH257010   0.746   5.843  13.318 -0.2992  0.0193 -0.1240
11840TIP3    H157011   0.769   5.915  13.259  0.6198  0.1250  0.3467
11840TIP3    H257012   0.661   5.866  13.354  0.8439  1.8364  1.5052
11841TIP3   OH257013   6.534   3.510   3.139 -0.4112 -0.0335 -0.2957
11841TIP3    H157014   6.502   3.511   3.049 -0.1789  0.0805 -0.3783
11841TIP3    H257015   6.579   3.426   3.147 -1.6601 -0.6742  0.1524
11842TIP3   OH257016   6.370   0.696   5.158 -0.0469 -0.0009  0.1153
11842TIP3    H157017   6.334   0.608   5.145  0.5294 -0.1275 -0.6853
11842TIP3    H257018   6.426   0.687   5.235 -0.1478 -0.2875  0.1583
11843TIP3   OH257019   4.636   1.112   4.402  0.0514 -0.3205 -0.0581
11843TIP3    H157020   4.595   1.099   4.487 -1.1370  0.9000 -0.4093
11843TIP3    H257021   4.606   1.199   4.375 -0.1464 -0.9648 -2.0022
11844TIP3   OH257022   0.151   3.731   6.229 -0.0974  0.0071 -0.2014
11844TIP3    H157023   0.200   3.686   6.161 -0.0594  0.4863 -0.4842
11844TIP3    H257024   0.215   3.748   6.298  0.0395  0.2663 -0.3965
11845TIP3   OH257025   2.732   3.303   3.571  0.2601  0.1703  0.0081
11845TIP3    H157026   2.811   3.276   3.523  1.1104  1.4717  0.6363
11845TIP3    H257027   2.672   3.230   3.561  1.9961 -1.3736  0.5398
11846TIP3   OH257028   4.529   3.775  12.261  0.1463 -0.0416 -0.1658
11846TIP3    H157029   4.478   3.806  12.336 -1.2145  0.1101 -1.1408
11846TIP3    H257030   4.582   3.850  12.235 -0.1958  0.2436 -0.0427
11847TIP3   OH257031   3.566   0.356   5.393  0.0588  0.3733  0.2165
11847TIP3    H157032   3.555   0.261   5.400 -0.5102  0.4697  0.6374
11847TIP3    H257033   3.518   0.381   5.315  0.9237  0.2009 -0.3788
11848TIP3   OH257034   2.563   3.111   1.543 -0.4100 -0.0825 -0.0082
11848TIP3    H157035   2.469   3.099   1.536 -0.4085  0.4145 -1.0157
11848TIP3    H257036   2.580   3.115   1.637 -1.4193  0.0867  0.1734
11849TIP3   OH257037   4.493   5.272  15.311 -0.0105  0.2980 -0.2156
11849TIP3    H157038   4.458   5.274  15.222  0.5656  2.3083 -0.4169
11849TIP3    H257039   4.444   5.201  15.354  0.3903 -1.3260 -2.3754
11850TIP3   OH257040   0.089   2.734  16.610 -0.3865 -0.1799 -0.4223
11850TIP3    H157041   0.009   2.786  16.615  0.2347  0.6125  2.1822
11850TIP3    H257042   0.060   2.649  16.577 -2.3796 -0.0528  0.8990
11851TIP3   OH257043   4.625   3.288  11.691 -0.7096  0.0130 -0.5112
11851TIP3    H157044   4.564   3.359  11.671 -0.7317  0.1029 -0.1193
11851TIP3    H257045   4.613   3.225  11.620 -0.9006  0.2640 -0.6989
11852TIP3   OH257046   2.216   2.758  15.350 -0.4909  0.3291  0.1403
11852TIP3    H157047   2.134   2.778  15.396 -2.3397 -0.2393 -2.7925
11852TIP3    H257048   2.213   2.813  15.271  2.7138  1.4665  0.7353
11853TIP3   OH257049   3.279   2.314   5.091  0.1208 -0.0841 -0.1769
11853TIP3    H157050   3.246   2.379   5.153 -0.2694  0.9381 -1.4206
11853TIP3    H257051   3.334   2.364   5.031  3.0201 -1.5532  1.1339
11854TIP3   OH257052   2.820   6.427   5.475  0.0599 -0.1393 -0.1030
11854TIP3    H157053   2.777   6.491   5.419 -0.5594 -0.2021  0.3015
11854TIP3    H257054   2.766   6.424   5.554  0.2255 -0.9733 -0.0171
11855TIP3   OH257055   1.308   5.381   0.742 -0.5601 -0.4735  0.8614
11855TIP3    H157056   1.363   5.319   0.789 -1.1258 -0.9988  0.8406
11855TIP3    H257057   1.298   5.455   0.801 -0.1424 -0.5394  1.0137
11856TIP3   OH257058   2.344   0.084   3.479  0.0695  0.3491 -0.4433
11856TIP3    H157059   2.333   0.163   3.426 -0.3143  0.7275  0.1779
11856TIP3    H257060   2.436   0.062   3.472  0.1705  0.8354 -0.6484
11857TIP3   OH257061   4.773   2.136  15.479 -0.5656 -0.2516  0.7844
11857TIP3    H157062   4.799   2.058  15.527 -0.0297 -0.8972 -0.5470
11857TIP3    H257063   4.825   2.206  15.517  0.7127 -0.9621  0.3443
11858TIP3   OH257064   5.503   1.686   4.397 -0.1644  0.9757  0.1837
11858TIP3    H157065   5.586   1.662   4.355  0.0622  1.4346  0.3568
11858TIP3    H257066   5.482   1.611   4.452  0.4252  1.0722  0.5564
11859TIP3   OH257067   1.412   0.162  12.954 -0.0062  0.1797  0.9951
11859TIP3    H157068   1.327   0.198  12.982 -0.2433  2.1745 -2.1094
11859TIP3    H257069   1.445   0.117  13.032 -3.7062 -0.2929  2.4285
11860TIP3   OH257070   2.358   1.590  11.041 -1.1542 -0.1334 -1.0237
11860TIP3    H157071   2.433   1.643  11.014 -0.4659 -0.2482  0.6145
11860TIP3    H257072   2.281   1.640  11.012 -0.4614  0.5312 -1.7194
11861TIP3   OH257073   5.750   0.541   6.074  0.4819  0.1635  0.1274
11861TIP3    H157074   5.661   0.552   6.040  0.4274  0.7900  0.4655
11861TIP3    H257075   5.756   0.604   6.146  0.0653 -2.2886  2.3769
11862TIP3   OH257076   0.529   0.118  16.990 -0.5038  0.7347 -0.9139
11862TIP3    H157077   0.547   0.162  16.907  1.4074  0.5847 -0.6002
11862TIP3    H257078   0.613   0.116  17.035 -1.1835 -0.6119  0.3481
11863TIP3   OH257079   2.365   1.415  13.169 -0.5788 -0.2874  0.0887
11863TIP3    H157080   2.307   1.339  13.158  1.2569 -1.9264  1.4418
11863TIP3    H257081   2.447   1.388  13.127  0.1533  0.8604  0.7741
11864TIP3   OH257082   3.447   3.013  15.794 -0.6972 -0.0688  0.1038
11864TIP3    H157083   3.529   3.060  15.780  1.1491 -3.7278 -2.3251
11864TIP3    H257084   3.466   2.953  15.866 -0.9500 -1.4261 -0.9268
11865TIP3   OH257085   4.391   2.657  14.829  0.4505  0.1736  0.2143
11865TIP3    H157086   4.321   2.604  14.867 -0.3784  1.5972  0.6953
11865TIP3    H257087   4.355   2.745  14.826  2.8653  1.2907  2.2105
11866TIP3   OH257088   1.795   5.232  15.920 -0.3142 -0.1786  0.3313
11866TIP3    H157089   1.747   5.158  15.956 -0.5620 -0.0572  0.2473
11866TIP3    H257090   1.800   5.295  15.991 -0.1741 -0.2422  0.3770
11867TIP3   OH257091   1.975   5.219   3.443  0.4887  1.0173  0.4313
11867TIP3    H157092   2.019   5.157   3.501 -0.2932 -0.7552 -0.8088
11867TIP3    H257093   1.967   5.299   3.495  2.5552  0.4627  1.6705
11868TIP3   OH257094   0.823   3.941   3.783  0.1145 -0.1051 -0.5611
11868TIP3    H157095   0.728   3.950   3.794  0.2416 -0.3666  0.8295
11868TIP3    H257096   0.845   4.003   3.714 -0.7169  1.8079  0.8399
11869TIP3   OH257097   1.882   5.805  11.117 -0.4199  0.0761 -0.1037
11869TIP3    H157098   1.818   5.818  11.047  1.4678  2.1578 -1.4893
11869TIP3    H257099   1.966   5.793  11.072  0.8589  1.6497  1.7798
11870TIP3   OH257100   2.396   1.999  11.648  0.2735 -0.3744 -0.3723
11870TIP3    H157101   2.411   1.982  11.741 -1.9255  1.9153  0.4561
11870TIP3    H257102   2.484   2.004  11.611  1.2413  0.1499  1.8710
11871TIP3   OH257103   0.679   6.769  11.807 -0.1499  0.0648  0.0085
11871TIP3    H157104   0.636   6.689  11.780  0.7207 -0.3024 -0.3141
11871TIP3    H257105   0.628   6.800  11.882  0.1781 -1.3820  0.8439
11872TIP3   OH257106   2.782   4.289   3.243  0.2933  0.3906  0.8454
11872TIP3    H157107   2.814   4.202   3.267 -1.3231 -0.1848  1.0015
11872TIP3    H257108   2.844   4.320   3.176 -0.3359 -1.8057 -0.8140
11873TIP3   OH257109   3.715   3.298   2.832  0.1123  0.4850 -0.3605
11873TIP3    H157110   3.637   3.247   2.810 -0.2280  1.4837 -1.5479
11873TIP3    H257111   3.787   3.250   2.791  0.3983 -1.4930  2.3719
11874TIP3   OH257112   0.553   3.446   2.959 -0.5022  0.1577  0.0658
11874TIP3    H157113   0.515   3.521   2.915 -1.0983 -0.5220 -0.5942
11874TIP3    H257114   0.629   3.423   2.905 -0.2392  0.3657  0.3437
11875TIP3   OH257115   4.619   5.298  16.707 -0.3473  0.4036  0.0798
11875TIP3    H157116   4.611   5.265  16.796  0.8025  1.4731  0.5847
11875TIP3    H257117   4.705   5.267  16.677 -0.0751  1.3387 -0.1134
11876TIP3   OH257118   1.911   6.563  14.038  0.2220 -0.3082 -0.1464
11876TIP3    H157119   1.908   6.499  13.967  1.1921 -3.6537  2.6733
11876TIP3    H257120   1.823   6.559  14.076  0.0122  0.7327 -0.5039
11877TIP3   OH257121   2.974   5.736   3.337 -0.6287 -0.0115  0.9506
11877TIP3    H157122   2.944   5.746   3.428 -2.5034  0.0327  0.3459
11877TIP3    H257123   2.987   5.642   3.327  0.2478  0.0461  1.4586
11878TIP3   OH257124   4.951   5.368  11.703  0.4576 -0.0169  0.0836
11878TIP3    H157125   4.926   5.276  11.696 -0.2018  0.0362  1.6622
11878TIP3    H257126   4.867   5.414  11.712  0.8481  0.6313  0.3928
11879TIP3   OH257127   2.078   6.591  11.071 -0.4859  0.3778  0.3509
11879TIP3    H157128   1.987   6.598  11.043 -0.6009 -1.0342  0.3128
11879TIP3    H257129   2.125   6.569  10.990 -0.3449 -0.4675  0.6601
11880TIP3   OH257130   2.640   0.526   1.346  0.3188  0.3747 -0.6396
11880TIP3    H157131   2.723   0.571   1.366  0.6129  0.9938 -3.0039
11880TIP3    H257132   2.587   0.593   1.304 -0.3109 -0.7658 -1.6828
11881TIP3   OH257133   0.224   1.674   6.292  0.6756  0.2450  0.2603
11881TIP3    H157134   0.156   1.645   6.230  1.7105 -1.0587 -0.2961
11881TIP3    H257135   0.300   1.619   6.271  2.0312  1.9616  0.6041
11882TIP3   OH257136   0.905   4.990   0.924  0.4832 -0.2867  0.2182
11882TIP3    H157137   0.828   5.036   0.891  1.2893 -0.2094 -1.6250
11882TIP3    H257138   0.890   4.898   0.901  0.2078 -0.5278  1.3166
11883TIP3   OH257139   0.085   4.518  16.340 -0.1140  0.1660 -0.5040
11883TIP3    H157140   0.037   4.592  16.303  0.0009 -0.0786 -1.1604
11883TIP3    H257141   0.079   4.450  16.272  0.4368 -0.1553 -0.2333
11884TIP3   OH257142   2.333   6.167   6.642 -0.2123 -0.0583 -0.3387
11884TIP3    H157143   2.396   6.113   6.595 -0.3083 -1.0168  0.6255
11884TIP3    H257144   2.250   6.154   6.597 -0.6955 -2.3841  1.1578
11885TIP3   OH257145   0.708   6.045   5.185 -0.3576  0.5215  0.7797
11885TIP3    H157146   0.744   5.958   5.173  0.4789  0.8158  1.1051
11885TIP3    H257147   0.763   6.102   5.131 -0.6997  0.8897  0.8133
11886TIP3   OH257148   6.449   6.047   2.770  0.5527 -0.6676 -0.4847
11886TIP3    H157149   6.540   6.043   2.743 -0.2114 -1.1509 -3.1867
11886TIP3    H257150   6.402   6.080   2.693 -1.3598  1.0324  1.3546
11887TIP3   OH257151   2.186   4.342   1.403 -0.1180  0.0461 -0.2894
11887TIP3    H157152   2.114   4.279   1.415 -0.1373 -0.1471 -1.3938
11887TIP3    H257153   2.262   4.287   1.386  0.4286  0.2262  1.4113
11888TIP3   OH257154   0.153   2.355  15.462 -0.2822  0.3407 -0.1938
11888TIP3    H157155   0.125   2.438  15.424 -0.2197  0.3105 -0.3076
11888TIP3    H257156   0.152   2.369  15.556 -1.5438  0.0576 -0.1626
11889TIP3   OH257157   1.984   4.809   3.188 -0.1973  0.3580  0.3305
11889TIP3    H157158   1.902   4.832   3.232 -0.5347 -1.6733  0.8079
11889TIP3    H257159   1.957   4.757   3.112  0.6081  0.4858 -0.0542
11890TIP3   OH257160   1.767   6.232  12.116  0.4336  0.4333  1.1200
11890TIP3    H157161   1.686   6.182  12.106 -0.1296  1.5214  0.0730
11890TIP3    H257162   1.828   6.193  12.054 -0.5431  2.0790 -0.9456
11891TIP3   OH257163   3.627   2.949  17.136  0.3615  0.4283  0.0354
11891TIP3    H157164   3.618   2.986  17.224  0.5693 -0.2649  0.3567
11891TIP3    H257165   3.622   3.024  17.077 -2.0944  0.6899  0.4988
11892TIP3   OH257166   4.620   2.414   2.728  0.3272  0.5506 -0.7849
11892TIP3    H157167   4.534   2.450   2.749  0.6845  1.1161 -0.2806
11892TIP3    H257168   4.611   2.320   2.745  0.1692  0.7882  0.4719
11893TIP3   OH257169   4.583   0.695   4.505 -0.6015 -0.3978 -0.2670
11893TIP3    H157170   4.513   0.759   4.495 -1.1428 -0.5187  2.3039
11893TIP3    H257171   4.626   0.719   4.587  0.8878 -1.7235 -0.6278
11894TIP3   OH257172   3.813   3.167   4.563 -0.0602 -0.5275 -0.7720
11894TIP3    H157173   3.863   3.241   4.597  0.2906 -1.0739 -0.0781
11894TIP3    H257174   3.725   3.202   4.549  0.2902  0.2122 -1.1725
11895TIP3   OH257175   5.460   1.044   4.259  0.2283  0.4444  0.4431
11895TIP3    H157176   5.526   1.075   4.198 -0.4414  0.9135 -0.0468
11895TIP3    H257177   5.490   0.957   4.285  0.8918  0.5455  0.0112
11896TIP3   OH257178   4.386   5.869  11.833 -0.7492 -0.9107  0.2890
11896TIP3    H157179   4.298   5.882  11.867 -0.5195 -0.5605  0.7596
11896TIP3    H257180   4.440   5.854  11.911 -0.0202  1.0292  0.1832
11897TIP3   OH257181   0.692   4.121  12.926 -0.3113  0.1546 -0.0206
11897TIP3    H157182   0.611   4.125  12.978 -1.7161  0.4061 -2.1820
11897TIP3    H257183   0.699   4.029  12.901 -0.2391  0.2488 -0.3394
11898TIP3   OH257184   4.173   6.602   5.954  0.2097 -0.3476 -0.1745
11898TIP3    H157185   4.223   6.641   5.883  0.6430  0.0404  0.3491
11898TIP3    H257186   4.082   6.626   5.935  0.3917  0.2617 -0.2675
11899TIP3   OH257187   0.752   2.637  11.065 -0.6478 -0.9124 -0.1916
11899TIP3    H157188   0.698   2.673  10.995 -0.1725  0.4127  0.1039
11899TIP3    H257189   0.696   2.640  11.143  0.4249  2.1853  0.5105
11900TIP3   OH257190   5.596   6.191   2.276  0.0673 -0.6409  0.0178
11900TIP3    H157191   5.671   6.172   2.219  0.9499  2.4252  0.0603
11900TIP3    H257192   5.607   6.132   2.350  2.6558 -0.0035  0.1936
11901TIP3   OH257193   1.395   1.083  16.734  0.3096  0.0709 -0.0353
11901TIP3    H157194   1.446   1.015  16.778  0.8638  0.0286 -0.7332
11901TIP3    H257195   1.459   1.151  16.713  0.3876 -0.6544 -2.2887
11902TIP3   OH257196   4.459   6.731   0.379 -0.0235  0.0542  0.7103
11902TIP3    H157197   4.444   6.799   0.313 -1.5848  0.9572  1.9667
11902TIP3    H257198   4.520   6.771   0.441  1.1124 -0.6409  0.0452
11903TIP3   OH257199   0.929   2.303   2.150  0.1697  0.1577 -0.4061
11903TIP3    H157200   0.855   2.247   2.125  0.3701 -0.3406  0.1064
11903TIP3    H257201   0.968   2.330   2.067 -2.7081  3.3380 -0.8725
11904TIP3   OH257202   6.441   1.574   0.371  0.5213 -0.0319  0.1133
11904TIP3    H157203   6.368   1.523   0.336  0.8903 -0.1595 -0.4678
11904TIP3    H257204   6.497   1.590   0.296  0.0207  1.9078  0.1340
11905TIP3   OH257205   6.483   4.596  15.515  0.6638  0.5101 -0.2633
11905TIP3    H157206   6.433   4.609  15.595  2.5173  1.3098  0.7952
11905TIP3    H257207   6.478   4.680  15.470 -0.3303  0.0773 -0.9942
11906TIP3   OH257208   2.843   0.051  11.215 -0.2044  0.1770  0.2546
11906TIP3    H157209   2.918   0.032  11.157 -1.5584 -0.4506 -1.3484
11906TIP3    H257210   2.871   0.020  11.301  1.0701 -0.8447 -0.4994
11907TIP3   OH257211   6.612   0.628   2.198 -0.0581 -0.0374 -0.5792
11907TIP3    H157212   6.594   0.538   2.173 -2.3709  1.0996 -3.2739
11907TIP3    H257213   6.585   0.634   2.290  0.9829 -2.2730 -0.1114
11908TIP3   OH257214   5.054   2.343  11.721  0.3372  0.6757  0.1152
11908TIP3    H157215   5.099   2.261  11.700 -0.9012 -0.2702  1.1081
11908TIP3    H257216   4.972   2.338  11.670 -0.4554  0.5701  1.3868
11909TIP3   OH257217   0.915   3.502  12.688  0.0604 -0.3244  0.5716
11909TIP3    H157218   0.963   3.465  12.614  0.2416 -0.0856  0.5694
11909TIP3    H257219   0.901   3.428  12.747  0.2263 -0.4440  0.4615
11910TIP3   OH257220   2.909   2.609  12.350  0.6361  0.3336  0.0180
11910TIP3    H157221   2.915   2.592  12.256  1.1565 -0.4583  0.1845
11910TIP3    H257222   2.879   2.526  12.388 -0.7053  0.9960  0.4278
11911TIP3   OH257223   3.677   1.990   1.482 -0.1547  0.1643  0.0045
11911TIP3    H157224   3.704   2.015   1.570 -0.4525 -0.6851  0.3367
11911TIP3    H257225   3.754   2.009   1.427 -0.2998  1.6116  0.2661
11912TIP3   OH257226   1.777   1.110  15.101 -0.2229 -0.2093  0.6894
11912TIP3    H157227   1.746   1.065  15.022  0.0416 -0.4756  0.7383
11912TIP3    H257228   1.697   1.134  15.148 -0.3398 -3.4503  2.2862
11913TIP3   OH257229   0.239   1.657   5.776  0.2079  0.1896  0.4060
11913TIP3    H157230   0.231   1.594   5.847 -1.3133 -0.4906 -0.3312
11913TIP3    H257231   0.177   1.625   5.709 -0.2787  2.2331 -0.1389
11914TIP3   OH257232   2.798   6.257  10.668 -0.0206  0.0397  0.1107
11914TIP3    H157233   2.865   6.195  10.636 -0.8670 -0.2809 -1.1028
11914TIP3    H257234   2.730   6.254  10.600 -0.4492  1.6880  0.4646
11915TIP3   OH257235   6.480   3.563   1.672  0.0115  0.2835  0.4460
11915TIP3    H157236   6.482   3.516   1.755 -0.6530 -0.2975  0.1385
11915TIP3    H257237   6.415   3.516   1.619  0.2940  0.7595 -0.3332
11916TIP3   OH257238   3.283   0.566  12.252  0.2348 -0.4260 -0.1910
11916TIP3    H157239   3.234   0.644  12.227 -2.0896 -2.0259 -0.7808
11916TIP3    H257240   3.268   0.504  12.180  2.5192 -1.2263 -0.0167
11917TIP3   OH257241   2.194   1.862   0.984 -0.0308  0.7442 -0.0758
11917TIP3    H157242   2.107   1.835   1.011 -0.6966  0.9049 -2.0446
11917TIP3    H257243   2.185   1.955   0.961  0.6004  0.6992 -0.5261
11918TIP3   OH257244   3.451   3.853   6.668 -0.3199  0.0732  0.2568
11918TIP3    H157245   3.392   3.812   6.604 -1.0587 -0.6637  1.3835
11918TIP3    H257246   3.534   3.806   6.657 -0.1843  0.5250 -0.7335
11919TIP3   OH257247   3.141   6.810   0.808  0.2464  0.0466 -0.1138
11919TIP3    H157248   3.064   6.756   0.828  1.0524 -1.2358 -0.4539
11919TIP3    H257249   3.155   6.861   0.888 -1.3911  0.8311 -0.3084
11920TIP3   OH257250   4.372   2.801   2.667  0.3602 -0.1900  0.1558
11920TIP3    H157251   4.369   2.714   2.626 -0.2597  0.5977 -1.4944
11920TIP3    H257252   4.456   2.837   2.641  0.8636 -0.4985  1.3092
11921TIP3   OH257253   0.015   4.588  13.528 -0.1240  0.1941  0.3952
11921TIP3    H157254  -0.047   4.612  13.597  0.4412 -0.4012  1.1190
11921TIP3    H257255   0.082   4.657  13.531  1.3527 -1.2708  2.2876
11922TIP3   OH257256   5.598   5.152   5.381 -0.1648  0.2827  0.4502
11922TIP3    H157257   5.556   5.069   5.356  1.5276 -0.2669 -0.6499
11922TIP3    H257258   5.590   5.154   5.476 -0.2782 -1.1396  0.4913
11923TIP3   OH257259   6.491   2.519  13.570 -0.5237 -0.0129  1.3289
11923TIP3    H157260   6.575   2.551  13.603 -0.7326  1.1719  0.7020
11923TIP3    H257261   6.427   2.548  13.636 -0.5528 -0.2840  1.4253
11924TIP3   OH257262   3.320   0.804   5.343  0.2263  0.1319 -0.0833
11924TIP3    H157263   3.277   0.871   5.395  0.8841 -0.2673  0.9852
11924TIP3    H257264   3.357   0.743   5.407  1.2791 -0.2207 -1.0063
11925TIP3   OH257265   5.223   0.989  12.120 -0.6182  0.0717 -0.1258
11925TIP3    H157266   5.251   1.015  12.032 -0.0900  0.4918  0.1622
11925TIP3    H257267   5.188   1.068  12.159 -0.0680  0.0900  0.3438
11926TIP3   OH257268   4.893   3.836  15.936 -0.4676  0.2880  0.2837
11926TIP3    H157269   4.884   3.904  15.869  1.9541  1.9606  1.5565
11926TIP3    H257270   4.871   3.754  15.891  0.1387  1.4720 -2.2824
11927TIP3   OH257271   5.124   5.134  16.443  0.5107  0.2355  0.3920
11927TIP3    H157272   5.147   5.162  16.355 -0.6162 -0.2366 -0.0612
11927TIP3    H257273   5.144   5.041  16.445 -2.5376 -0.4825 -0.4419
11928TIP3   OH257274   6.150   1.443   6.754 -0.0251 -0.5564  0.4086
11928TIP3    H157275   6.136   1.514   6.817  1.1192  2.1236 -2.2427
11928TIP3    H257276   6.192   1.374   6.805  0.9553  1.5596  2.5613
11929TIP3   OH257277   1.547   1.167   2.210  0.2354  0.2872 -0.2987
11929TIP3    H157278   1.610   1.132   2.273  0.8662  1.5953 -0.1754
11929TIP3    H257279   1.462   1.157   2.253  0.5391  0.0545  0.2582
11930TIP3   OH257280   4.259   5.992   3.458  0.2025  0.1794  0.1481
11930TIP3    H157281   4.287   5.953   3.541  0.3788 -0.3455 -0.1570
11930TIP3    H257282   4.241   6.083   3.479  1.8434  0.4559  0.4157
11931TIP3   OH257283   1.762   3.950  14.272  0.1604 -0.0160 -0.2301
11931TIP3    H157284   1.726   3.932  14.359  1.0671 -0.7496  0.0004
11931TIP3    H257285   1.690   3.930  14.212  0.2008 -1.5924  0.2201
11932TIP3   OH257286   1.210   1.708  10.809  0.3282 -0.3383  1.0043
11932TIP3    H157287   1.207   1.764  10.731  0.0401 -0.9985  0.5441
11932TIP3    H257288   1.302   1.704  10.832  0.6143 -1.6286 -0.3694
11933TIP3   OH257289   1.114   3.449   0.770 -0.0919  0.5012 -0.1434
11933TIP3    H157290   1.070   3.470   0.688 -2.8690 -0.5093  1.0206
11933TIP3    H257291   1.131   3.534   0.810 -2.2854  0.9107 -0.0013
11934TIP3   OH257292   4.927   5.673  13.572  0.1682  0.1720  0.1545
11934TIP3    H157293   4.895   5.608  13.509 -1.5824  1.1791 -0.0214
11934TIP3    H257294   4.898   5.640  13.657 -0.7779  0.7413  0.0587
11935TIP3   OH257295   5.814   2.433  15.691 -0.4508  0.4510 -0.1431
11935TIP3    H157296   5.845   2.523  15.678  0.5799  0.3004  1.1650
11935TIP3    H257297   5.788   2.430  15.783 -0.1368 -0.7017 -0.0830
11936TIP3   OH257298   0.412   2.001   5.229 -0.3532  0.1271  0.3013
11936TIP3    H157299   0.410   2.000   5.324  1.7014  0.3042  0.3566
11936TIP3    H257300   0.392   1.911   5.203 -0.8335  0.0642  0.8986
11937TIP3   OH257301   3.931   1.857   2.977  0.7639 -0.3470  0.5337
11937TIP3    H157302   4.023   1.837   2.964  0.7357 -0.6201  0.7538
11937TIP3    H257303   3.897   1.783   3.027  0.1045 -0.9239 -0.7326
11938TIP3   OH257304   0.315   3.320  12.085 -0.1273  0.0185  0.2337
11938TIP3    H157305   0.351   3.266  12.154 -2.5230 -1.3973  0.4374
11938TIP3    H257306   0.222   3.329  12.107 -0.1827  2.6243 -0.8320
11939TIP3   OH257307   5.016   4.665  10.505 -0.3026 -0.4850  0.6126
11939TIP3    H157308   4.927   4.668  10.469  0.6527  0.1858 -1.7788
11939TIP3    H257309   5.065   4.613  10.442  1.4566  0.7995  0.8919
11940TIP3   OH257310   1.963   0.503  13.480 -0.1193  0.2290 -0.5616
11940TIP3    H157311   1.932   0.456  13.402  1.7104  0.0047 -1.1824
11940TIP3    H257312   2.014   0.576  13.445  1.8462 -0.6443  0.3972
11941TIP3   OH257313   3.462   3.999  17.218  0.6120 -0.1423 -0.0989
11941TIP3    H157314   3.476   3.908  17.244  0.8395  0.2888  1.3592
11941TIP3    H257315   3.547   4.041  17.231  0.3355  0.4186 -0.0917
11942TIP3   OH257316   6.527   0.399  11.628  0.3226 -0.0688 -0.2618
11942TIP3    H157317   6.597   0.463  11.626  2.1095 -1.9496  0.3280
11942TIP3    H257318   6.569   0.317  11.654 -2.3056 -0.9716  1.3748
11943TIP3   OH257319   5.266   0.883   4.958 -0.5838 -0.0178 -0.3624
11943TIP3    H157320   5.321   0.885   4.880  1.5680 -1.1310  1.0636
11943TIP3    H257321   5.232   0.794   4.961 -1.8012  0.4267 -0.7752
11944TIP3   OH257322   3.888   6.128  15.676 -0.1601 -0.0537  0.0974
11944TIP3    H157323   3.903   6.190  15.605 -0.5686  1.9145  1.6679
11944TIP3    H257324   3.969   6.076  15.680  0.8320  1.4449 -0.2295
11945TIP3   OH257325   0.948   3.671   1.546  0.2347  0.0534  0.0540
11945TIP3    H157326   0.881   3.641   1.607  0.5683 -1.4753 -0.3199
11945TIP3    H257327   0.900   3.697   1.467  0.0851 -1.3033 -0.3176
11946TIP3   OH257328   1.916   5.020  14.188  0.2364 -0.4186  0.0063
11946TIP3    H157329   1.910   5.046  14.096  0.8936 -1.2304 -0.2710
11946TIP3    H257330   1.984   4.954  14.190  0.7105  0.0892  1.2015
11947TIP3   OH257331   2.525   6.184   2.352 -0.0764 -0.6034  0.0746
11947TIP3    H157332   2.599   6.124   2.356 -0.2546 -0.9694 -1.6726
11947TIP3    H257333   2.475   6.155   2.276  0.5355  2.5522 -1.6235
11948TIP3   OH257334   2.429   1.647   0.715 -0.3997  0.1944  0.0628
11948TIP3    H157335   2.493   1.584   0.682  0.5468  1.2005 -0.0199
11948TIP3    H257336   2.426   1.716   0.650 -1.4926  0.2231  0.1249
11949TIP3   OH257337   0.907   5.670   2.916 -0.2101  0.0981  0.0462
11949TIP3    H157338   0.969   5.738   2.890  0.0415 -0.1676 -0.0517
11949TIP3    H257339   0.937   5.641   3.002  0.5576 -0.9199 -0.5483
11950TIP3   OH257340   0.480   4.538   4.962 -0.0466 -0.1379  0.2695
11950TIP3    H157341   0.384   4.535   4.958 -0.1109  1.1458  0.6461
11950TIP3    H257342   0.499   4.588   5.041  0.9094  1.6607 -1.0595
11951TIP3   OH257343   0.792   3.145  13.793  0.2986 -0.3511 -0.1215
11951TIP3    H157344   0.802   3.092  13.713 -0.2740 -1.8910  0.8009
11951TIP3    H257345   0.799   3.082  13.864 -2.1068  0.5312  0.9645
11952TIP3   OH257346   0.006   1.788  14.701 -0.6453 -0.7502  0.2003
11952TIP3    H157347  -0.038   1.869  14.726  0.2520 -0.3326  0.4497
11952TIP3    H257348   0.031   1.748  14.784 -0.2136 -0.7883  0.0525
11953TIP3   OH257349   0.313   0.589  12.132 -0.4001 -0.8991 -0.5240
11953TIP3    H157350   0.377   0.595  12.061 -0.0691  0.9380 -0.0832
11953TIP3    H257351   0.291   0.680  12.153 -2.3938 -1.4741  0.0263
11954TIP3   OH257352   1.903   6.149  14.801 -0.3095 -0.0208  0.2090
11954TIP3    H157353   1.886   6.130  14.894 -1.0984 -3.0602 -0.5186
11954TIP3    H257354   1.999   6.152  14.795 -0.2343 -0.6168  0.9628
11955TIP3   OH257355   1.203   0.022  16.711 -0.4185 -0.4331  0.3013
11955TIP3    H157356   1.265   0.037  16.783 -0.1810 -0.4121  0.0906
11955TIP3    H257357   1.145   0.098  16.713 -0.7392 -0.6848  0.8052
11956TIP3   OH257358   1.497   5.519   2.801 -0.2104  0.1200 -0.2249
11956TIP3    H157359   1.566   5.454   2.793  0.7186  1.2317 -1.4948
11956TIP3    H257360   1.507   5.556   2.888 -0.6367 -1.3010  0.4370
11957TIP3   OH257361   4.834   2.857   5.815  0.0586  0.0795 -0.0754
11957TIP3    H157362   4.896   2.863   5.743 -0.7540 -0.9562 -0.8774
11957TIP3    H257363   4.759   2.910   5.787  1.3334  2.9507  1.7275
11958TIP3   OH257364   6.541   6.455   6.316  0.3624 -0.2591 -0.3702
11958TIP3    H157365   6.556   6.463   6.410 -1.0496  1.1481 -0.2492
11958TIP3    H257366   6.541   6.361   6.300 -0.9819 -0.5617  1.3003
11959TIP3   OH257367   6.270   3.451  11.340 -0.2098  0.6428  0.3083
11959TIP3    H157368   6.282   3.466  11.434  0.1289  0.7215  0.2528
11959TIP3    H257369   6.352   3.482  11.301  0.1890 -0.6371  0.1107
11960TIP3   OH257370   3.983   5.161   4.060 -0.1652  0.4630  0.0666
11960TIP3    H157371   4.030   5.079   4.078 -0.6996  0.0129 -0.5686
11960TIP3    H257372   4.048   5.229   4.075  0.0092 -0.0219  1.5904
11961TIP3   OH257373   1.165   1.483   4.088 -0.1106  0.2911  0.2415
11961TIP3    H157374   1.135   1.572   4.105  1.0624  0.4711  1.5308
11961TIP3    H257375   1.233   1.468   4.154  1.4284 -0.6723 -1.5274
11962TIP3   OH257376   2.515   4.999  12.390  0.1624 -0.4213 -0.1381
11962TIP3    H157377   2.423   4.976  12.379  0.1437  0.2293 -1.4765
11962TIP3    H257378   2.533   4.983  12.483 -1.0789 -1.3148 -0.0292
11963TIP3   OH257379   4.028   4.271   0.039  0.3071 -0.3610  1.0987
11963TIP3    H157380   3.960   4.209   0.011 -1.0510  0.6764  2.0489
11963TIP3    H257381   4.072   4.297  -0.042  0.3459 -1.9303  0.5996
11964TIP3   OH257382   0.066   4.420  17.130  0.5848  0.0825 -0.0636
11964TIP3    H157383   0.052   4.515  17.135  0.8392  0.1208 -0.0742
11964TIP3    H257384   0.160   4.409  17.145  0.8442 -0.0267 -1.6816
11965TIP3   OH257385   0.054   4.461  13.257  0.8212 -0.3368  0.0426
11965TIP3    H157386   0.123   4.526  13.272  0.5381  0.3757 -1.6370
11965TIP3    H257387   0.020   4.441  13.344  2.0150  0.5611  0.7251
11966TIP3   OH257388   2.259   0.010  17.029 -0.1465 -0.5524 -0.4307
11966TIP3    H157389   2.255  -0.060  17.094  2.2431  0.0660  0.4415
11966TIP3    H257390   2.222   0.086  17.073  2.1737  0.0646  0.5382
11967TIP3   OH257391   3.780   6.315   4.053 -0.2943  0.1702  0.0488
11967TIP3    H157392   3.740   6.392   4.011  0.1862  0.4754  0.1399
11967TIP3    H257393   3.771   6.245   3.989  0.0686  0.5314 -0.3940
11968TIP3   OH257394   3.637   4.633  16.920  0.6573 -0.2360 -0.0151
11968TIP3    H157395   3.603   4.627  17.010 -0.0792 -2.7423 -0.4365
11968TIP3    H257396   3.607   4.719  16.890 -0.9562 -0.2601  1.3990
11969TIP3   OH257397   2.969   0.794  12.891 -0.0745 -0.4526 -0.2823
11969TIP3    H157398   2.998   0.830  12.808 -1.8154  0.8932 -0.3376
11969TIP3    H257399   2.959   0.700  12.875  0.0382 -0.2601 -1.4632
11970TIP3   OH257400   3.352   4.315  16.522  0.5254 -0.3180  0.1919
11970TIP3    H157401   3.433   4.365  16.534  1.0991 -0.6168 -2.0489
11970TIP3    H257402   3.382   4.224  16.517 -0.0916 -0.5412  0.6380
11971TIP3   OH257403   6.444   5.576  15.920 -0.2703  0.0616 -0.0764
11971TIP3    H157404   6.527   5.542  15.889  0.2959  3.5451 -2.6167
11971TIP3    H257405   6.390   5.498  15.933  2.6754 -2.1115 -0.3882
11972TIP3   OH257406   4.192   6.526  12.883  0.1275 -0.0112  0.2106
11972TIP3    H157407   4.222   6.446  12.842  2.4767 -0.3061  2.3306
11972TIP3    H257408   4.256   6.542  12.953 -1.2887  2.7359  0.9520
11973TIP3   OH257409   5.209   6.038   0.381 -0.2284  0.4046 -0.2376
11973TIP3    H157410   5.168   6.117   0.417 -0.7413 -0.0362  0.1540
11973TIP3    H257411   5.302   6.061   0.373 -0.1047  0.5148  1.3534
11974TIP3   OH257412   4.495   3.908   5.018  0.3194 -0.3829  0.2024
11974TIP3    H157413   4.435   3.833   5.017  1.0478 -0.9819  0.7514
11974TIP3    H257414   4.581   3.870   4.998  0.4758  0.5140 -0.8990
11975TIP3   OH257415   1.509   4.243   2.166  0.7434 -0.1948 -0.3951
11975TIP3    H157416   1.601   4.260   2.189  0.6013  0.3536 -0.2235
11975TIP3    H257417   1.467   4.225   2.250 -0.1396  3.5189  0.0035
11976TIP3   OH257418   3.802   4.721  12.669 -0.0336  0.0224  0.1071
11976TIP3    H157419   3.851   4.791  12.626 -0.2753  0.0183 -0.1779
11976TIP3    H257420   3.846   4.709  12.754  0.0456  0.4739  0.1293
11977TIP3   OH257421   3.228   2.261  15.025  0.1621  0.3562 -0.0123
11977TIP3    H157422   3.198   2.297  15.109 -0.6550  2.7263 -1.2747
11977TIP3    H257423   3.167   2.297  14.961  1.5686 -0.3765 -1.7886
11978TIP3   OH257424   5.611   5.960  14.892  0.6819 -0.8217 -0.0937
11978TIP3    H157425   5.586   5.877  14.852 -1.1135  0.2759 -1.2886
11978TIP3    H257426   5.530   5.994  14.930  1.5462  0.0592  1.0142
11979TIP3   OH257427   4.769   3.472   4.597 -1.0835 -0.2435 -0.2303
11979TIP3    H157428   4.859   3.440   4.605 -0.5107  1.7011  1.2276
11979TIP3    H257429   4.767   3.516   4.512 -1.0138 -1.2892 -0.7950
11980TIP3   OH257430   1.967   5.570   6.085  0.0638  0.3002  0.1638
11980TIP3    H157431   1.922   5.614   6.013  0.2250 -0.3929 -0.3636
11980TIP3    H257432   2.046   5.533   6.045 -0.2934 -0.8432  0.5107
11981TIP3   OH257433   4.545   3.891  14.190 -0.1272  0.0668 -0.5800
11981TIP3    H157434   4.524   3.897  14.283  0.4017 -1.0385 -0.3871
11981TIP3    H257435   4.569   3.981  14.166 -0.0428  0.3198  0.4015
11982TIP3   OH257436   3.832   4.323  11.572  0.0829 -0.0835 -0.3417
11982TIP3    H157437   3.818   4.324  11.478  0.6434 -0.1539 -0.4301
11982TIP3    H257438   3.830   4.415  11.598  1.0379  0.0178 -0.5988
11983TIP3   OH257439   1.634   2.591   0.420 -0.2644  0.6950  0.3970
11983TIP3    H157440   1.600   2.518   0.471 -1.0143  0.3063 -0.6380
11983TIP3    H257441   1.604   2.669   0.468 -0.2708  0.3354  0.9854
11984TIP3   OH257442   2.034   4.848  12.116 -0.4184  0.3538  0.0857
11984TIP3    H157443   1.996   4.762  12.135 -1.7640  0.2861 -2.6534
11984TIP3    H257444   1.966   4.910  12.141  0.9372  0.7290  3.0120
11985TIP3   OH257445   5.920   0.448   2.231  0.0048 -0.2909 -0.0735
11985TIP3    H157446   5.909   0.483   2.142 -2.9079 -0.1035  0.3250
11985TIP3    H257447   6.007   0.406   2.229  0.4102  0.5613 -2.7007
11986TIP3   OH257448   2.304   0.938  13.389  0.3706  0.7933 -0.0682
11986TIP3    H157449   2.353   1.006  13.436  0.9965 -0.7735  1.5748
11986TIP3    H257450   2.359   0.917  13.314 -0.0422  2.4152 -0.8503
11987TIP3   OH257451   5.399   2.017  12.717  0.3687  0.2001 -0.2909
11987TIP3    H157452   5.440   2.061  12.643  1.0890  0.9502  0.5372
11987TIP3    H257453   5.420   2.072  12.792 -0.7465 -0.2976  0.4076
11988TIP3   OH257454   1.125   3.346   2.109 -0.7978  0.3763 -0.1312
11988TIP3    H157455   1.118   3.427   2.159  0.1642  0.6066 -0.3515
11988TIP3    H257456   1.219   3.331   2.101 -0.8805  0.8195 -2.6011
11989TIP3   OH257457   6.223   6.297   0.452 -0.2709 -0.0124  0.5376
11989TIP3    H157458   6.168   6.219   0.449  0.3932 -0.4290 -1.6203
11989TIP3    H257459   6.163   6.368   0.473 -1.5843 -0.5561 -1.2353
11990TIP3   OH257460   0.702   6.101  11.719 -0.0510 -0.5445 -0.7078
11990TIP3    H157461   0.614   6.064  11.726  0.6037 -1.9863  0.1370
11990TIP3    H257462   0.761   6.026  11.727  1.2662  0.4024 -1.2486
11991TIP3   OH257463   5.435   4.901   5.341  0.2504 -0.7528  0.0838
11991TIP3    H157464   5.452   4.835   5.274 -0.4813  0.9822 -1.8682
11991TIP3    H257465   5.374   4.962   5.300 -0.7256  0.0358  2.5559
11992TIP3   OH257466   1.394   0.071  14.018  0.9778 -0.0641 -0.0385
11992TIP3    H157467   1.447   0.127  14.074  0.5095  0.1707  0.1774
11992TIP3    H257468   1.305   0.104  14.030  0.6654 -1.0248  0.2979
11993TIP3   OH257469   1.824   2.019  15.295 -0.2171 -0.0383  0.7552
11993TIP3    H157470   1.835   2.106  15.256 -0.3587  0.3307  1.5208
11993TIP3    H257471   1.744   1.985  15.256 -0.9583  0.7839  1.5334
11994TIP3   OH257472   4.540   2.062   3.056  0.5147  0.4878 -0.1518
11994TIP3    H157473   4.465   2.079   3.112 -0.5470  2.3208 -2.0486
11994TIP3    H257474   4.608   2.030   3.115 -1.4148 -0.2088  1.7415
11995TIP3   OH257475   1.504   2.916   1.376  0.1776 -0.0813 -0.1260
11995TIP3    H157476   1.478   2.824   1.381 -0.1614  0.0859  1.6566
11995TIP3    H257477   1.523   2.931   1.284 -1.2236 -1.5371 -0.6668
11996TIP3   OH257478   2.137   6.072  11.057 -0.5585  0.9646 -0.3712
11996TIP3    H157479   2.104   5.983  11.042 -1.1383  1.0909  0.1591
11996TIP3    H257480   2.114   6.119  10.977  1.0373  0.2728 -1.2731
11997TIP3   OH257481   3.121   2.659  16.864 -0.6470  0.0342  0.4676
11997TIP3    H157482   3.078   2.716  16.928  0.9395 -0.0563  1.6255
11997TIP3    H257483   3.164   2.720  16.804  1.3028  0.0701  1.8803
11998TIP3   OH257484   0.677   0.990  16.996  0.3231 -0.2104  0.1464
11998TIP3    H157485   0.681   0.911  16.942 -1.2497  0.1393 -0.5081
11998TIP3    H257486   0.725   0.967  17.076 -0.2000 -1.8652  0.0054
11999TIP3   OH257487   0.063   6.079  13.327 -0.0306 -0.4834  0.3291
11999TIP3    H157488   0.062   6.047  13.417  0.9931 -0.0157  0.5108
11999TIP3    H257489   0.155   6.101  13.310 -0.7705  3.0458  0.4468
12000TIP3   OH257490   0.584   2.054  10.422  0.4497  0.3907 -0.8343
12000TIP3    H157491   0.668   2.026  10.384  0.8160  0.5652 -0.1683
12000TIP3    H257492   0.585   2.150  10.414  0.8160  0.4798  0.1869
12001TIP3   OH257493   0.313   5.756   1.294 -0.5105  0.5440  1.1632
12001TIP3    H157494   0.275   5.816   1.358  0.6091  1.9086  0.5911
12001TIP3    H257495   0.238   5.717   1.249 -1.2846  0.2140  2.7221
12002TIP3   OH257496   4.300   5.606   1.525 -0.2017 -0.0871  0.2126
12002TIP3    H157497   4.344   5.658   1.458  1.0868 -0.2338  0.9330
12002TIP3    H257498   4.271   5.669   1.591 -0.4393 -0.0743  0.0988
12003TIP3   OH257499   5.820   0.297  14.912 -0.0939  0.2442  0.4716
12003TIP3    H157500   5.743   0.262  14.957 -0.6049  2.1066  1.1113
12003TIP3    H257501   5.823   0.251  14.829 -1.6061 -0.2164  0.6642
12004TIP3   OH257502   4.136   0.719  12.260  0.4227  0.2999  0.2708
12004TIP3    H157503   4.207   0.756  12.207  0.0430 -0.7620 -0.9809
12004TIP3    H257504   4.084   0.668  12.199  1.4304 -3.0993  2.1072
12005TIP3   OH257505   1.463   5.513  16.327  0.7419  0.0006  1.2398
12005TIP3    H157506   1.543   5.510  16.381 -0.3502  0.4186  2.9182
12005TIP3    H257507   1.435   5.422  16.321  0.5798  0.0094  1.8307
12006TIP3   OH257508   0.922   1.891  13.691 -0.7906  0.6780 -0.2409
12006TIP3    H157509   1.004   1.862  13.731 -0.8733  0.1143 -0.4755
12006TIP3    H257510   0.867   1.812  13.687 -1.6084  1.1997  0.5624
12007TIP3   OH257511   0.574   3.746  10.210 -0.5979  0.3099 -0.1040
12007TIP3    H157512   0.597   3.686  10.139 -1.8499 -0.6461  0.2915
12007TIP3    H257513   0.630   3.822  10.195 -0.2386 -0.2275 -1.6301
12008TIP3   OH257514   3.206   0.812   4.738  0.0649 -0.1486  0.1821
12008TIP3    H157515   3.218   0.854   4.823  0.9403  0.3198 -0.1703
12008TIP3    H257516   3.226   0.880   4.674 -0.3043 -0.5799 -0.4035
12009TIP3   OH257517   1.869   2.607   3.145 -0.2214 -0.3623 -0.7043
12009TIP3    H157518   1.925   2.564   3.209 -0.1581  0.6459 -0.0882
12009TIP3    H257519   1.780   2.577   3.166 -0.1003 -0.7400 -0.7229
12010TIP3   OH257520   1.273   1.187   0.298  0.1066 -0.0516 -0.6958
12010TIP3    H157521   1.283   1.140   0.215  0.3701 -2.3726  0.6028
12010TIP3    H257522   1.339   1.256   0.295  0.8269 -0.7790 -1.9609
12011TIP3   OH257523   4.588   5.601   5.243  0.2359 -0.1602  0.4270
12011TIP3    H157524   4.641   5.521   5.242 -0.9181 -0.9138 -1.1038
12011TIP3    H257525   4.500   5.571   5.266  0.1770  0.9340  1.7048
12012TIP3   OH257526   2.355   2.612  17.155 -0.1519 -0.0916  0.0501
12012TIP3    H157527   2.428   2.672  17.170  0.6521 -1.0273 -0.0731
12012TIP3    H257528   2.336   2.575  17.241  0.6399 -1.1217 -0.2161
12013TIP3   OH257529   4.074   1.540  13.984 -0.2668 -0.4626  0.2523
12013TIP3    H157530   4.018   1.610  14.018  1.4887  0.9857  0.2285
12013TIP3    H257531   4.149   1.537  14.043  0.2584 -1.5216 -0.4377
12014TIP3   OH257532   0.403   5.620   3.165  0.4293  0.4644  0.1890
12014TIP3    H157533   0.488   5.622   3.120  0.0912 -0.8784 -0.5610
12014TIP3    H257534   0.423   5.585   3.252  0.4727 -1.0757 -0.4275
12015TIP3   OH257535   6.795   1.244  16.773  0.0863 -0.2261 -0.2876
12015TIP3    H157536   6.811   1.150  16.759 -0.0164 -0.2624 -0.1618
12015TIP3    H257537   6.753   1.248  16.859  1.1159  0.0360  0.2103
12016TIP3   OH257538   0.227   0.715   4.796 -0.5289 -0.2982 -0.3044
12016TIP3    H157539   0.211   0.808   4.814  0.2103  0.0812 -1.5005
12016TIP3    H257540   0.238   0.711   4.701 -1.6599 -1.7974 -0.3833
12017TIP3   OH257541   6.454   5.425   3.095  0.3131 -0.4001 -0.4903
12017TIP3    H157542   6.508   5.402   3.019  1.1208 -0.5433  0.1162
12017TIP3    H257543   6.453   5.346   3.149 -2.6849 -1.2678 -1.7254
12018TIP3   OH257544   3.559   6.546   3.097  0.4712 -0.0016  0.4508
12018TIP3    H157545   3.466   6.530   3.084  0.5209  1.3339 -1.8005
12018TIP3    H257546   3.599   6.528   3.012  1.8538  2.2316  0.5808
12019TIP3   OH257547   1.486   4.293   2.942  0.6766 -0.1097 -0.2499
12019TIP3    H157548   1.551   4.228   2.915  0.5591 -0.4338  0.2456
12019TIP3    H257549   1.411   4.276   2.885  1.0963  0.4107 -0.9775
12020TIP3   OH257550   6.053   5.223   1.750 -0.2421  0.3495 -0.0918
12020TIP3    H157551   6.140   5.223   1.709 -0.4357 -1.7057 -0.5375
12020TIP3    H257552   6.060   5.289   1.820  2.0870 -0.7079  0.7275
12021TIP3   OH257553   2.769   5.174   1.667 -0.1285 -0.5067 -0.1609
12021TIP3    H157554   2.806   5.150   1.582 -0.5293  0.1227 -0.5184
12021TIP3    H257555   2.737   5.091   1.703 -0.7060 -0.6593 -0.9940
12022TIP3   OH257556   5.475   4.243   1.811  0.0604  0.4617 -0.0843
12022TIP3    H157557   5.488   4.277   1.722  1.6234  0.4106  0.1191
12022TIP3    H257558   5.451   4.151   1.798  1.2029  0.2058 -0.4246
12023TIP3   OH257559   2.295   6.516  14.475 -0.1554 -0.2577 -0.3423
12023TIP3    H157560   2.299   6.513  14.570  1.3614  0.0993 -0.3873
12023TIP3    H257561   2.335   6.599  14.452 -1.2391  0.0261 -1.2675
12024TIP3   OH257562   0.476   1.948   2.458  0.0529 -0.3947  0.0172
12024TIP3    H157563   0.557   1.964   2.409  0.1392 -1.5774 -0.2291
12024TIP3    H257564   0.486   2.001   2.537  0.1839  1.0372 -0.9375
12025TIP3   OH257565   0.611   1.378   2.572 -0.0554  0.5266 -0.7947
12025TIP3    H157566   0.607   1.285   2.594  0.2418  0.8345  0.6209
12025TIP3    H257567   0.596   1.423   2.655 -1.2262  1.7555 -1.6466
12026TIP3   OH257568   4.105   3.345   2.881 -0.5121  0.1255  0.1948
12026TIP3    H157569   4.057   3.417   2.922  0.3213  0.1103  1.2188
12026TIP3    H257570   4.194   3.355   2.913 -0.5404 -1.7830  0.9190
12027TIP3   OH257571   5.402   6.035  13.579  0.2621  0.5341 -0.7171
12027TIP3    H157572   5.464   6.072  13.642 -0.7296 -0.9274  1.1954
12027TIP3    H257573   5.411   6.089  13.501  1.8899  2.0993  0.5184
12028TIP3   OH257574   3.233   2.703   0.344 -0.2877  0.3540  0.1133
12028TIP3    H157575   3.167   2.669   0.404 -2.0549 -0.5672 -2.2721
12028TIP3    H257576   3.314   2.662   0.373 -1.3513 -1.2301  0.9725
12029TIP3   OH257577   6.710   2.163   5.687 -0.4535 -0.3075  0.7873
12029TIP3    H157578   6.709   2.245   5.638  1.2721  0.2010  1.5786
12029TIP3    H257579   6.768   2.180   5.762 -0.4781 -2.0825  1.2348
12030TIP3   OH257580   5.249   3.534   0.047  0.1544 -0.0605 -0.5621
12030TIP3    H157581   5.288   3.540  -0.040 -1.1181  0.6286 -1.1028
12030TIP3    H257582   5.169   3.586   0.041 -0.0599 -0.1823  0.9620
12031TIP3   OH257583   4.945   1.714   6.558  0.5514  0.1944  0.5227
12031TIP3    H157584   5.016   1.651   6.565  2.1954  1.6140 -2.5431
12031TIP3    H257585   4.975   1.790   6.608 -0.8191 -0.8604  3.0244
12032TIP3   OH257586   5.850   6.620   0.995 -0.6028 -0.4876 -0.1158
12032TIP3    H157587   5.930   6.572   0.973 -0.3275 -0.2224  0.3063
12032TIP3    H257588   5.791   6.552   1.028 -1.1222 -0.9319 -1.9085
12033TIP3   OH257589   2.170   6.264  14.864  0.2874 -0.1875 -0.1367
12033TIP3    H157590   2.260   6.295  14.867  0.0407  0.3693  1.6801
12033TIP3    H257591   2.169   6.186  14.920 -0.4773  0.0933  0.2413
12034TIP3   OH257592   3.809   0.940   5.246 -0.3607 -0.4796 -0.3874
12034TIP3    H157593   3.747   0.924   5.317  0.5066 -3.5383 -0.2476
12034TIP3    H257594   3.792   0.869   5.184  1.7762 -0.3039 -1.1944
12035TIP3   OH257595   4.812   2.543   0.973 -0.0740 -0.7460 -0.1428
12035TIP3    H157596   4.739   2.571   1.029 -0.9054 -1.5641 -0.8085
12035TIP3    H257597   4.838   2.622   0.926  0.2869 -0.1660  0.9978
12036TIP3   OH257598   5.935   6.243  12.825 -0.0510 -0.2496  0.4546
12036TIP3    H157599   5.866   6.308  12.810  0.8165  0.6365  0.3059
12036TIP3    H257600   5.932   6.188  12.746 -1.5620 -1.1332  1.0891
12037TIP3   OH257601   2.143   5.308   1.376 -0.3334 -0.0581 -0.4158
12037TIP3    H157602   2.142   5.216   1.400  0.7097  0.0481  0.0536
12037TIP3    H257603   2.119   5.355   1.456  2.1170  0.2365  0.1613
12038TIP3   OH257604   4.326   1.819   6.114  0.2274 -0.1894 -0.0825
12038TIP3    H157605   4.411   1.857   6.095 -0.7039  1.9833 -0.0782
12038TIP3    H257606   4.329   1.732   6.074  1.5589  0.8090 -2.2247
12039TIP3   OH257607   5.921   1.586  11.906 -0.0159 -0.6431 -0.5608
12039TIP3    H157608   5.924   1.493  11.884  0.9574 -0.7096 -0.1670
12039TIP3    H257609   6.012   1.615  11.901 -0.3560  0.3719 -1.0198
12040TIP3   OH257610   4.548   3.036  11.846 -0.2972  0.1100 -0.6999
12040TIP3    H157611   4.614   3.043  11.915 -1.5861 -0.0897  0.5886
12040TIP3    H257612   4.501   3.120  11.850  0.7072  0.7745 -2.4815
12041TIP3   OH257613   3.096   1.128   0.688 -0.2624 -0.8758 -0.6360
12041TIP3    H157614   3.143   1.045   0.681  0.5829 -0.3094 -2.0287
12041TIP3    H257615   3.149   1.189   0.636 -1.3344  0.3188 -0.3369
12042TIP3   OH257616   1.371   2.590  11.638 -0.2563  0.1369  0.1077
12042TIP3    H157617   1.430   2.590  11.563  0.3964  0.9611  0.5922
12042TIP3    H257618   1.315   2.667  11.625 -0.4577  0.0080  0.2126
12043TIP3   OH257619   6.492   0.069  10.639 -0.0569 -0.0035 -0.0222
12043TIP3    H157620   6.437   0.075  10.561 -0.0501 -0.8866 -0.1019
12043TIP3    H257621   6.541   0.151  10.640  1.1034 -0.6237 -1.8370
12044TIP3   OH257622   5.853   4.635  13.638  0.2682 -0.5767 -0.0377
12044TIP3    H157623   5.905   4.558  13.616 -1.7372 -2.1435  0.5275
12044TIP3    H257624   5.788   4.641  13.568 -0.5904 -0.3348  0.7785
12045TIP3   OH257625   0.529   0.282  16.175 -0.4312  0.1246  0.0098
12045TIP3    H157626   0.490   0.370  16.172  0.4164  0.5698  1.2923
12045TIP3    H257627   0.592   0.282  16.103 -0.4153  0.5915  0.0161
12046TIP3   OH257628   6.180   3.364   2.999 -0.5787 -0.5126 -0.5090
12046TIP3    H157629   6.104   3.343   3.052  1.0327 -1.3297  1.5546
12046TIP3    H257630   6.236   3.286   3.004  1.5684  1.0307  0.1677
12047TIP3   OH257631   1.943   1.840   1.052 -0.6436  0.2057  0.6434
12047TIP3    H157632   1.878   1.829   0.982 -2.7255  3.4804  1.9368
12047TIP3    H257633   1.915   1.779   1.120 -2.3540  1.4680  1.1243
12048TIP3   OH257634   3.796   6.050   3.964 -0.3980  0.0586  0.1840
12048TIP3    H157635   3.809   6.063   4.058 -1.5155 -0.0026  0.3471
12048TIP3    H257636   3.804   5.956   3.951  0.8894  0.1741  0.0348
12049TIP3   OH257637   4.644   2.258  12.571  0.0536 -0.6384 -0.1740
12049TIP3    H157638   4.584   2.204  12.621 -0.7763 -1.1031 -1.6597
12049TIP3    H257639   4.731   2.221  12.590 -0.3404 -1.4011  0.1622
12050TIP3   OH257640   4.130   6.724   4.285  0.3446 -0.6645  0.7120
12050TIP3    H157641   4.185   6.717   4.207  0.7189 -1.2896  1.0320
12050TIP3    H257642   4.164   6.802   4.331 -0.8581  0.6078 -0.5082
12051TIP3   OH257643   0.148   3.300  16.532 -0.2015  0.2984 -0.4576
12051TIP3    H157644   0.086   3.323  16.464  0.0525 -0.0297 -0.8022
12051TIP3    H257645   0.114   3.219  16.569 -0.4990  0.6336  0.0094
12052TIP3   OH257646   2.423   5.334  11.956 -0.0651  0.3051  0.8972
12052TIP3    H157647   2.329   5.353  11.963 -0.4587 -1.1276 -0.3307
12052TIP3    H257648   2.437   5.310  11.864  1.2901 -0.5514  1.3000
12053TIP3   OH257649   4.647   1.710  17.221 -0.3873 -0.2267  0.3730
12053TIP3    H157650   4.695   1.785  17.184 -2.8246  1.2063  0.0063
12053TIP3    H257651   4.555   1.729  17.203 -1.3531 -1.4400  3.6998
12054TIP3   OH257652   5.738   1.615   4.286  0.0203 -0.0448  1.2306
12054TIP3    H157653   5.785   1.653   4.212  0.2393 -1.3707  0.6922
12054TIP3    H257654   5.805   1.569   4.337 -0.5343 -1.1087  0.9927
12055TIP3   OH257655   1.198   1.884   6.822 -0.7437  0.1965  0.1704
12055TIP3    H157656   1.143   1.949   6.778 -0.5265 -0.6773 -1.4408
12055TIP3    H257657   1.284   1.925   6.829 -1.0237  0.7036  0.6387
12056TIP3   OH257658   1.618   5.371   3.671  0.0688 -0.3799  0.1139
12056TIP3    H157659   1.538   5.407   3.708 -0.5864 -1.1552 -0.5342
12056TIP3    H257660   1.617   5.278   3.693  1.2118 -0.2358  0.8284
12057TIP3   OH257661   1.806   1.989  17.061 -0.3225  0.6394  0.9261
12057TIP3    H157662   1.874   2.049  17.094 -0.1566  0.6289  0.6032
12057TIP3    H257663   1.752   2.044  17.004  0.6841  0.1512 -0.5283
12058TIP3   OH257664   0.121   1.394   0.753  0.2970 -0.0680  0.2624
12058TIP3    H157665   0.028   1.380   0.769 -0.0470  1.4827 -0.2691
12058TIP3    H257666   0.165   1.346   0.823 -0.9522  0.5383  1.4876
12059TIP3   OH257667   4.817   1.375  13.708  0.4091  0.1882  0.5710
12059TIP3    H157668   4.761   1.453  13.707  1.0140  0.6343  1.7096
12059TIP3    H257669   4.882   1.392  13.640 -1.1148 -0.5485 -1.1150
12060TIP3   OH257670   1.937   6.348   2.042 -0.9504  0.0816  0.2820
12060TIP3    H157671   1.990   6.306   2.110 -0.0413  1.0106  0.1595
12060TIP3    H257672   2.001   6.377   1.977 -1.8829 -1.4479 -1.3429
12061TIP3   OH257673   3.414   5.154   1.652 -0.3026  0.0176  0.6052
12061TIP3    H157674   3.422   5.081   1.591  0.4756  1.7117 -1.3524
12061TIP3    H257675   3.474   5.132   1.723 -0.7184 -1.6477  0.4829
12062TIP3   OH257676   5.847   2.696  15.007  0.0969  0.3461  0.0176
12062TIP3    H157677   5.795   2.713  14.928 -0.0178 -0.9640 -0.2024
12062TIP3    H257678   5.783   2.669  15.073  0.3042  0.4556  0.2630
12063TIP3   OH257679   1.060   1.388   5.280  0.4671 -0.0437 -0.0091
12063TIP3    H157680   0.970   1.396   5.248  0.3619 -1.5771 -0.1032
12063TIP3    H257681   1.070   1.296   5.303  1.6887  0.3163  0.9901
12064TIP3   OH257682   2.413   6.207   5.579  0.2320  0.4154 -0.1567
12064TIP3    H157683   2.383   6.243   5.662  1.6403  0.0277  0.5475
12064TIP3    H257684   2.337   6.163   5.542 -0.3507  0.4174  1.0378
12065TIP3   OH257685   2.925   0.088  15.545 -0.1909  0.4056  0.0303
12065TIP3    H157686   2.830   0.078  15.556 -0.3929 -2.9164 -3.6078
12065TIP3    H257687   2.962   0.021  15.602 -0.1025  0.5561  0.1488
12066TIP3   OH257688   6.190   2.884   5.286 -0.4126 -0.6016  0.5072
12066TIP3    H157689   6.212   2.937   5.363 -1.5768 -0.0689  0.4777
12066TIP3    H257690   6.266   2.827   5.274 -0.1959 -0.6329  1.9975
12067TIP3   OH257691   5.621   3.639  12.645  0.2239 -0.0310  0.0023
12067TIP3    H157692   5.655   3.569  12.700 -2.1512 -1.4859 -0.3078
12067TIP3    H257693   5.556   3.683  12.699  0.2172  0.6005 -0.5160
12068TIP3   OH257694   2.646   2.544  14.358 -0.1765 -0.0160  0.4088
12068TIP3    H157695   2.670   2.549  14.266  0.3651 -1.9017  0.4438
12068TIP3    H257696   2.725   2.571  14.405 -0.0847 -0.2228  0.3689
12069TIP3   OH257697   6.201   4.558   0.405  0.2184 -0.2168  0.4731
12069TIP3    H157698   6.280   4.510   0.379 -0.0071  0.0923 -0.7988
12069TIP3    H257699   6.226   4.650   0.399 -0.0229 -0.1321  0.7516
12070TIP3   OH257700   3.782   3.193   0.938 -0.4075 -0.0515  0.6505
12070TIP3    H157701   3.861   3.247   0.947 -1.5224  1.6078  0.6982
12070TIP3    H257702   3.725   3.245   0.881 -0.1158 -2.7716 -2.2260
12071TIP3   OH257703   6.112   2.319   4.414  0.5777  0.6359  0.3409
12071TIP3    H157704   6.166   2.265   4.472  0.7006  0.7097  0.2939
12071TIP3    H257705   6.077   2.388   4.471 -1.6519 -0.9618  0.9868
12072TIP3   OH257706   1.146   1.430  13.852 -0.1402  0.2506 -0.4078
12072TIP3    H157707   1.089   1.354  13.860  1.0940 -0.3903  2.8633
12072TIP3    H257708   1.226   1.404  13.897  0.7905  3.0334 -0.4132
12073TIP3   OH257709   0.155   1.677   1.138 -0.1487  0.1260  0.3614
12073TIP3    H157710   0.186   1.768   1.142 -2.0593  0.8081  0.3035
12073TIP3    H257711   0.120   1.660   1.225 -0.0021 -0.4690  0.3033
12074TIP3   OH257712   0.629   6.777  11.081  0.3847  0.4250  0.3839
12074TIP3    H157713   0.678   6.748  11.004 -1.2442  1.8441 -1.2298
12074TIP3    H257714   0.538   6.761  11.059 -0.2701  3.0604  1.0071
12075TIP3   OH257715   1.652   3.016   3.567  0.4173 -0.2673 -0.0945
12075TIP3    H157716   1.643   2.998   3.474  0.1859 -0.9910  0.0605
12075TIP3    H257717   1.564   2.999   3.603  0.4680  0.1493  0.2278
12076TIP3   OH257718   2.585   2.412  16.031  0.1035  0.6543  0.5571
12076TIP3    H157719   2.533   2.488  16.007 -1.1491 -1.1399 -2.7968
12076TIP3    H257720   2.670   2.447  16.054 -0.8791  3.1759  0.4823
12077TIP3   OH257721   1.376   4.582   0.409 -0.0120 -0.7602 -0.1103
12077TIP3    H157722   1.453   4.640   0.415 -0.0357 -0.8602  1.4121
12077TIP3    H257723   1.311   4.633   0.361 -0.1103  0.5903  1.4114
12078TIP3   OH257724   3.866   4.344   3.249  0.1366  0.0204  0.5022
12078TIP3    H157725   3.823   4.279   3.194  1.0221  0.0151 -0.2064
12078TIP3    H257726   3.868   4.305   3.336 -0.7794 -0.2159  0.4154
12079TIP3   OH257727   2.019   0.545   6.015  0.2949 -0.2663 -0.4101
12079TIP3    H157728   2.009   0.579   6.103  3.6028 -0.2212 -0.0193
12079TIP3    H257729   1.929   0.536   5.983 -0.9036  0.8770  2.4803
12080TIP3   OH257730   2.748   0.740  12.568 -0.1771 -0.0528 -0.4379
12080TIP3    H157731   2.767   0.705  12.655  0.8022 -0.0901 -0.6589
12080TIP3    H257732   2.706   0.825  12.584 -0.3572 -0.2438  0.0760
12081TIP3   OH257733   3.373   1.201  11.365 -0.7115 -0.3685 -0.0146
12081TIP3    H157734   3.371   1.289  11.330  0.1406 -0.0375  0.7475
12081TIP3    H257735   3.281   1.178  11.379 -1.0984 -0.6500 -2.7551
12082TIP3   OH257736   4.337   0.859   3.073 -0.1233  0.2388 -0.1205
12082TIP3    H157737   4.286   0.786   3.107  1.4186 -0.8307 -0.0726
12082TIP3    H257738   4.387   0.891   3.148  1.4753 -0.5914 -0.8177
12083TIP3   OH257739   2.417   4.253   0.046  0.3126  0.3616 -0.6512
12083TIP3    H157740   2.342   4.224   0.097 -0.5245  0.8430 -1.6112
12083TIP3    H257741   2.493   4.233   0.102 -0.5471  0.3080  0.5055
12084TIP3   OH257742   1.933   5.555  15.020 -0.2016 -0.2529 -0.8895
12084TIP3    H157743   1.904   5.558  15.111  0.2747  1.1771 -0.7675
12084TIP3    H257744   1.907   5.469  14.988 -1.2999 -0.3555  0.2955
12085TIP3   OH257745   4.298   1.002  10.466  0.3123  0.2380 -0.7394
12085TIP3    H157746   4.378   0.964  10.430 -0.6491 -1.6298 -0.9787
12085TIP3    H257747   4.228   0.963  10.414 -0.7249  2.4120 -1.0158
12086TIP3   OH257748   4.450   4.818   4.728  0.0529  0.7038 -0.6490
12086TIP3    H157749   4.529   4.872   4.726 -0.3139  1.2331 -1.3679
12086TIP3    H257750   4.387   4.866   4.674 -0.5087 -0.0936 -0.7175
12087TIP3   OH257751   3.595   0.904  15.927  0.1945  0.2554  0.5747
12087TIP3    H157752   3.685   0.880  15.903  0.0633  1.4664 -1.1980
12087TIP3    H257753   3.604   0.986  15.975  0.1793 -0.5626  1.9953
12088TIP3   OH257754   2.781   4.064  14.108 -0.5471 -0.2153 -1.0436
12088TIP3    H157755   2.827   4.023  14.034  0.2301 -0.4318 -0.4427
12088TIP3    H257756   2.758   3.991  14.165 -2.3375 -0.1980 -1.7134
12089TIP3   OH257757   0.119   1.210   4.888 -0.2186 -0.0796  0.1152
12089TIP3    H157758   0.043   1.156   4.913 -0.6569  0.8261  0.7639
12089TIP3    H257759   0.093   1.300   4.908  0.7878  0.3079 -0.2654
12090TIP3   OH257760   3.057   4.455  14.041 -0.2231  0.3925 -0.0759
12090TIP3    H157761   2.999   4.467  13.966  0.9499 -0.4823 -1.1323
12090TIP3    H257762   3.137   4.503  14.019  0.5504 -0.7678  0.1178
12091TIP3   OH257763   3.310   0.810  16.539  0.0136 -0.4873  0.1771
12091TIP3    H157764   3.283   0.900  16.557 -0.5278 -0.6741  0.3150
12091TIP3    H257765   3.353   0.814  16.453 -2.3385 -0.5338 -1.0350
12092TIP3   OH257766   3.112   2.173  15.434  0.4369  0.1264 -0.5221
12092TIP3    H157767   3.019   2.182  15.452  0.3599 -1.9719  0.1803
12092TIP3    H257768   3.152   2.155  15.519  1.5601  1.3963 -0.7503
12093TIP3   OH257769   2.380   6.665   0.479 -0.2577 -0.7451  0.7240
12093TIP3    H157770   2.343   6.753   0.481 -0.9145 -0.9832 -0.5164
12093TIP3    H257771   2.407   6.648   0.569 -0.8777  0.3998  1.1321
12094TIP3   OH257772   5.711   0.249   1.021 -0.4953  0.0829  0.1733
12094TIP3    H157773   5.651   0.323   1.030  0.2336  0.6021  0.7807
12094TIP3    H257774   5.726   0.241   0.927  0.0553  1.2124  0.1611
12095TIP3   OH257775   3.925   2.927  16.428 -0.8319 -0.5114 -0.5117
12095TIP3    H157776   3.880   3.011  16.424  1.5069  0.7132 -2.0790
12095TIP3    H257777   3.937   2.901  16.337  1.5097 -0.8028 -0.1724
12096TIP3   OH257778   4.940   0.038  16.377  0.4110 -0.1750 -0.5958
12096TIP3    H157779   4.865   0.068  16.428 -0.3781 -1.3569 -1.0262
12096TIP3    H257780   4.980  -0.030  16.431  0.4063 -0.4469 -0.9318
12097TIP3   OH257781   6.362   2.829   4.043  0.6837 -0.3791 -0.5527
12097TIP3    H157782   6.434   2.766   4.035  1.6760  0.8130 -1.2805
12097TIP3    H257783   6.371   2.864   4.132  1.6320  0.5030 -0.9916
12098TIP3   OH257784   4.840   6.130   5.155  0.0413 -0.6014 -0.3102
12098TIP3    H157785   4.886   6.187   5.093  0.8069 -0.1944  0.6144
12098TIP3    H257786   4.811   6.055   5.102 -2.5706  1.4692 -1.9049
12099TIP3   OH257787   6.543   1.218   1.081  0.6028 -0.2674 -0.2645
12099TIP3    H157788   6.523   1.124   1.079  0.4773 -0.2293 -0.7898
12099TIP3    H257789   6.462   1.261   1.054  0.5910  0.0019  0.2115
12100TIP3   OH257790   5.754   1.410  15.708  0.0734  0.2175 -0.1190
12100TIP3    H157791   5.708   1.327  15.724 -1.0314  0.8902  0.2214
12100TIP3    H257792   5.699   1.454  15.643 -0.7321  1.8155  1.6159
12101TIP3   OH257793   0.839   1.591  16.556 -0.4198  0.1571 -0.5230
12101TIP3    H157794   0.770   1.653  16.580 -0.8977 -0.5974  0.0406
12101TIP3    H257795   0.917   1.624  16.601 -1.2625 -1.1330  1.9615
12102TIP3   OH257796   4.448   2.128   4.378  0.4389  0.7384  0.1513
12102TIP3    H157797   4.514   2.180   4.424 -0.0465  1.9436 -0.4716
12102TIP3    H257798   4.487   2.108   4.293  0.4057  0.5686  0.1749
12103TIP3   OH257799   2.363   4.274  16.945  0.2614  0.0427 -0.6693
12103TIP3    H157800   2.347   4.181  16.959 -2.0324  0.5879  0.6371
12103TIP3    H257801   2.440   4.294  16.999  0.4538 -0.9898 -0.5562
12104TIP3   OH257802   0.244   1.945   1.159 -0.0361  0.2190  0.0800
12104TIP3    H157803   0.233   2.000   1.237 -1.5410  0.0244  0.0205
12104TIP3    H257804   0.204   1.996   1.088 -0.3587 -0.4143 -0.1991
12105TIP3   OH257805   5.812   1.159   3.655  0.1549  0.8980  0.0376
12105TIP3    H157806   5.799   1.131   3.746  1.5802 -2.8497 -0.8428
12105TIP3    H257807   5.757   1.099   3.604 -0.0655  2.5134 -1.6728
12106TIP3   OH257808   5.106   5.205   1.951  0.5103  0.2998 -0.3434
12106TIP3    H157809   5.053   5.128   1.975 -0.3321  0.8633 -0.3889
12106TIP3    H257810   5.140   5.185   1.864  0.5438 -0.1563 -0.2258
12107TIP3   OH257811   2.652   0.702   3.794  0.4362 -0.0097  0.1673
12107TIP3    H157812   2.682   0.658   3.874  1.8458 -0.2575 -0.4885
12107TIP3    H257813   2.681   0.792   3.804 -1.8292  0.6526  1.1837
12108TIP3   OH257814   5.157   3.866   1.167  0.4296  0.2201  0.1379
12108TIP3    H157815   5.134   3.888   1.257 -0.4760 -1.7756  0.4083
12108TIP3    H257816   5.200   3.781   1.172  3.2308  1.4971 -0.9904
12109TIP3   OH257817   1.840   0.403  17.174  0.2283 -0.1529  0.7648
12109TIP3    H157818   1.919   0.394  17.122 -0.1881 -0.1838  0.1338
12109TIP3    H257819   1.859   0.476  17.234  0.8618 -0.3996  0.8641
12110TIP3   OH257820   6.426   0.961  16.787 -0.1375  0.5456  0.3917
12110TIP3    H157821   6.336   0.980  16.814  0.4007  2.1131  1.1369
12110TIP3    H257822   6.424   0.869  16.759 -1.8090  0.3679  1.0536
12111TIP3   OH257823   3.103   2.572  16.507  0.6572 -0.6261  0.5015
12111TIP3    H157824   3.130   2.485  16.536  2.8146  0.1077  0.7848
12111TIP3    H257825   3.177   2.629  16.528 -0.4381  1.1652 -0.3107
12112TIP3   OH257826   5.091   3.956  16.115 -0.7003 -0.2411  0.2161
12112TIP3    H157827   5.177   3.947  16.074  0.9034  0.0732  3.2915
12112TIP3    H257828   5.034   3.898  16.066  1.1786 -0.1256 -2.1750
12113TIP3   OH257829   6.596   2.460   0.027 -0.2302 -0.4967 -0.2840
12113TIP3    H157830   6.572   2.407   0.103 -0.1371  0.3722  0.3596
12113TIP3    H257831   6.671   2.415  -0.011  1.1096  0.2325  1.4185
12114TIP3   OH257832   1.262   1.427  15.298  0.0861 -0.0902 -0.1506
12114TIP3    H157833   1.204   1.352  15.304 -0.4171  0.4022  1.2646
12114TIP3    H257834   1.297   1.439  15.386  0.8122  0.8240 -0.5451
12115TIP3   OH257835   0.673   3.109  15.415  0.0323  0.5757  0.2537
12115TIP3    H157836   0.604   3.134  15.476  0.1349  0.5629  0.3743
12115TIP3    H257837   0.630   3.053  15.351  0.3457 -1.0583  1.4505
12116TIP3   OH257838   0.176   4.432   3.593 -0.3464 -0.0918  0.0253
12116TIP3    H157839   0.231   4.475   3.527 -1.1499 -1.9426 -1.9043
12116TIP3    H257840   0.087   4.444   3.562 -0.8093 -0.0966  1.3293
12117TIP3   OH257841   6.290   6.337   5.030  0.2372 -0.8508 -0.7566
12117TIP3    H157842   6.217   6.383   4.989 -0.7444 -1.1560  0.6059
12117TIP3    H257843   6.331   6.402   5.087  0.6369 -0.8609 -1.0272
12118TIP3   OH257844   6.431   5.763  12.281 -0.4532 -0.2204 -0.0421
12118TIP3    H157845   6.468   5.828  12.341 -2.6376  0.7055  0.3376
12118TIP3    H257846   6.504   5.741  12.223  0.0153  3.6155 -1.0702
12119TIP3   OH257847   0.147   0.972   4.763 -0.1394 -0.7214  0.3197
12119TIP3    H157848   0.053   0.989   4.760 -0.1719 -0.9530 -0.0498
12119TIP3    H257849   0.187   1.056   4.784 -0.4284 -0.6132  0.4294
12120TIP3   OH257850   2.645   3.562  15.034 -0.0708 -0.0575  0.3332
12120TIP3    H157851   2.590   3.578  15.110  1.0644  1.3129  0.8807
12120TIP3    H257852   2.617   3.627  14.970 -0.6460 -0.8523 -0.2360
12121TIP3   OH257853   4.779   0.262  17.247 -0.5442  0.3172  0.2069
12121TIP3    H157854   4.750   0.225  17.331  0.1743 -1.9129 -0.4758
12121TIP3    H257855   4.790   0.355  17.264 -2.3733  0.2294  2.0346
12122TIP3   OH257856   2.885   2.510   5.157  0.3500  0.0148  0.4276
12122TIP3    H157857   2.916   2.451   5.087 -0.5604  0.2511 -0.1806
12122TIP3    H257858   2.792   2.520   5.140 -0.0053 -0.4049  2.0583
12123TIP3   OH257859   0.611   5.708   5.189  0.0514  0.0482  0.1115
12123TIP3    H157860   0.524   5.691   5.154  0.6664  0.0566 -1.4632
12123TIP3    H257861   0.598   5.775   5.256 -1.1423  0.0672 -0.1404
12124TIP3   OH257862   0.004   4.717  17.093  0.2273  0.2179 -0.2978
12124TIP3    H157863  -0.064   4.769  17.137  1.0272  0.0339  1.1931
12124TIP3    H257864  -0.026   4.709  17.002 -1.6735  0.2633  0.3078
12125TIP3   OH257865   4.908   5.523  16.607 -0.4057  0.4775 -0.0469
12125TIP3    H157866   4.944   5.611  16.594 -0.0302  0.2999 -0.2093
12125TIP3    H257867   4.976   5.464  16.575 -0.0991  0.0852  1.3202
12126TIP3   OH257868   0.641   0.642   5.533 -0.0468  0.4099 -0.0629
12126TIP3    H157869   0.630   0.552   5.565 -0.3164 -0.3393 -2.1794
12126TIP3    H257870   0.736   0.656   5.535  0.1131 -0.4317 -0.9893
12127TIP3   OH257871   1.419   4.345  16.261  0.2057  0.1317 -0.1562
12127TIP3    H157872   1.455   4.281  16.323  0.1424  0.4951  0.2655
12127TIP3    H257873   1.340   4.378  16.304  0.4692  0.7984 -0.1753
12128TIP3   OH257874   1.993   2.210  11.606 -0.4276 -0.3313 -0.6874
12128TIP3    H157875   2.002   2.166  11.691  3.8933  2.3244  0.3566
12128TIP3    H257876   1.930   2.280  11.622 -0.3338 -0.4209  0.1012
12129TIP3   OH257877   2.135   3.263   2.043  0.0451  0.0695  0.0535
12129TIP3    H157878   2.177   3.305   2.118 -0.0547 -0.3481  0.3441
12129TIP3    H257879   2.041   3.268   2.062  0.0057  0.1674 -0.1545
12130TIP3   OH257880   5.654   4.261   5.573 -0.1436 -0.5195  0.2910
12130TIP3    H157881   5.622   4.183   5.619  0.1564 -1.4650 -1.0552
12130TIP3    H257882   5.666   4.231   5.482  1.6485  0.6404  0.1332
12131TIP3   OH257883   0.828   4.575  12.376 -0.4028  0.2029 -0.1495
12131TIP3    H157884   0.772   4.503  12.349  0.2511 -0.9255  1.4065
12131TIP3    H257885   0.831   4.634  12.300 -0.1001 -1.9212 -1.8209
12132TIP3   OH257886   0.543   1.281  11.466  0.7919  0.5186  0.0116
12132TIP3    H157887   0.458   1.239  11.453 -0.8734  3.1758  2.0055
12132TIP3    H257888   0.592   1.259  11.386 -1.7168 -1.0447 -1.1757
12133TIP3   OH257889   1.705   5.399   2.141  0.0778 -0.0160 -0.2020
12133TIP3    H157890   1.713   5.321   2.086 -0.2010 -0.6720  0.6795
12133TIP3    H257891   1.616   5.397   2.174  1.0368 -1.1746  2.5110
12134TIP3   OH257892   4.492   3.631  16.415 -0.4973  0.4722 -0.2609
12134TIP3    H157893   4.422   3.675  16.367 -0.6481 -0.6881 -1.1439
12134TIP3    H257894   4.544   3.587  16.346  0.1255 -0.0199  0.5128
12135TIP3   OH257895   2.013   3.405  15.202 -0.6405  0.0322 -0.5031
12135TIP3    H157896   2.049   3.345  15.138  1.7502  0.3646  0.4655
12135TIP3    H257897   2.041   3.492  15.173  0.3345  0.1953  0.9001
12136TIP3   OH257898   4.930   5.804   4.794  0.0505  0.1831  0.1398
12136TIP3    H157899   4.873   5.850   4.857 -0.3328 -1.3714  0.9676
12136TIP3    H257900   4.875   5.793   4.717 -0.9575 -1.6721  1.0806
12137TIP3   OH257901   4.040   5.485  13.296 -0.0329 -0.9188 -0.0376
12137TIP3    H157902   3.989   5.560  13.328 -2.0857 -1.5452 -1.7655
12137TIP3    H257903   4.027   5.418  13.363 -2.0075 -1.2774 -0.7432
12138TIP3   OH257904   0.385   6.155  14.680  0.3969 -0.3413 -0.4895
12138TIP3    H157905   0.303   6.198  14.703  0.6606  0.9273 -1.8184
12138TIP3    H257906   0.448   6.188  14.745 -0.0001 -0.7908  0.1207
12139TIP3   OH257907   4.973   4.823  13.098 -0.5154  0.6300 -0.6745
12139TIP3    H157908   4.890   4.862  13.125 -1.0319 -1.6208  1.1354
12139TIP3    H257909   5.019   4.806  13.180  0.7829 -0.1460 -1.5510
12140TIP3   OH257910   2.680   2.075   1.302 -0.4311 -0.1868 -0.3559
12140TIP3    H157911   2.709   2.152   1.352  1.3750  0.1932 -1.9115
12140TIP3    H257912   2.738   2.073   1.226 -0.2973 -3.2039 -0.2618
12141TIP3   OH257913   4.079   6.505   0.626 -0.2758  0.1981 -0.4859
12141TIP3    H157914   4.105   6.528   0.537 -1.5602  0.1537 -0.8904
12141TIP3    H257915   4.156   6.523   0.679  0.6668 -0.2382 -1.6804
12142TIP3   OH257916   2.478   4.932  11.855 -0.5259  0.0583 -0.2135
12142TIP3    H157917   2.476   4.864  11.789 -1.1929  1.0929 -1.2810
12142TIP3    H257918   2.539   4.900  11.922 -0.4309 -1.3243 -0.9628
12143TIP3   OH257919   5.215   6.102  14.029  0.2701 -0.5308 -0.5629
12143TIP3    H157920   5.263   6.067  13.953  0.3050 -0.2110 -0.6865
12143TIP3    H257921   5.267   6.176  14.059 -0.9420  0.7870 -1.6589
12144TIP3   OH257922   1.936   5.940  15.861 -0.0685  0.4250  0.3727
12144TIP3    H157923   1.914   6.007  15.796 -1.0082  0.1639  0.4141
12144TIP3    H257924   1.868   5.873  15.850  0.9612 -0.6109  0.2072
12145TIP3   OH257925   0.682   0.544   3.006 -0.1552 -0.0870 -0.3150
12145TIP3    H157926   0.746   0.478   3.032  0.8540  0.7176 -0.6897
12145TIP3    H257927   0.660   0.521   2.916 -0.7365 -0.6228 -0.0405
12146TIP3   OH257928   3.046   0.872   2.400 -0.5671  0.2004 -0.3340
12146TIP3    H157929   2.959   0.841   2.423 -0.4024  0.1452  0.2255
12146TIP3    H257930   3.055   0.854   2.306 -1.0903  0.0534 -0.3528
12147TIP3   OH257931   3.992   5.274   6.047 -0.3100 -0.3993  0.3328
12147TIP3    H157932   3.977   5.235   5.960 -0.3655  1.0772 -0.3273
12147TIP3    H257933   3.921   5.241   6.101 -0.0658 -1.6334 -0.0722
12148TIP3   OH257934   2.850   2.759  13.869  0.3674 -0.2319  0.0433
12148TIP3    H157935   2.903   2.810  13.808 -1.3170  1.1452 -0.3180
12148TIP3    H257936   2.902   2.681  13.886  2.6294  1.1944 -0.0657
12149TIP3   OH257937   4.839   3.971   2.935  0.1413  0.1041  0.5999
12149TIP3    H157938   4.804   4.040   2.991 -0.4577 -0.4028  0.8532
12149TIP3    H257939   4.770   3.905   2.932 -0.1918  0.5247 -1.4587
12150TIP3   OH257940   3.738   3.522   5.415  0.7498 -0.0791 -0.2746
12150TIP3    H157941   3.745   3.617   5.424  0.1348 -0.2102  1.7091
12150TIP3    H257942   3.651   3.508   5.378  1.3045  0.1813 -1.7090
12151TIP3   OH257943   0.194   0.495   5.559  0.4310 -0.4511 -0.3270
12151TIP3    H157944   0.238   0.560   5.503  1.1271  0.1003  0.8499
12151TIP3    H257945   0.114   0.539   5.587  1.4939  0.3842  1.4669
12152TIP3   OH257946   5.583   1.205  16.523  0.1733 -0.0320  0.1040
12152TIP3    H157947   5.580   1.111  16.541 -0.7637  0.1235  0.8153
12152TIP3    H257948   5.669   1.232  16.556 -0.0288 -0.4270  0.9768
12153TIP3   OH257949   5.019   5.043   2.912  0.2077 -0.1564  0.4337
12153TIP3    H157950   4.961   4.979   2.871 -0.9376  0.9906  0.2393
12153TIP3    H257951   4.961   5.094   2.969  1.0709  0.8564  0.4049
12154TIP3   OH257952   6.782   1.710  11.540 -0.1518 -0.0852 -0.0615
12154TIP3    H157953   6.729   1.760  11.602 -0.7393 -1.0858  0.2361
12154TIP3    H257954   6.828   1.646  11.593 -0.1035 -0.4739 -0.5634
12155TIP3   OH257955   4.276   1.286  14.933  0.2279  0.9298 -0.6016
12155TIP3    H157956   4.282   1.355  15.000  0.5589  0.3504 -0.0308
12155TIP3    H257957   4.243   1.331  14.856  3.0435  2.3156 -1.0705
12156TIP3   OH257958   1.034   5.732   1.410 -0.2056 -0.8506  0.4422
12156TIP3    H157959   1.017   5.681   1.331 -0.3101 -2.8121  1.6883
12156TIP3    H257960   0.962   5.795   1.415 -0.1150 -0.6203 -1.0818
12157TIP3   OH257961   4.901   1.983   5.943 -0.3389  0.0056  0.4826
12157TIP3    H157962   4.889   1.923   5.870 -1.0107 -0.5565  1.0499
12157TIP3    H257963   4.874   1.933   6.020 -0.0611  0.7399  1.0626
12158TIP3   OH257964   5.923   1.283  13.440  0.7663  0.1187 -0.1074
12158TIP3    H157965   5.922   1.367  13.395  2.1625 -0.4781 -1.2834
12158TIP3    H257966   6.005   1.242  13.413  0.2324 -1.5085  0.6653
12159TIP3   OH257967   3.575   1.779  15.206 -0.0876  0.4989 -0.6136
12159TIP3    H157968   3.590   1.686  15.190 -1.5210  0.4772 -1.9588
12159TIP3    H257969   3.515   1.806  15.136 -1.6270  1.8803  1.1842
12160TIP3   OH257970   0.626   5.281  12.901  0.5179 -0.5925  0.5125
12160TIP3    H157971   0.717   5.253  12.889  0.5141 -0.7082  0.7515
12160TIP3    H257972   0.601   5.318  12.817  1.0247  0.1148  0.6729
12161TIP3   OH257973   5.033   5.606   4.427  0.1560 -0.1337  0.3731
12161TIP3    H157974   5.110   5.562   4.391  1.1555  0.4600  1.7353
12161TIP3    H257975   5.037   5.694   4.390 -0.3484 -0.3501 -0.2141
12162TIP3   OH257976   2.018   0.908   5.004  0.3041 -0.0460 -0.4485
12162TIP3    H157977   2.029   1.002   4.990  0.3666 -0.0724 -0.5751
12162TIP3    H257978   1.968   0.902   5.085 -0.1842  0.1103 -0.7355
12163TIP3   OH257979   4.133   2.903   0.965 -0.5817  0.6714  0.3933
12163TIP3    H157980   4.206   2.928   0.908  0.4059 -1.5034  0.6476
12163TIP3    H257981   4.077   2.850   0.909  0.3099 -1.3411  1.3504
12164TIP3   OH257982   4.715   0.278  13.395  0.5745 -0.2234 -0.1989
12164TIP3    H157983   4.809   0.292  13.386  0.6605 -0.4337  0.3505
12164TIP3    H257984   4.692   0.317  13.479  0.2725 -0.6719 -0.0705
12165TIP3   OH257985   5.857   3.183  10.943  0.6663  0.6031 -0.2779
12165TIP3    H157986   5.763   3.166  10.948  0.3361  2.0967 -1.2389
12165TIP3    H257987   5.889   3.123  10.876  0.2429  0.7342 -0.5989
12166TIP3   OH257988   0.721   0.075  14.375 -0.5041 -0.0008 -0.0490
12166TIP3    H157989   0.701   0.063  14.468 -3.0648  3.2067 -0.0985
12166TIP3    H257990   0.641   0.048  14.330 -1.0297  2.9091 -0.9740
12167TIP3   OH257991   2.008   5.847   1.106 -0.5262  0.1560 -0.0338
12167TIP3    H157992   2.009   5.799   1.188 -1.1042  2.0143  1.0762
12167TIP3    H257993   1.970   5.785   1.043  0.6772 -1.5554  0.8863
12168TIP3   OH257994   2.407   2.386  16.946  0.0522 -0.1623  0.2569
12168TIP3    H157995   2.452   2.469  16.933  0.0410  0.1170  1.9911
12168TIP3    H257996   2.424   2.337  16.865  1.7940  0.7004  0.0913
12169TIP3   OH257997   6.039   5.307   3.941  0.2903 -0.4091  0.3842
12169TIP3    H157998   6.034   5.227   3.994  0.3069 -1.4763 -1.2131
12169TIP3    H257999   5.948   5.329   3.922  0.3255 -0.6619 -0.0838
12170TIP3   OH258000   0.684   1.236   5.261  0.2672 -0.1112 -0.1779
12170TIP3    H158001   0.653   1.146   5.260  0.5244 -0.1906 -1.6348
12170TIP3    H258002   0.708   1.255   5.170 -1.0503  1.8744 -0.1412
12171TIP3   OH258003   4.109   6.411   6.777  0.0713  1.1417  0.1704
12171TIP3    H158004   4.047   6.461   6.723 -0.0480  1.7453  0.8539
12171TIP3    H258005   4.069   6.410   6.864 -0.2102 -0.6669  0.0390
12172TIP3   OH258006   2.100   4.019  13.251  0.3510 -0.1580  0.6242
12172TIP3    H158007   2.099   4.113  13.238 -0.3476 -0.3296 -0.7268
12172TIP3    H258008   2.178   4.002  13.303 -0.1832  1.2887  1.9416
12173TIP3   OH258009   5.286   4.512   0.721  0.4375 -0.5574  0.1879
12173TIP3    H158010   5.282   4.590   0.777 -0.7014 -0.6694  0.2795
12173TIP3    H258011   5.286   4.547   0.631  1.5984 -0.3989  0.2508
12174TIP3   OH258012   6.271   0.741   5.985 -0.2762  0.7970 -0.3255
12174TIP3    H158013   6.256   0.803   5.914  0.4668 -0.5039 -1.6452
12174TIP3    H258014   6.183   0.717   6.015 -0.6667 -0.3084 -2.2989
12175TIP3   OH258015   1.030   4.609  11.926  0.1175 -0.0518  0.5286
12175TIP3    H158016   1.114   4.652  11.940  0.8153 -2.0641  3.0275
12175TIP3    H258017   1.052   4.520  11.899 -1.2290 -0.2740  0.0853
12176TIP3   OH258018   2.805   2.732   5.770 -0.0794 -0.3054  0.2054
12176TIP3    H158019   2.768   2.810   5.811  0.6900  0.4047 -0.4412
12176TIP3    H258020   2.735   2.700   5.713  0.2170  0.9342 -0.8814
12177TIP3   OH258021   0.072   0.296   3.888  0.1440  0.1717 -0.1590
12177TIP3    H158022  -0.009   0.327   3.929 -0.0173 -0.6512  0.1658
12177TIP3    H258023   0.079   0.204   3.916  2.5197  0.9196  1.9425
12178TIP3   OH258024   2.963   2.095   5.548  0.0533  0.4014 -0.3333
12178TIP3    H158025   2.943   2.122   5.458  0.4989 -1.6456 -1.0875
12178TIP3    H258026   2.891   2.038   5.572  1.4688 -1.5560 -0.5712
12179TIP3   OH258027   1.656   1.741  13.808 -0.2621 -0.4980 -0.1485
12179TIP3    H158028   1.721   1.695  13.753 -0.4650  0.0403 -0.8520
12179TIP3    H258029   1.705   1.814  13.846  0.1647 -1.5024  1.2910
12180TIP3   OH258030   1.858   3.036   0.639 -0.4071 -0.4203  0.0030
12180TIP3    H158031   1.881   3.055   0.730  2.1805  0.4691 -0.7900
12180TIP3    H258032   1.912   2.960   0.616 -1.2849 -0.8434 -0.6886
12181TIP3   OH258033   0.395   6.395  13.457  0.0549 -0.6411  0.3276
12181TIP3    H158034   0.476   6.399  13.508 -0.7621 -0.3770  1.6339
12181TIP3    H258035   0.328   6.426  13.517 -1.0229 -0.8611 -0.7486
12182TIP3   OH258036   3.927   2.864   2.004 -0.0454  0.5765  0.0432
12182TIP3    H158037   3.919   2.818   1.920 -2.1739  0.8544  0.0496
12182TIP3    H258038   3.891   2.802   2.068  0.4578  0.8334  0.5676
12183TIP3   OH258039   6.390   4.654  15.085 -0.0117 -0.4199  0.5076
12183TIP3    H158040   6.363   4.700  15.164  0.8668 -1.7459  1.5957
12183TIP3    H258041   6.417   4.567  15.115 -0.2465 -1.1512 -1.3220
12184TIP3   OH258042   5.437   2.613  16.233 -0.3610 -0.3159 -0.1182
12184TIP3    H158043   5.382   2.596  16.157  0.5548  0.6385 -1.0071
12184TIP3    H258044   5.521   2.643  16.197 -0.7342  2.6202  1.2751
12185TIP3   OH258045   3.025   4.450   4.096  0.2817 -0.0540  0.3719
12185TIP3    H158046   3.073   4.528   4.068  1.2060 -0.7453  0.0037
12185TIP3    H258047   2.934   4.479   4.105  0.0741  0.3830 -2.6497
12186TIP3   OH258048   1.873   5.974  13.458 -0.0490 -0.0385 -0.4309
12186TIP3    H158049   1.789   6.016  13.438 -0.6957 -1.0250  0.1319
12186TIP3    H258050   1.934   6.010  13.394 -0.9486  0.5520 -0.9715
12187TIP3   OH258051   3.038   4.226   1.355 -0.7647 -0.5913  0.0416
12187TIP3    H158052   3.013   4.135   1.339 -0.8618 -0.3631 -1.1514
12187TIP3    H258053   2.989   4.276   1.289 -0.6877  0.3254  0.6675
12188TIP3   OH258054   3.762   0.519   6.438 -0.5213 -0.1060 -0.2673
12188TIP3    H158055   3.700   0.577   6.482 -1.2339 -0.6370 -0.5651
12188TIP3    H258056   3.709   0.446   6.406  0.3117 -0.7413 -0.2265
12189TIP3   OH258057   4.090   3.803  11.760  0.0894 -0.6627 -0.1669
12189TIP3    H158058   3.997   3.798  11.738 -0.1854 -1.0274  1.0474
12189TIP3    H258059   4.106   3.896  11.776  0.3561 -0.3524 -2.1099
12190TIP3   OH258060   2.858   5.687   0.193  0.4783  0.0998  0.3825
12190TIP3    H158061   2.809   5.725   0.267 -2.1086 -0.3636 -1.0445
12190TIP3    H258062   2.819   5.601   0.181  3.1798 -1.1870  0.5908
12191TIP3   OH258063   5.238   2.204  12.347  0.0340  0.2612  0.3823
12191TIP3    H158064   5.173   2.274  12.350  0.1805  0.4307 -0.2719
12191TIP3    H258065   5.195   2.133  12.299  0.5454  0.6103 -0.6189
12192TIP3   OH258066   6.562   6.719   0.132 -0.3848 -0.7485  0.8223
12192TIP3    H158067   6.587   6.650   0.192  0.2412  0.9459  2.5628
12192TIP3    H258068   6.475   6.747   0.162  0.7560  1.4471  2.2564
12193TIP3   OH258069   2.181   2.602  12.675  0.3436 -0.0028 -0.2382
12193TIP3    H158070   2.170   2.527  12.734 -1.4254  1.3143  1.1584
12193TIP3    H258071   2.267   2.637  12.698 -0.2935  0.4649  1.5682
12194TIP3   OH258072   2.111   0.272   1.650  0.5674 -0.4808  0.1315
12194TIP3    H158073   2.041   0.208   1.664  2.6064 -2.1440  3.0320
12194TIP3    H258074   2.074   0.355   1.679 -0.8766 -0.9587 -0.3026
12195TIP3   OH258075   0.026   6.367  13.608  0.0639  0.1438 -0.5070
12195TIP3    H158076   0.032   6.459  13.583 -1.9867  0.3444 -0.3889
12195TIP3    H258077   0.098   6.353  13.669  0.0088  1.8579 -0.0326
12196TIP3   OH258078   2.253   0.722   5.111  0.7459 -0.1682 -0.2513
12196TIP3    H158079   2.273   0.806   5.152 -0.7416 -0.2377  0.6756
12196TIP3    H258080   2.184   0.743   5.047 -0.0522 -0.7677  0.4038
12197TIP3   OH258081   2.395   6.133  12.463 -0.0526  0.8193  0.3742
12197TIP3    H158082   2.306   6.097  12.457  0.1683  0.0242  1.8083
12197TIP3    H258083   2.400   6.194  12.389 -2.1861  1.7203  0.9159
12198TIP3   OH258084   3.540   6.474   5.819  0.0588 -0.2397  0.1881
12198TIP3    H158085   3.447   6.460   5.803  0.0959 -0.7715  0.4113
12198TIP3    H258086   3.584   6.411   5.763  0.2628 -0.4165  0.5427
12199TIP3   OH258087   6.478   4.606   3.057  0.3171 -0.2418  0.6090
12199TIP3    H158088   6.459   4.531   3.113  2.4750 -0.7620  0.6808
12199TIP3    H258089   6.514   4.672   3.117 -0.3640  0.3867  0.3378
12200TIP3   OH258090   5.048   1.316  11.516 -0.0459  0.7122  0.3230
12200TIP3    H158091   5.066   1.400  11.557 -0.5652  2.4287 -2.8551
12200TIP3    H258092   4.976   1.333  11.456  0.8101 -1.6659 -1.4558
12201TIP3   OH258093   5.896   5.985  14.598  0.2113  0.2491  0.3269
12201TIP3    H158094   5.981   6.022  14.619  0.1993 -0.3585  1.5069
12201TIP3    H258095   5.911   5.891  14.590 -0.6588 -0.0938  2.3671
12202TIP3   OH258096   1.921   3.940  12.519 -0.0910 -0.3827 -0.2070
12202TIP3    H158097   1.972   3.921  12.598  0.7560 -0.0145 -0.6622
12202TIP3    H258098   1.831   3.946  12.550 -0.2052 -3.5623  0.2331
12203TIP3   OH258099   5.062   5.945   3.341  0.1903 -0.6403  0.3844
12203TIP3    H158100   4.978   5.949   3.387 -0.1344  0.1874 -0.2468
12203TIP3    H258101   5.120   6.000   3.394  0.3958 -1.3728  0.9297
12204TIP3   OH258102   0.673   2.684   5.865 -0.1373  0.3970  0.5806
12204TIP3    H158103   0.707   2.720   5.947 -0.3688  0.1849  0.7698
12204TIP3    H258104   0.734   2.716   5.798 -0.5079  1.3826  0.7110
12205TIP3   OH258105   3.085   0.568  11.598  0.4209 -0.4166  0.1714
12205TIP3    H158106   3.098   0.574  11.693 -1.9615  1.2287  0.4360
12205TIP3    H258107   3.160   0.518  11.567  0.4222 -2.3758  3.1246
12206TIP3   OH258108   6.702   6.572   5.469  0.0003  0.2277 -0.4474
12206TIP3    H158109   6.630   6.517   5.439  1.2869 -0.7363 -1.8618
12206TIP3    H258110   6.723   6.627   5.393  3.7538 -2.7215 -1.7070
12207TIP3   OH258111   1.495   3.504  16.470  0.2630 -0.7225  0.6692
12207TIP3    H158112   1.482   3.411  16.454  2.2895 -0.8942 -0.1096
12207TIP3    H258113   1.548   3.534  16.396 -1.6051  1.3850  0.1259
12208TIP3   OH258114   0.106   0.937   2.523  0.0697 -1.0320 -0.1382
12208TIP3    H158115   0.111   0.997   2.597 -0.3260 -0.7372 -0.3494
12208TIP3    H258116   0.163   0.976   2.457  2.2045 -2.4390  0.7993
12209TIP3   OH258117   4.314   2.530   2.641 -0.4206 -0.2715  0.0026
12209TIP3    H158118   4.249   2.512   2.708 -3.3080  0.6512 -2.4567
12209TIP3    H258119   4.344   2.444   2.611  1.5215 -0.6951  2.9538
12210TIP3   OH258120   4.935   2.525  11.379 -0.0858 -0.0595  0.2583
12210TIP3    H158121   4.998   2.497  11.313  0.3595 -0.3129  0.7846
12210TIP3    H258122   4.988   2.568  11.446 -0.6271  0.9645  0.0481
12211TIP3   OH258123   1.451   6.510  14.612 -0.8733  0.2059 -0.6395
12211TIP3    H158124   1.538   6.547  14.623 -0.7338 -0.1009 -0.7024
12211TIP3    H258125   1.393   6.569  14.661 -0.9131  1.5818 -2.2846
12212TIP3   OH258126   5.553   0.064   4.495 -0.1530 -0.1710 -0.5294
12212TIP3    H158127   5.607   0.125   4.445 -0.3518 -0.5399 -1.2026
12212TIP3    H258128   5.491   0.120   4.543  1.3264  0.3090  0.8849
12213TIP3   OH258129   1.002   4.226   6.075 -0.0981 -0.0501 -0.2958
12213TIP3    H158130   1.084   4.275   6.076  0.7826 -1.4961  1.2833
12213TIP3    H258131   1.011   4.166   6.001 -0.0052  0.2366 -0.5180
12214TIP3   OH258132   1.798   3.470  16.745 -0.5675  0.4589  0.9388
12214TIP3    H158133   1.728   3.533  16.759  0.3100  2.1506 -1.9157
12214TIP3    H258134   1.754   3.385  16.743 -2.2315  1.2922  1.1826
12215TIP3   OH258135   6.393   3.773  16.550 -0.6926  0.2503  0.0332
12215TIP3    H158136   6.455   3.711  16.589 -3.1623 -0.5893  2.7925
12215TIP3    H258137   6.428   3.859  16.572 -0.3390 -0.2055  1.3119
12216TIP3   OH258138   5.642   0.429   2.301 -0.0588  0.2573  0.3129
12216TIP3    H158139   5.634   0.387   2.216 -0.4847 -2.6551  1.7472
12216TIP3    H258140   5.736   0.429   2.320 -0.2004 -1.7113  1.0943
12217TIP3   OH258141   2.740   5.167   0.704  0.4608 -0.2027  0.0155
12217TIP3    H158142   2.696   5.082   0.695  1.3908 -0.5799 -1.1769
12217TIP3    H258143   2.793   5.158   0.783 -0.5253 -0.2289  0.6854
12218TIP3   OH258144   5.755   5.926  10.753  0.1753  0.3493 -0.6484
12218TIP3    H158145   5.686   5.984  10.786  0.6607  1.1085 -0.9540
12218TIP3    H258146   5.754   5.851  10.813 -0.0147  0.9816  0.1538
12219TIP3   OH258147   5.658   6.012  15.607  0.3329  0.0325  0.3565
12219TIP3    H158148   5.681   6.062  15.685 -0.5660  1.7547 -0.4444
12219TIP3    H258149   5.682   6.069  15.534 -0.0606 -1.0028 -0.5985
12220TIP3   OH258150   5.938   5.251   0.443 -0.1938  0.1175 -0.1722
12220TIP3    H158151   5.881   5.306   0.495 -0.2706 -2.9346  3.1323
12220TIP3    H258152   6.005   5.311   0.409 -2.2657  2.7813  0.3201
12221TIP3   OH258153   1.789   0.933   4.794 -0.1313  0.1399 -0.2373
12221TIP3    H158154   1.728   0.873   4.751  1.0263 -1.1469 -0.1387
12221TIP3    H258155   1.875   0.892   4.782  0.1846 -0.6413  3.8650
12222TIP3   OH258156   6.223   4.627  16.039 -0.0551  0.7260  0.0071
12222TIP3    H158157   6.151   4.671  16.084 -0.2498  1.9239 -1.4442
12222TIP3    H258158   6.294   4.692  16.036  0.5464  0.0848  0.0565
12223TIP3   OH258159   1.681   2.341   0.843  0.0418 -0.2471  0.2714
12223TIP3    H158160   1.737   2.263   0.834 -1.3838 -1.1372 -1.1658
12223TIP3    H258161   1.612   2.314   0.903 -2.1254 -1.1208 -2.5065
12224TIP3   OH258162   3.517   0.292  16.764  0.4988  0.2240  0.2456
12224TIP3    H158163   3.493   0.310  16.673  1.2285  1.7168  0.3470
12224TIP3    H258164   3.484   0.367  16.813 -1.1556 -1.2405  1.4433
12225TIP3   OH258165   6.254   3.101   5.473  0.7043  0.1388  0.0223
12225TIP3    H158166   6.329   3.159   5.463  0.6657  0.0947 -0.5460
12225TIP3    H258167   6.208   3.134   5.551  0.6131  0.9474 -0.3702
12226TIP3   OH258168   5.165   0.696  15.042 -0.3005 -0.1731 -0.3146
12226TIP3    H158169   5.254   0.682  15.009 -0.3259  1.2606 -1.0490
12226TIP3    H258170   5.177   0.719  15.134 -0.3457 -6.1916  1.4326
12227TIP3   OH258171   2.896   0.526   1.841 -0.1238 -0.0267  0.4764
12227TIP3    H158172   2.959   0.596   1.829 -1.6052  1.0954 -0.9492
12227TIP3    H258173   2.939   0.464   1.901  2.5378  0.3862 -0.9638
12228TIP3   OH258174   5.790   5.035  13.147  0.4356  0.5698 -0.0742
12228TIP3    H158175   5.806   5.101  13.215  0.0018  0.9833 -0.3733
12228TIP3    H258176   5.863   5.046  13.086 -0.5656  1.9781 -1.0583
12229TIP3   OH258177   4.222   0.615   1.144 -0.3135  0.0105 -0.3798
12229TIP3    H158178   4.203   0.706   1.167 -2.7506 -0.7151  0.6239
12229TIP3    H258179   4.278   0.622   1.066 -0.4239  2.3524 -0.3064
12230TIP3   OH258180   4.969   5.213   2.495 -0.4588 -0.3293  0.4385
12230TIP3    H158181   5.020   5.248   2.422  0.7640 -0.0429  1.4240
12230TIP3    H258182   4.996   5.265   2.571 -1.9881 -0.3750  1.0404
12231TIP3   OH258183   1.270   1.806  12.197  0.2781 -0.2389 -0.2904
12231TIP3    H158184   1.260   1.748  12.273 -0.4808  1.3970  0.8972
12231TIP3    H258185   1.362   1.830  12.197  0.0562  0.6875  0.8497
12232TIP3   OH258186   2.886   4.784  12.379 -0.0182 -0.3206 -0.1557
12232TIP3    H158187   2.952   4.715  12.389  1.2037  0.9052  0.3091
12232TIP3    H258188   2.808   4.738  12.348  0.0371 -2.2680  2.5117
12233TIP3   OH258189   5.189   3.078   2.480 -0.2551  0.2406  0.8121
12233TIP3    H158190   5.105   3.040   2.506 -0.1724 -0.2249  0.4088
12233TIP3    H258191   5.253   3.009   2.499 -0.1403  0.0725 -0.1860
12234TIP3   OH258192   2.009   6.216   0.243 -0.1839 -0.6162 -0.0091
12234TIP3    H158193   2.004   6.194   0.336 -0.8207  0.1609  0.1474
12234TIP3    H258194   2.053   6.301   0.241  0.5887 -1.0181 -0.4822
12235TIP3   OH258195   3.295   3.000   2.668 -0.0135  0.6713 -0.2711
12235TIP3    H158196   3.355   2.925   2.665 -0.1579  0.5714 -0.6414
12235TIP3    H258197   3.247   2.996   2.586 -0.2043  1.0226 -0.1781
12236TIP3   OH258198   1.911   0.112   0.526 -0.1236  0.0424  0.0483
12236TIP3    H158199   1.897   0.086   0.617  3.5854  0.7548  0.8866
12236TIP3    H258200   1.872   0.199   0.519 -2.8132 -1.1040  0.1684
12237TIP3   OH258201   3.447   6.485  16.433 -0.6524 -0.2663  0.0747
12237TIP3    H158202   3.390   6.411  16.410 -0.9881 -0.5698  1.8515
12237TIP3    H258203   3.388   6.561  16.435 -1.0763 -0.6302  2.2110
12238TIP3   OH258204   5.034   4.741  11.802 -0.2522 -0.6346 -0.1153
12238TIP3    H158205   4.976   4.751  11.726  0.8370 -0.5091 -0.9331
12238TIP3    H258206   5.075   4.827  11.812 -0.1508 -0.7448  0.4185
12239TIP3   OH258207   3.091   0.981  16.226  0.1770 -0.1467  0.2064
12239TIP3    H158208   3.171   0.930  16.216  0.5855  0.4270  0.5159
12239TIP3    H258209   3.121   1.069  16.246 -0.5386  0.0317  0.5194
12240TIP3   OH258210   1.748   2.323  11.788 -0.2276 -0.1059 -0.8266
12240TIP3    H158211   1.805   2.302  11.862 -1.7188  0.1702  0.4110
12240TIP3    H258212   1.719   2.413  11.805  1.5792  0.9909 -3.1607
12241TIP3   OH258213   3.193   6.073  14.062  0.3997  0.5614 -0.2067
12241TIP3    H158214   3.111   6.043  14.021  0.9569 -2.3375  0.6560
12241TIP3    H258215   3.261   6.026  14.014  1.3563  0.5749  1.1400
12242TIP3   OH258216   0.636   2.975  14.737 -0.7778  0.2939 -0.5891
12242TIP3    H158217   0.619   3.066  14.712 -1.3653  0.3595  0.0318
12242TIP3    H258218   0.569   2.924  14.689 -0.6417  0.2202 -0.7017
12243TIP3   OH258219   4.282   4.035  14.475 -0.0026 -0.1802 -0.7415
12243TIP3    H158220   4.232   4.092  14.534 -0.5058 -1.3746 -0.0018
12243TIP3    H258221   4.373   4.057  14.492 -0.1855  0.2815 -0.3439
12244TIP3   OH258222   0.523   3.919   5.282 -0.1478  0.2225  0.6218
12244TIP3    H158223   0.464   3.896   5.355 -1.5969  0.1231 -0.5523
12244TIP3    H258224   0.560   3.836   5.254 -0.5391  0.1057  0.4496
12245TIP3   OH258225   5.775   2.452   3.371 -0.3109 -0.2819  0.2670
12245TIP3    H158226   5.802   2.369   3.330  1.2955  0.2027  0.2952
12245TIP3    H258227   5.706   2.486   3.315 -1.4432 -1.9581  0.6065
12246TIP3   OH258228   1.427   6.107   6.492 -0.3369 -0.0559 -0.0880
12246TIP3    H158229   1.462   6.194   6.476 -1.2406 -0.1364 -2.6698
12246TIP3    H258230   1.488   6.068   6.556  2.5527  0.9122 -2.1558
12247TIP3   OH258231   0.693   4.744   0.441 -0.1121  0.1423 -0.2015
12247TIP3    H158232   0.637   4.768   0.367  1.7193 -1.4246 -2.1591
12247TIP3    H258233   0.766   4.804   0.436 -0.7406  1.0547  1.3120
12248TIP3   OH258234   2.032   2.425  15.208 -0.1710  0.3042 -0.4433
12248TIP3    H158235   2.038   2.474  15.126  3.9532 -1.0217 -1.0187
12248TIP3    H258236   1.957   2.367  15.195  1.5561 -1.2829 -4.1208
12249TIP3   OH258237   0.034   5.405   2.999 -0.5942  0.4829 -0.0040
12249TIP3    H158238   0.005   5.334   3.057  0.1879 -0.6814 -1.0095
12249TIP3    H258239   0.012   5.485   3.046 -1.0159 -0.4339  1.3905
12250TIP3   OH258240   6.318   1.684  14.637  0.5112 -0.7394  0.0168
12250TIP3    H158241   6.337   1.760  14.692 -3.3037 -0.3599  0.9796
12250TIP3    H258242   6.338   1.609  14.693 -0.8437 -0.3733  1.0231
12251TIP3   OH258243   2.017   2.798   0.668  0.6003  0.4939  0.4607
12251TIP3    H158244   2.001   2.752   0.750  1.1572  0.3745  0.5020
12251TIP3    H258245   2.072   2.738   0.617 -1.3269 -0.2955 -0.7825
12252TIP3   OH258246   4.206   6.333  15.224  0.0598  0.3055  0.2036
12252TIP3    H158247   4.181   6.367  15.138 -2.1161 -0.1814  0.6113
12252TIP3    H258248   4.171   6.244  15.226 -0.9696  0.7164  2.0284
12253TIP3   OH258249   3.462   5.468  12.636  0.2559  0.6846 -0.3577
12253TIP3    H158250   3.458   5.396  12.573  0.6090 -0.2662  0.6976
12253TIP3    H258251   3.377   5.465  12.681  0.2187  1.0200 -0.4011
12254TIP3   OH258252   4.109   4.332  15.463  0.0223 -0.2581 -0.2371
12254TIP3    H158253   4.146   4.306  15.379  0.1078 -1.6104  0.2183
12254TIP3    H258254   4.019   4.298  15.462 -0.7806  1.7825 -0.7566
12255TIP3   OH258255   2.580   0.727   6.739  0.3033 -0.2750 -0.4833
12255TIP3    H158256   2.667   0.688   6.743  0.4898 -0.1560 -2.8561
12255TIP3    H258257   2.570   0.770   6.824  2.5345 -0.3216 -0.1549
12256TIP3   OH258258   4.878   5.912  10.954  0.0822  0.6039  0.6562
12256TIP3    H158259   4.787   5.905  10.925  0.0001  2.8562  0.3265
12256TIP3    H258260   4.924   5.843  10.905 -0.7654  1.8999 -2.0337
12257TIP3   OH258261   6.536   3.778   3.101  0.1391 -0.5739  0.0141
12257TIP3    H158262   6.471   3.836   3.141 -0.8081  0.2666 -2.6314
12257TIP3    H258263   6.503   3.690   3.116 -0.9568 -0.2083 -0.2320
12258TIP3   OH258264   5.246   1.972   6.180 -0.3603 -0.2778  0.7362
12258TIP3    H158265   5.277   2.061   6.163 -0.9086 -0.2067  0.0935
12258TIP3    H258266   5.284   1.950   6.265  0.6972  0.1475  0.3858
12259TIP3   OH258267   2.638   2.245  13.135 -0.0381 -0.2129  0.3868
12259TIP3    H158268   2.733   2.250  13.139  0.0324 -2.2195  2.3389
12259TIP3    H258269   2.607   2.313  13.196  0.1247  0.2760 -0.0684
12260TIP3   OH258270   6.210   6.029   3.762 -0.1709 -0.0010 -0.2877
12260TIP3    H158271   6.187   5.979   3.840 -1.0415 -0.7338 -0.9997
12260TIP3    H258272   6.287   5.984   3.726 -0.1610 -0.0502 -0.2039
12261TIP3   OH258273   1.257   6.625  13.315  0.1046  0.0856 -0.0304
12261TIP3    H158274   1.302   6.676  13.382 -1.9675  1.7259  0.1364
12261TIP3    H258275   1.239   6.541  13.357 -2.9141  1.7530  2.2299
12262TIP3   OH258276   0.233   1.128  11.169 -0.7303  0.0054 -0.6081
12262TIP3    H158277   0.311   1.171  11.132 -0.8635 -0.5662 -1.5894
12262TIP3    H258278   0.182   1.103  11.092 -0.0056 -3.1296 -0.1420
12263TIP3   OH258279   6.298   3.120   2.707  0.4969  0.2873  0.5774
12263TIP3    H158280   6.235   3.182   2.743 -0.5476 -0.2818 -0.2372
12263TIP3    H258281   6.244   3.052   2.665  1.6433  1.7776 -3.5592
12264TIP3   OH258282   4.927   4.649  16.260 -0.1414  0.5467 -0.4952
12264TIP3    H158283   4.844   4.622  16.220  0.2939  0.5833 -1.4335
12264TIP3    H258284   4.914   4.741  16.283 -1.5377 -0.3145  2.4566
12265TIP3   OH258285   5.043   0.021  11.911  0.4165 -0.6196 -0.1409
12265TIP3    H158286   4.960   0.053  11.945 -0.7705 -1.9595 -1.7120
12265TIP3    H258287   5.108   0.048  11.976 -1.1265  1.1176  0.7133
12266TIP3   OH258288   0.276   3.344  14.161 -0.9666 -0.0275  0.0211
12266TIP3    H158289   0.292   3.424  14.212  1.2982  0.1472 -0.8794
12266TIP3    H258290   0.298   3.273  14.221 -3.4312 -0.0159  0.9749
12267TIP3   OH258291   0.519   2.927   5.758 -0.1850  0.4491  0.2235
12267TIP3    H158292   0.562   2.896   5.837  1.0373  1.2191 -0.1235
12267TIP3    H258293   0.519   3.022   5.765 -0.5433  0.5085 -0.4583
12268TIP3   OH258294   2.150   2.955  13.743  1.2156 -0.0120  0.0652
12268TIP3    H158295   2.061   2.957  13.707  2.2149  2.3890 -2.4786
12268TIP3    H258296   2.141   2.992  13.831 -0.1292  1.3798 -0.6360
12269TIP3   OH258297   2.251   3.408  15.821  0.2315 -0.2525 -0.6191
12269TIP3    H158298   2.160   3.419  15.849  0.2716  0.5644 -0.8130
12269TIP3    H258299   2.273   3.318  15.846 -1.2357 -1.1001 -2.3197
12270TIP3   OH258300   6.286   0.535  11.560 -0.4254  0.5399  0.4962
12270TIP3    H158301   6.351   0.490  11.614  0.4577  2.0479  0.7212
12270TIP3    H258302   6.333   0.609  11.523 -2.1571  1.9553  1.0631
12271TIP3   OH258303   1.750   2.015  11.443 -0.1796  0.1431  0.0428
12271TIP3    H158304   1.808   2.072  11.392 -1.2984  0.2390 -1.1513
12271TIP3    H258305   1.807   1.945  11.474  1.0104  1.3837  0.6955
12272TIP3   OH258306   4.700   1.149  14.994  0.9075  0.2514  0.1853
12272TIP3    H158307   4.709   1.078  15.058 -0.9836  1.4483  1.8255
12272TIP3    H258308   4.643   1.112  14.926 -0.9108  0.4749  1.5351
12273TIP3   OH258309   0.613   1.728  16.592  0.3541  0.2668  0.3420
12273TIP3    H158310   0.612   1.822  16.576 -1.0527  0.1297 -0.4850
12273TIP3    H258311   0.587   1.719  16.684  1.0012  0.7059  0.5726
12274TIP3   OH258312   1.321   2.333   6.016 -0.0609  0.1838 -0.1994
12274TIP3    H158313   1.288   2.342   6.105 -1.4283 -0.7526 -0.6050
12274TIP3    H258314   1.283   2.252   5.984  3.3740 -1.4385 -0.3829
12275TIP3   OH258315   4.786   5.118  14.370 -0.1679  0.5534 -0.3523
12275TIP3    H158316   4.753   5.112  14.281  0.2999 -1.2179 -0.4269
12275TIP3    H258317   4.878   5.091  14.364 -0.3715 -0.4719  0.7870
12276TIP3   OH258318   4.863   5.071   2.025  0.1629 -0.1495  0.3788
12276TIP3    H158319   4.828   5.156   1.999  0.2126 -0.5001 -0.8788
12276TIP3    H258320   4.808   5.044   2.099  1.0425  1.6024  1.7291
12277TIP3   OH258321   6.225   4.714   1.298  0.0764  0.4964  0.2633
12277TIP3    H158322   6.249   4.677   1.213  0.3921  1.8802 -0.2646
12277TIP3    H258323   6.170   4.647   1.339  0.2239 -0.3315 -0.8824
12278TIP3   OH258324   3.181   3.179  15.879  0.2843 -0.1973 -0.1765
12278TIP3    H158325   3.241   3.246  15.847 -0.0552 -0.2167 -0.8661
12278TIP3    H258326   3.126   3.224  15.942 -0.4970  0.3794 -1.2654
12279TIP3   OH258327   6.811   1.230   2.177 -0.5322  0.0727 -0.0791
12279TIP3    H158328   6.722   1.260   2.159 -1.2681 -1.7009  0.4405
12279TIP3    H258329   6.819   1.235   2.272 -1.0946 -2.4155  0.1366
12280TIP3   OH258330   3.358   4.525  16.800  0.2665 -0.1360  0.3741
12280TIP3    H158331   3.315   4.496  16.719  0.4941 -0.8920  0.5208
12280TIP3    H258332   3.344   4.620  16.802 -0.8466 -0.2918  0.0959
12281TIP3   OH258333   2.584   5.073   1.866  0.6225 -0.4078  0.4209
12281TIP3    H158334   2.570   5.067   1.961  0.6476 -1.2621  0.3712
12281TIP3    H258335   2.523   5.140   1.837  0.6194 -0.1386  1.0465
12282TIP3   OH258336   1.920   6.570  16.834  0.0289 -0.3616  0.5260
12282TIP3    H158337   1.895   6.633  16.767  1.2527  0.8989  1.2277
12282TIP3    H258338   1.840   6.519  16.850 -0.3277 -0.5781 -1.7353
12283TIP3   OH258339   4.150   3.416  12.724  0.7602 -0.3111 -0.3395
12283TIP3    H158340   4.189   3.346  12.672  1.0155 -0.2849 -0.1895
12283TIP3    H258341   4.083   3.454  12.668  1.5155  0.1770 -0.9121
12284TIP3   OH258342   4.544   2.898   5.940  0.0048  0.2534 -0.0226
12284TIP3    H158343   4.582   2.826   5.990 -0.9877  0.3494  0.8923
12284TIP3    H258344   4.480   2.938   6.000  0.2205  1.6084 -0.6671
12285TIP3   OH258345   0.489   2.318  13.982  0.3842  0.1564 -0.5983
12285TIP3    H158346   0.567   2.293  14.032 -0.9342 -0.3212  1.2764
12285TIP3    H258347   0.441   2.236  13.970  0.4659  0.3454 -2.3027
12286TIP3   OH258348   5.600   5.499  16.528  0.0651 -0.5366  0.1613
12286TIP3    H158349   5.596   5.426  16.467  2.2077 -0.3666 -0.2364
12286TIP3    H258350   5.690   5.497  16.562  0.1225  1.8196  0.2393
12287TIP3   OH258351   5.640   5.301  13.502  0.7655 -0.5774  0.3033
12287TIP3    H158352   5.635   5.331  13.593  0.3531  0.1347  0.0512
12287TIP3    H258353   5.619   5.379  13.450  0.3752 -1.1399 -0.3912
12288TIP3   OH258354   6.460   3.851  11.663  0.3139 -0.1559  0.3104
12288TIP3    H158355   6.383   3.883  11.617  1.3129  0.7077 -0.8316
12288TIP3    H258356   6.462   3.757  11.646  1.0544  0.2573 -2.0723
12289TIP3   OH258357   3.531   1.624   6.130  0.4369 -0.4801 -0.5394
12289TIP3    H158358   3.503   1.630   6.221 -1.0906 -1.4684 -0.9302
12289TIP3    H258359   3.450   1.624   6.080  1.1586 -2.6222 -1.7613
12290TIP3   OH258360   2.808   0.764   2.431  0.0755 -0.4979 -0.0723
12290TIP3    H158361   2.774   0.686   2.476 -0.1550 -0.7705 -0.7157
12290TIP3    H258362   2.747   0.834   2.455  0.8940 -0.2721  1.3824
12291TIP3   OH258363   3.306   6.547  15.856  0.0689 -0.3171  0.0336
12291TIP3    H158364   3.336   6.604  15.785  0.8244 -1.3578 -0.5017
12291TIP3    H258365   3.212   6.538  15.842 -0.2635  1.7887  0.8444
12292TIP3   OH258366   4.113   6.141  14.406  0.3271 -0.6953  0.3136
12292TIP3    H158367   4.148   6.157  14.319 -0.5829 -2.1347 -0.3263
12292TIP3    H258368   4.186   6.104  14.456  0.6184 -0.6417 -0.0734
12293TIP3   OH258369   6.521   5.006  14.459 -0.0142  0.1173 -0.1036
12293TIP3    H158370   6.449   4.950  14.429  0.6980 -0.3281 -1.0085
12293TIP3    H258371   6.586   5.000  14.389  0.3397  1.5763  0.0811
12294TIP3   OH258372   1.504   0.539  10.965 -0.4475  0.2653  0.1004
12294TIP3    H158373   1.510   0.611  10.901 -1.9745 -0.1023 -0.4924
12294TIP3    H258374   1.439   0.569  11.028 -0.9053 -0.4847 -0.0076
12295TIP3   OH258375   4.138   1.130  12.787  0.7530 -0.4102  0.0191
12295TIP3    H158376   4.211   1.147  12.847  0.9521  3.0115 -1.1104
12295TIP3    H258377   4.174   1.066  12.725  2.6966  0.9129 -0.2728
12296TIP3   OH258378   2.199   3.705   3.526 -0.3194  0.7454 -0.0817
12296TIP3    H158379   2.199   3.787   3.576 -3.3563  1.0265 -0.4740
12296TIP3    H258380   2.241   3.642   3.585  1.1265  2.3119  0.6251
12297TIP3   OH258381   6.596   1.848  12.186  0.3124 -0.3290  0.5839
12297TIP3    H158382   6.618   1.932  12.226 -0.6378  0.7252 -1.0825
12297TIP3    H258383   6.607   1.862  12.092  0.7236 -2.2507  0.3176
12298TIP3   OH258384   5.963   1.360   1.164  0.0894 -0.4304  0.9425
12298TIP3    H158385   6.018   1.434   1.138 -1.5998  0.6540  0.3333
12298TIP3    H258386   5.882   1.401   1.195 -1.1945 -2.0511 -0.2071
12299TIP3   OH258387   3.707   6.760  16.824  0.0711  0.6501  0.0391
12299TIP3    H158388   3.674   6.676  16.791 -0.7123  0.5611  1.0185
12299TIP3    H258389   3.751   6.799  16.749  0.2405 -0.5336 -0.4989
12300TIP3   OH258390   4.250   2.603   4.863  0.3322 -0.2686 -0.3722
12300TIP3    H158391   4.159   2.632   4.870  0.7918  1.8274 -2.3820
12300TIP3    H258392   4.248   2.536   4.794  0.5273  0.8864 -1.5193
12301TIP3   OH258393   5.023   3.876   5.206 -0.3196 -0.0395 -0.5686
12301TIP3    H158394   5.043   3.836   5.291  0.2142 -1.7442 -1.4756
12301TIP3    H258395   4.953   3.822   5.170 -0.3653  0.5256 -1.3309
12302TIP3   OH258396   6.354   5.028   6.186  0.1035 -0.4060  0.4659
12302TIP3    H158397   6.283   5.077   6.145  2.1203  0.3795 -2.2464
12302TIP3    H258398   6.373   5.076   6.267 -1.8799 -0.1688  0.8121
12303TIP3   OH258399   0.138   2.850  16.211 -0.3885 -0.2523  0.1583
12303TIP3    H158400   0.116   2.943  16.201  1.8626  0.1000 -2.1643
12303TIP3    H258401   0.110   2.810  16.129 -3.7405 -2.2130  2.1517
12304TIP3   OH258402   5.595   4.609  14.134  0.3849  0.3639  0.7366
12304TIP3    H158403   5.564   4.518  14.140 -0.4726  0.5931  0.0114
12304TIP3    H258404   5.671   4.605  14.077  1.0931 -0.0698  1.7060
12305TIP3   OH258405   2.449   4.730   2.777  0.1773  0.3531  0.1008
12305TIP3    H158406   2.507   4.695   2.710 -0.3609  0.2687 -0.3229
12305TIP3    H258407   2.435   4.657   2.837  2.8294  1.1807  1.8194
12306TIP3   OH258408   0.301   3.474   0.194 -0.0975 -0.4434  0.0414
12306TIP3    H158409   0.253   3.435   0.266  1.9503 -2.5861  0.3344
12306TIP3    H258410   0.260   3.438   0.115 -1.0011  0.2744  0.1718
12307TIP3   OH258411   3.900   3.193  14.498  0.4932 -0.2669 -0.8473
12307TIP3    H158412   3.965   3.129  14.469  1.2933  0.3405 -0.4307
12307TIP3    H258413   3.930   3.276  14.459  1.1158  0.4030  1.0254
12308TIP3   OH258414   3.983   1.423  14.593 -0.0150  0.0305  0.0838
12308TIP3    H158415   3.930   1.499  14.571 -0.4729  0.6328  3.0954
12308TIP3    H258416   3.920   1.354  14.613  0.4007 -0.7136 -1.0808
12309TIP3   OH258417   4.549   1.530  14.944 -0.1034  0.3783  0.7916
12309TIP3    H158418   4.487   1.566  15.007 -0.0546  1.6471  0.1415
12309TIP3    H258419   4.510   1.548  14.859  0.7810  0.5102  0.4018
12310TIP3   OH258420   2.606   0.017  15.902  0.1515 -0.1072 -0.3083
12310TIP3    H158421   2.638  -0.072  15.920  0.6491  0.3032  0.8624
12310TIP3    H258422   2.685   0.069  15.893 -0.1488  0.3420 -0.3554
12311TIP3   OH258423   2.640   4.841  12.063 -0.3132  0.3001 -0.0705
12311TIP3    H158424   2.631   4.760  12.113  0.4942 -0.7865 -1.6301
12311TIP3    H258425   2.620   4.910  12.125 -0.9523 -1.0928  1.3133
12312TIP3   OH258426   1.454   0.104  12.235  0.2374 -0.6518  0.2234
12312TIP3    H158427   1.399   0.131  12.308  1.0568 -1.3030  1.0957
12312TIP3    H258428   1.440   0.172  12.169 -1.7456 -0.9177  0.3383
12313TIP3   OH258429   5.773   3.754   1.814 -0.3813  0.0976  0.4816
12313TIP3    H158430   5.805   3.699   1.885  0.7545 -0.2360 -0.2834
12313TIP3    H258431   5.744   3.693   1.746 -2.0105  0.4038  0.8712
12314TIP3   OH258432   6.194   4.938   2.001  0.4088 -0.9299  0.3186
12314TIP3    H158433   6.144   4.877   2.055 -0.6841  1.0884  1.6324
12314TIP3    H258434   6.267   4.967   2.057 -0.5011  0.8636  0.6146
12315TIP3   OH258435   5.276   6.046   5.439 -0.0996  0.4182  0.0340
12315TIP3    H158436   5.258   5.996   5.518  0.6300  2.1416  1.3196
12315TIP3    H258437   5.329   6.120   5.468  1.0855  0.5336 -2.2266
12316TIP3   OH258438   6.443   0.084  14.980  0.2639  0.0565  0.4427
12316TIP3    H158439   6.454   0.068  15.073 -0.3262  1.5913  0.7937
12316TIP3    H258440   6.456   0.178  14.970 -1.0996  0.1389 -0.7961
12317TIP3   OH258441   0.703   2.887  11.731 -0.5076  0.0714 -0.1466
12317TIP3    H158442   0.649   2.835  11.791  0.4143  0.6811  1.2358
12317TIP3    H258443   0.766   2.824  11.696  0.0087  0.0463  0.8098
12318TIP3   OH258444   5.444   4.220  14.046  0.2223  0.3958 -0.1738
12318TIP3    H158445   5.491   4.257  14.121 -0.2126  0.4897  0.0554
12318TIP3    H258446   5.431   4.294  13.987  0.0417  0.4420 -0.0741
12319TIP3   OH258447   5.057   3.295   0.201 -0.3517 -0.4148 -0.0512
12319TIP3    H158448   5.020   3.384   0.199  0.0131 -0.2622  0.0237
12319TIP3    H258449   5.079   3.277   0.110  0.4626 -0.0561  0.0724
12320TIP3   OH258450   2.956   5.407   4.944 -0.0681  0.0129 -0.1358
12320TIP3    H158451   2.967   5.372   5.032 -3.3245  1.0245  0.7130
12320TIP3    H258452   2.922   5.334   4.893 -0.0496 -0.0241 -0.0954
12321TIP3   OH258453   1.851   3.133   4.480 -0.0981  0.1173  0.4486
12321TIP3    H158454   1.789   3.152   4.410 -0.2837  0.2543  0.6499
12321TIP3    H258455   1.822   3.049   4.515  1.2869 -1.0400 -1.0675
12322TIP3   OH258456   5.522   0.646  13.060 -0.5069 -0.8263 -0.1207
12322TIP3    H158457   5.495   0.736  13.081 -0.1851 -0.5553 -0.8686
12322TIP3    H258458   5.489   0.631  12.972 -0.3878 -1.3755 -0.0718
12323TIP3   OH258459   6.346   5.074   5.847  0.3020 -0.2303  0.6533
12323TIP3    H158460   6.400   5.144   5.811 -1.4099 -0.0365 -1.6913
12323TIP3    H258461   6.408   5.006   5.873  1.7058  0.0458 -1.8250
12324TIP3   OH258462   1.005   2.901  16.128 -0.2393  0.7540  0.2609
12324TIP3    H158463   0.988   2.989  16.094 -0.5853  0.4261 -0.4370
12324TIP3    H258464   0.932   2.884  16.187 -1.5466 -0.0446 -1.5419
12325TIP3   OH258465   6.431   0.438   4.527  0.0244  0.5231 -0.1515
12325TIP3    H158466   6.517   0.439   4.568 -0.3902 -0.5565  0.7431
12325TIP3    H258467   6.398   0.527   4.537  0.9734  0.8997 -0.3703
12326TIP3   OH258468   6.651   2.070  12.324 -0.8287 -0.5027 -0.8675
12326TIP3    H158469   6.702   2.135  12.275  2.4760 -1.5864  0.9835
12326TIP3    H258470   6.621   2.118  12.402  0.8898 -0.9100  0.0743
12327TIP3   OH258471   2.208   6.663   2.955  0.1840 -0.4475 -0.0718
12327TIP3    H158472   2.256   6.744   2.971 -0.9445 -0.0602  1.4626
12327TIP3    H258473   2.253   6.598   3.009 -0.4321 -0.2925  0.6298
12328TIP3   OH258474   0.677   4.665  12.813  0.0827  0.7053 -0.1084
12328TIP3    H158475   0.750   4.688  12.757  0.7150  0.7567  0.7269
12328TIP3    H258476   0.659   4.744  12.864 -1.1164  0.9654 -0.9110
12329TIP3   OH258477   5.250   3.164  14.989  0.8186 -0.1174  0.0879
12329TIP3    H158478   5.277   3.086  15.038  0.4397  1.3922  2.8262
12329TIP3    H258479   5.326   3.186  14.934  1.2420 -1.9003 -0.0532
12330TIP3   OH258480   2.321   5.909  12.676 -0.4558 -0.3541 -0.0963
12330TIP3    H158481   2.243   5.949  12.637 -0.1226  0.1959 -0.2086
12330TIP3    H258482   2.288   5.830  12.719 -0.9593 -0.5201 -0.7668
12331TIP3   OH258483   0.713   2.401   4.903 -0.0225  0.2927  0.4794
12331TIP3    H158484   0.748   2.425   4.817 -1.2923 -0.1897 -0.1864
12331TIP3    H258485   0.679   2.483   4.938 -0.1510  0.3515  0.2200
12332TIP3   OH258486   5.578   1.241   4.078 -0.4400  0.5413  0.5562
12332TIP3    H158487   5.579   1.333   4.055  1.5887  1.3058  3.3984
12332TIP3    H258488   5.644   1.201   4.022 -0.4583  1.0403  0.1819
12333TIP3   OH258489   3.273   4.291  14.602 -0.0373 -0.3442 -0.0328
12333TIP3    H158490   3.309   4.338  14.526 -1.9948 -0.1124 -0.8491
12333TIP3    H258491   3.252   4.360  14.665 -0.0350 -0.3978  0.0278
12334TIP3   OH258492   2.566   5.194  14.311 -0.6745  0.2438  0.2092
12334TIP3    H158493   2.626   5.264  14.289  0.1583 -0.3471  0.5695
12334TIP3    H258494   2.479   5.232  14.300 -0.2584  0.6937 -1.6569
12335TIP3   OH258495   3.147   5.752  15.443  0.0432 -0.4276  0.1661
12335TIP3    H158496   3.156   5.844  15.468  0.6831 -0.4074 -0.1377
12335TIP3    H258497   3.152   5.752  15.347 -2.1188 -0.5307  0.0235
12336TIP3   OH258498   3.247   2.879  16.369 -0.8320  0.1526  0.2398
12336TIP3    H158499   3.277   2.848  16.454  2.6403  0.2236 -0.8747
12336TIP3    H258500   3.328   2.896  16.320 -2.7375  1.6011 -2.5315
12337TIP3   OH258501   3.752   4.037   2.127 -0.0872 -0.7241 -0.2289
12337TIP3    H158502   3.737   3.955   2.172  0.0411  0.7154  2.5304
12337TIP3    H258503   3.708   4.103   2.180 -0.5094  0.9712 -2.5841
12338TIP3   OH258504   3.796   0.416  16.775 -0.2095 -0.3113  0.3312
12338TIP3    H158505   3.811   0.336  16.724  0.5859  0.7379 -1.1010
12338TIP3    H258506   3.708   0.444  16.751 -0.3737 -0.5792  0.6101
12339TIP3   OH258507   2.750   2.693  11.729  0.2815  0.0061  0.2841
12339TIP3    H158508   2.707   2.776  11.748  0.1760 -0.5005  2.3238
12339TIP3    H258509   2.707   2.662  11.648  1.2803  2.5434 -1.2646
12340TIP3   OH258510   3.928   2.729  16.600 -0.0333 -0.4225 -0.1417
12340TIP3    H158511   3.850   2.674  16.587  0.0739 -0.8191  0.8262
12340TIP3    H258512   3.918   2.800  16.537 -1.9544  0.3662  0.9857
12341TIP3   OH258513   1.332   5.670  13.477 -0.0913 -0.8312 -0.3283
12341TIP3    H158514   1.247   5.626  13.479 -1.5390  1.8884 -0.0409
12341TIP3    H258515   1.384   5.625  13.544 -2.0735 -1.0097  1.1050
12342TIP3   OH258516   0.057   5.138  13.656 -0.1425 -0.7202  0.4160
12342TIP3    H158517   0.102   5.101  13.580 -0.6316 -1.4062  0.4630
12342TIP3    H258518   0.104   5.220  13.674 -0.6755 -0.0381 -1.2553
12343TIP3   OH258519   4.179   2.297   0.104  0.0337 -0.6051 -0.1094
12343TIP3    H158520   4.157   2.375   0.156 -0.3778 -1.2895  0.7557
12343TIP3    H258521   4.262   2.319   0.062  0.2638  0.0339  0.6671
12344TIP3   OH258522   2.011   1.177  15.773 -0.4100 -0.2748 -0.0974
12344TIP3    H158523   1.994   1.212  15.860 -1.6298 -1.5783  0.1972
12344TIP3    H258524   1.997   1.251  15.714 -1.0996  0.2201  0.6802
12345TIP3   OH258525   1.467   0.513  14.600  0.1806  0.0418  0.0155
12345TIP3    H158526   1.386   0.493  14.646 -0.6738  3.3538  0.0857
12345TIP3    H258527   1.440   0.531  14.510  1.1641 -1.1202 -0.5325
12346TIP3   OH258528   0.116   0.458   1.188 -0.6091  0.5090 -0.4291
12346TIP3    H158529   0.052   0.427   1.123 -0.3094 -2.8107  0.7497
12346TIP3    H258530   0.063   0.483   1.263 -0.6521 -1.0726  0.0938
12347TIP3   OH258531   0.422   2.638   3.245 -0.1840 -0.1302  0.4076
12347TIP3    H158532   0.503   2.687   3.232  0.7189 -1.1548  1.9901
12347TIP3    H258533   0.358   2.682   3.188  1.7639 -0.0800 -1.8387
12348TIP3   OH258534   5.513   3.867  16.544 -0.4590 -0.3981 -0.0802
12348TIP3    H158535   5.458   3.905  16.476 -1.6348 -0.2549  0.9210
12348TIP3    H258536   5.603   3.890  16.519 -0.9805  0.9508 -0.7692
12349TIP3   OH258537   6.330   5.949   4.679  0.1661  0.0781  0.5875
12349TIP3    H158538   6.256   6.009   4.682 -1.6309 -2.1302  3.9895
12349TIP3    H258539   6.342   5.931   4.586 -1.3804  3.0964 -0.2489
12350TIP3   OH258540   5.596   1.539  12.848  1.1026  0.3997 -0.1360
12350TIP3    H158541   5.674   1.585  12.877  2.5959 -0.6946 -2.2918
12350TIP3    H258542   5.621   1.447  12.846  0.1073  0.1350 -1.8168
12351TIP3   OH258543   1.423   3.770  16.619 -0.4032 -0.4303 -0.4081
12351TIP3    H158544   1.409   3.730  16.705  0.0216  0.4111  0.0687
12351TIP3    H258545   1.434   3.696  16.560  0.5343 -1.0318  0.4830
12352TIP3   OH258546   3.489   4.129   6.596 -0.1216 -0.1333  0.4511
12352TIP3    H158547   3.490   4.034   6.605  1.2707 -0.1448  0.2960
12352TIP3    H258548   3.398   4.154   6.614 -0.9710 -1.6762 -1.5164
12353TIP3   OH258549   1.955   1.377   4.573  0.1094 -0.0068 -0.7285
12353TIP3    H158550   1.984   1.465   4.547  0.5815 -0.0954 -0.5133
12353TIP3    H258551   1.912   1.390   4.658  0.6855 -0.0652 -0.4258
12354TIP3   OH258552   3.857   0.222  15.245 -0.0955  0.4737  0.0671
12354TIP3    H158553   3.879   0.312  15.267  1.4783 -0.0523  0.6792
12354TIP3    H258554   3.927   0.169  15.283 -0.4018 -0.9199 -1.2289
12355TIP3   OH258555   4.405   1.603  13.557 -0.7022 -0.3044  0.3537
12355TIP3    H158556   4.483   1.627  13.606  0.8597 -0.9484 -1.7231
12355TIP3    H258557   4.354   1.549  13.617  1.0032 -0.8216  1.3723
12356TIP3   OH258558   4.074   4.836   5.013  0.0387 -0.4414  0.4904
12356TIP3    H158559   4.125   4.913   5.039 -1.5069 -0.1299  2.7238
12356TIP3    H258560   4.137   4.779   4.969  1.6307  1.2597  0.5340
12357TIP3   OH258561   6.741   2.818   2.625 -0.2278  0.4363 -0.0169
12357TIP3    H158562   6.681   2.892   2.634  0.7969  1.0880  1.6236
12357TIP3    H258563   6.742   2.778   2.712  1.6867  0.4085 -0.0443
12358TIP3   OH258564   4.816   2.142  14.204 -0.0217 -0.0006 -0.6336
12358TIP3    H158565   4.856   2.115  14.121 -1.5112 -1.1208 -0.9980
12358TIP3    H258566   4.878   2.205  14.241  1.3839 -0.6313 -1.8734
12359TIP3   OH258567   4.538   5.257   3.066 -0.0427  0.2700 -0.1561
12359TIP3    H158568   4.548   5.288   2.976  0.2078  0.4239 -0.0770
12359TIP3    H258569   4.452   5.289   3.093 -1.5525 -2.5889 -1.4350
12360TIP3   OH258570   4.127   2.575  11.411  0.0050  0.0303 -0.0311
12360TIP3    H158571   4.043   2.544  11.445 -0.2140 -1.9857 -2.2293
12360TIP3    H258572   4.105   2.650  11.357 -0.2654  0.1449  0.2383
12361TIP3   OH258573   1.280   6.152   5.004  0.0307 -0.6466 -0.1795
12361TIP3    H158574   1.188   6.123   5.004  0.5108 -2.2150 -0.5871
12361TIP3    H258575   1.296   6.182   5.093 -0.3200 -2.2279  0.4325
12362TIP3   OH258576   2.433   4.673  12.316  0.2268 -0.0067 -0.6135
12362TIP3    H158577   2.413   4.646  12.406  1.3435 -0.6265 -0.5421
12362TIP3    H258578   2.379   4.751  12.302 -1.2058 -0.8717  0.0124
12363TIP3   OH258579   1.319   3.138   5.102 -0.2185 -0.1637  0.7660
12363TIP3    H158580   1.395   3.191   5.128 -0.8913  0.3040  1.8153
12363TIP3    H258581   1.303   3.082   5.178 -1.9421  0.9017  1.2060
12364TIP3   OH258582   4.535   3.824   4.086 -0.5097 -0.4994  0.7333
12364TIP3    H158583   4.595   3.754   4.110 -1.4213 -1.6709 -0.3275
12364TIP3    H258584   4.455   3.779   4.057 -1.6166  1.0114  1.3685
12365TIP3   OH258585   5.804   2.873   4.732 -0.7980  0.2678  0.0404
12365TIP3    H158586   5.718   2.914   4.736 -0.0211  2.2442 -1.9029
12365TIP3    H258587   5.861   2.932   4.781 -0.6634 -1.4082  1.9365
12366TIP3   OH258588   6.467   0.040  11.930  0.0686 -0.0642  0.4187
12366TIP3    H158589   6.388   0.068  11.978 -1.3254 -4.1139  0.6586
12366TIP3    H258590   6.433  -0.002  11.851  2.2527  3.0712 -2.3290
12367TIP3   OH258591   5.088   6.043  14.922 -0.5105 -0.7364  0.0254
12367TIP3    H158592   5.087   6.018  14.829 -0.4707 -0.4367 -0.0541
12367TIP3    H258593   5.023   5.986  14.962 -3.9696  2.3385 -0.9956
12368TIP3   OH258594   6.490   3.896   4.945  0.2005  0.1022 -0.0354
12368TIP3    H158595   6.435   3.901   4.867 -0.3843 -2.7753  0.1608
12368TIP3    H258596   6.433   3.858   5.012  1.5520 -0.1234  1.0015
12369TIP3   OH258597   2.570   4.955  10.709  0.3683 -0.1679  0.4112
12369TIP3    H158598   2.613   4.939  10.625  1.5908  1.0314  0.7809
12369TIP3    H258599   2.580   4.873  10.757 -1.6267 -1.3614 -1.1386
12370TIP3   OH258600   2.662   0.286  16.975 -0.0340  0.5557  0.3847
12370TIP3    H158601   2.658   0.357  16.911  0.0376  1.2215  1.1137
12370TIP3    H258602   2.755   0.271  16.989 -0.0486  1.2486  1.2505
12371TIP3   OH258603   5.124   6.146   2.552  0.0628 -0.4807  0.3274
12371TIP3    H158604   5.216   6.171   2.557 -0.2704  0.8627 -0.1194
12371TIP3    H258605   5.097   6.134   2.643  0.8728 -1.6097  0.4237
12372TIP3   OH258606   5.569   4.837   2.077  0.2621 -0.0553 -0.0202
12372TIP3    H158607   5.479   4.824   2.109  0.2238 -1.0199 -0.4950
12372TIP3    H258608   5.572   4.787   1.995  0.9838  0.6596 -0.4318
12373TIP3   OH258609   4.314   5.750   6.219  0.0077  0.1825  0.2471
12373TIP3    H158610   4.377   5.798   6.166  0.1376 -0.0030  0.2331
12373TIP3    H258611   4.276   5.686   6.158  0.3276 -0.1903  0.4336
12374TIP3   OH258612   0.751   0.760   2.454 -0.2350  0.2467 -0.2265
12374TIP3    H158613   0.664   0.751   2.493  0.7284  0.5503  2.0821
12374TIP3    H258614   0.797   0.680   2.479 -0.0091 -0.1760 -1.9227
12375TIP3   OH258615   2.506   0.914  13.204  0.6495 -0.2116 -0.6320
12375TIP3    H158616   2.512   0.936  13.111 -0.9326  0.7027 -0.5448
12375TIP3    H258617   2.514   0.819  13.207  1.6176 -0.1700 -1.6117
12376TIP3   OH258618   3.649   3.032  15.457  0.2819  0.0898  0.2492
12376TIP3    H158619   3.672   3.045  15.549  0.3169 -1.5401  0.4887
12376TIP3    H258620   3.589   2.958  15.457  0.5446 -0.1431 -1.0701
12377TIP3   OH258621   6.546   0.007  15.270  0.1522  0.0392  0.0027
12377TIP3    H158622   6.572  -0.082  15.250 -1.3211 -0.1342 -1.2972
12377TIP3    H258623   6.475  -0.002  15.334 -0.3350  0.2489 -0.5043
12378TIP3   OH258624   1.173   3.977   5.988  0.4841  0.2618  0.1124
12378TIP3    H158625   1.173   3.998   5.894 -0.5076  0.3774  0.1311
12378TIP3    H258626   1.260   4.002   6.018  0.1273  2.1327 -0.3588
12379TIP3   OH258627   1.077   3.041   4.143  0.4024 -0.3019  0.1631
12379TIP3    H158628   1.083   3.038   4.048 -0.5673 -0.7735  0.1069
12379TIP3    H258629   1.082   2.949   4.170  0.6464 -0.1716  0.5639
12380TIP3   OH258630   2.213   5.709   3.001 -0.2733 -0.6464  0.3127
12380TIP3    H158631   2.176   5.795   3.024  0.1288 -0.2804 -0.3844
12380TIP3    H258632   2.307   5.724   2.995 -0.4897 -0.3199 -3.1761
12381TIP3   OH258633   3.098   0.894   0.385  0.8836 -0.0485 -0.4833
12381TIP3    H158634   3.006   0.915   0.396  1.4223  0.4284  4.4490
12381TIP3    H258635   3.102   0.798   0.388  0.7571 -0.0197  2.6929
12382TIP3   OH258636   4.724   3.019   6.322 -0.6230  0.1602  0.6380
12382TIP3    H158637   4.732   2.991   6.231 -0.0796  0.4125  0.6094
12382TIP3    H258638   4.661   2.957   6.361 -0.8033  0.0123  0.1140
12383TIP3   OH258639   3.628   2.776   1.753  0.1710 -0.0781 -0.5058
12383TIP3    H158640   3.641   2.770   1.848  2.1488  0.7345 -0.7089
12383TIP3    H258641   3.584   2.861   1.741 -0.9859 -0.6278 -0.2481
12384TIP3   OH258642   0.309   2.267   0.579 -0.3485  0.2704 -0.3152
12384TIP3    H158643   0.402   2.280   0.600 -0.0261  0.0782 -1.5998
12384TIP3    H258644   0.301   2.173   0.562 -0.6712  0.3704 -0.7306
12385TIP3   OH258645   1.778   4.063  13.696 -0.0802 -0.1239  0.2565
12385TIP3    H158646   1.754   4.154  13.711 -0.8676 -0.4226  0.8513
12385TIP3    H258647   1.871   4.059  13.717 -0.2874  0.3125  1.2709
12386TIP3   OH258648   6.074   3.794  13.788  0.2297  0.3036 -0.0086
12386TIP3    H158649   6.146   3.732  13.775 -1.8042 -1.8080 -1.6141
12386TIP3    H258650   6.074   3.811  13.882  1.7821 -0.9749  0.2453
12387TIP3   OH258651   5.557   2.414   5.995  0.5049 -0.1572 -0.4135
12387TIP3    H158652   5.500   2.469   6.049  3.1209  1.1059  1.1356
12387TIP3    H258653   5.645   2.442   6.017  1.7237 -1.1905 -3.7187
12388TIP3   OH258654   1.549   0.850   4.127  0.3487 -0.3572 -0.1153
12388TIP3    H158655   1.506   0.780   4.176  1.1507 -0.2589  0.7263
12388TIP3    H258656   1.477   0.898   4.086 -0.5520  1.3278  3.2776
12389TIP3   OH258657   6.371   2.689   3.700 -0.2459 -0.5211 -0.3753
12389TIP3    H158658   6.331   2.651   3.778  0.3882  2.4131  1.4215
12389TIP3    H258659   6.321   2.652   3.627 -3.0810 -0.6617  1.5906
12390TIP3   OH258660   3.727   1.782  13.900  0.2254  0.3380 -0.4925
12390TIP3    H158661   3.818   1.759  13.881 -0.1108 -3.0141  1.5726
12390TIP3    H258662   3.731   1.833  13.981  0.4109  2.2259 -1.6515
12391TIP3   OH258663   4.103   0.392   0.480 -0.1225 -0.6276 -0.2051
12391TIP3    H158664   4.107   0.298   0.461 -0.9854 -0.9390  1.1249
12391TIP3    H258665   4.022   0.422   0.438 -0.1321 -0.5808 -0.1531
12392TIP3   OH258666   6.587   3.263  11.293  0.2592 -0.5763  0.3229
12392TIP3    H158667   6.598   3.341  11.348  0.2119 -1.1755  1.1902
12392TIP3    H258668   6.500   3.274  11.253 -0.2005 -0.6859  1.2700
12393TIP3   OH258669   2.304   6.766  15.361 -0.5067  0.3534  0.3049
12393TIP3    H158670   2.374   6.704  15.379 -1.6211 -0.7662  0.8375
12393TIP3    H258671   2.313   6.786  15.267 -0.1129 -0.5695  0.1431
12394TIP3   OH258672   0.929   4.039   4.699  0.0625 -0.1488 -0.7305
12394TIP3    H158673   0.998   4.100   4.726 -0.4149 -0.1788  0.5878
12394TIP3    H258674   0.925   3.974   4.770  0.4737 -1.6435 -2.0516
12395TIP3   OH258675   1.807   1.309   5.096 -0.2344 -0.3970  0.4210
12395TIP3    H158676   1.849   1.377   5.148  0.9367 -0.7416 -0.0590
12395TIP3    H258677   1.721   1.298   5.135 -0.2854  1.0943  0.7341
12396TIP3   OH258678   3.100   3.569   4.765  0.3803  0.4839  0.2442
12396TIP3    H158679   3.143   3.612   4.690  0.6997  1.6472  1.0822
12396TIP3    H258680   3.012   3.606   4.767 -0.4305 -1.3058 -0.9812
12397TIP3   OH258681   5.563   4.943  16.524  0.8697  0.2819  0.3041
12397TIP3    H158682   5.478   4.924  16.484  0.3104 -0.7550  1.9613
12397TIP3    H258683   5.590   5.026  16.484 -0.8305  0.5390 -0.3496
12398TIP3   OH258684   5.243   4.749   5.865 -0.1805  0.2473  0.2480
12398TIP3    H158685   5.280   4.720   5.948 -0.8354  1.0267  0.8190
12398TIP3    H258686   5.199   4.832   5.885  0.7859  1.1253 -1.1414
12399TIP3   OH258687   5.610   3.098  13.004 -0.2305 -0.3995  0.3025
12399TIP3    H158688   5.584   3.075  12.915  0.9557 -1.0426  0.1154
12399TIP3    H258689   5.705   3.097  13.002 -0.1520  2.1226  0.9250
12400TIP3   OH258690   2.415   1.073  11.252  0.7750 -0.0949 -0.2478
12400TIP3    H158691   2.480   1.014  11.289  0.4741  0.8652  1.8902
12400TIP3    H258692   2.460   1.157  11.243  1.0397 -0.4449 -2.7608
12401TIP3   OH258693   6.129   6.809  12.625 -0.1197  0.1373 -0.0118
12401TIP3    H158694   6.124   6.732  12.568 -0.9548  0.5741 -0.5483
12401TIP3    H258695   6.044   6.812  12.669  0.4062 -0.0102  1.0256
12402TIP3   OH258696   2.279   1.379  15.434 -0.4078  0.0779  0.1994
12402TIP3    H158697   2.344   1.373  15.364 -1.5970 -0.3502 -0.8909
12402TIP3    H258698   2.257   1.472  15.439  1.5616  0.4885  1.7766
12403TIP3   OH258699   6.004   0.980  12.447  0.0320  0.0417  0.1894
12403TIP3    H158700   6.029   1.050  12.386 -0.4205 -0.5633 -0.7116
12403TIP3    H258701   5.930   1.015  12.496 -0.5681  0.0024 -0.6668
12404TIP3   OH258702   2.024   1.997   4.849 -0.3649  0.0889 -0.1495
12404TIP3    H158703   2.034   1.915   4.802  0.5222 -0.7327  1.4566
12404TIP3    H258704   1.930   2.016   4.845 -0.3849 -0.2995 -1.6649
12405TIP3   OH258705   1.642   0.796   1.685 -0.2751  0.0068 -0.1554
12405TIP3    H158706   1.708   0.735   1.718 -0.0410 -0.2584 -1.1001
12405TIP3    H258707   1.561   0.768   1.726  0.0922 -0.0168  0.5716
12406TIP3   OH258708   5.774   3.315   0.700 -0.0512  0.6640  0.1881
12406TIP3    H158709   5.730   3.377   0.757  0.7023 -0.1997  1.7371
12406TIP3    H258710   5.729   3.232   0.714 -0.1660  0.5402 -0.8365
12407TIP3   OH258711   1.702   4.806  14.976  0.1763 -0.1314 -0.2758
12407TIP3    H158712   1.633   4.809  14.909 -0.4531  1.2302  0.4057
12407TIP3    H258713   1.753   4.728  14.955 -0.4368 -0.1077 -1.9230
12408TIP3   OH258714   1.932   3.867  16.544 -0.4952 -0.0316 -0.1996
12408TIP3    H158715   1.956   3.908  16.461 -0.8935 -2.9610 -1.8494
12408TIP3    H258716   1.836   3.864  16.541 -0.4668 -1.2504 -0.2390
12409TIP3   OH258717   5.004   4.802  14.872 -0.0343 -0.0646 -0.0182
12409TIP3    H158718   4.953   4.878  14.900 -0.7631 -0.3083 -0.6891
12409TIP3    H258719   5.028   4.822  14.782  0.6028 -0.1960  0.1198
12410TIP3   OH258720   5.199   1.998   5.808  0.3873 -0.1852 -0.3281
12410TIP3    H158721   5.241   1.952   5.880 -1.2594 -0.9998  0.1545
12410TIP3    H258722   5.179   1.930   5.744  2.1031  0.5797 -1.7064
12411TIP3   OH258723   4.394   2.557   4.340 -0.2757  0.0956  0.2292
12411TIP3    H158724   4.321   2.495   4.338 -0.3638  0.2149 -0.8097
12411TIP3    H258725   4.450   2.527   4.411  0.7464 -2.4283 -1.5839
12412TIP3   OH258726   6.190   1.948  14.720 -0.0067  0.0809  0.2646
12412TIP3    H158727   6.284   1.963  14.708 -0.0329  0.2060  0.2163
12412TIP3    H258728   6.149   1.991  14.645 -0.0893 -0.1421  0.1802
12413TIP3   OH258729   3.499   2.958   3.020  0.5176 -0.5667 -0.1391
12413TIP3    H158730   3.449   3.036   2.995 -0.3416 -0.8916  0.5228
12413TIP3    H258731   3.522   2.917   2.937  0.7114  0.2296 -0.4838
12414TIP3   OH258732   4.660   1.350  12.082  0.0495 -0.0629 -0.5385
12414TIP3    H158733   4.695   1.438  12.073  0.8115 -0.4523 -1.4253
12414TIP3    H258734   4.727   1.293  12.044  0.0165 -1.1157  0.9432
12415TIP3   OH258735   6.338   2.335  15.188 -0.0443  0.0060  0.2396
12415TIP3    H158736   6.301   2.335  15.100 -0.5192 -1.3471  0.4266
12415TIP3    H258737   6.311   2.252  15.226  3.2137 -1.0763  0.3824
12416TIP3   OH258738   4.871   0.323  14.731  0.0793  0.4511 -0.4112
12416TIP3    H158739   4.856   0.336  14.825  0.7466 -0.8457 -0.1133
12416TIP3    H258740   4.892   0.410  14.698 -0.2463  0.9342  0.6269
12417TIP3   OH258741   3.716   3.157   3.354 -0.2629 -0.0801  0.3485
12417TIP3    H158742   3.704   3.166   3.260 -1.6528  0.5452  0.5686
12417TIP3    H258743   3.783   3.222   3.377  2.7736 -2.6911 -0.7174
12418TIP3   OH258744   5.701   4.531  16.110  0.3884  0.0625 -0.0445
12418TIP3    H158745   5.678   4.568  16.025 -0.3410 -2.5648 -1.0092
12418TIP3    H258746   5.705   4.437  16.096  1.2802 -0.3422  2.5984
12419TIP3   OH258747   1.961   3.931  10.565  0.3085 -0.0516 -0.6355
12419TIP3    H158748   1.911   4.004  10.530  0.7758  0.3146 -0.5483
12419TIP3    H258749   1.896   3.863  10.582 -0.1570  0.4170 -0.5256
12420TIP3   OH258750   1.272   4.750   0.745  0.6047  0.2927  0.4397
12420TIP3    H158751   1.218   4.829   0.737  1.1908  0.7009  0.5357
12420TIP3    H258752   1.254   4.718   0.833  0.9755  0.7603  0.6858
12421TIP3   OH258753   5.046   4.389  10.751 -0.1599 -0.1809 -0.0055
12421TIP3    H158754   5.096   4.456  10.704 -1.3897  0.3522 -0.5783
12421TIP3    H258755   4.980   4.359  10.688 -1.3300 -0.0246  1.1213
12422TIP3   OH258756   3.007   1.787  17.263 -0.1958 -0.6890 -0.7971
12422TIP3    H158757   3.039   1.876  17.252  0.9782 -0.9428  0.3552
12422TIP3    H258758   3.081   1.731  17.240 -1.0848 -1.3941 -2.0186
12423TIP3   OH258759   2.863   3.523  12.095 -0.1167  0.4292  0.2274
12423TIP3    H158760   2.900   3.481  12.018 -1.1858 -0.9540  0.4677
12423TIP3    H258761   2.771   3.499  12.095 -0.2238  0.7524  1.7091
12424TIP3   OH258762   4.656   2.455   4.841  0.1264 -0.2872  0.0193
12424TIP3    H158763   4.593   2.487   4.906  0.1878 -1.2475  0.5627
12424TIP3    H258764   4.637   2.361   4.833 -0.5078 -0.0015 -2.0669
12425TIP3   OH258765   0.723   1.853   5.541 -0.3356 -0.3190 -0.1097
12425TIP3    H158766   0.780   1.930   5.539 -0.4109 -0.2733 -0.4943
12425TIP3    H258767   0.691   1.849   5.631  1.8185 -1.4671  0.6362
12426TIP3   OH258768   2.014   1.335  13.919 -0.1898  0.0730 -0.4753
12426TIP3    H158769   1.962   1.302  13.845 -1.3037 -0.6153  0.5972
12426TIP3    H258770   1.971   1.417  13.943  2.7680  2.6327 -3.3439
12427TIP3   OH258771   4.452   3.414  13.708 -0.0626 -0.1330  0.2036
12427TIP3    H158772   4.428   3.347  13.644  2.7259 -0.4685 -0.5712
12427TIP3    H258773   4.483   3.487  13.655 -3.0006  1.7842  1.0511
12428TIP3   OH258774   3.939   4.362   2.622 -0.1258 -0.5417 -0.6277
12428TIP3    H158775   3.856   4.400   2.595 -0.0693 -0.7493 -1.1035
12428TIP3    H258776   3.920   4.319   2.706 -0.0822  0.9164  0.1484
12429TIP3   OH258777   0.093   5.361  15.026  0.6607 -0.0728  0.9523
12429TIP3    H158778   0.056   5.314  15.100  0.4295 -1.6055 -0.1020
12429TIP3    H258779   0.018   5.385  14.972  0.8482  0.7729  1.0622
12430TIP3   OH258780   2.756   0.209   3.905 -0.3423 -0.0452 -0.0498
12430TIP3    H158781   2.664   0.233   3.910 -0.0399  0.7603  1.7789
12430TIP3    H258782   2.802   0.290   3.886  0.1798 -0.0841  1.0200
12431TIP3   OH258783   3.395   3.102  14.549 -0.4355  0.0849 -0.4789
12431TIP3    H158784   3.334   3.169  14.580 -1.8491 -1.5104  0.2652
12431TIP3    H258785   3.354   3.068  14.469 -1.2354 -1.9234  0.7520
12432TIP3   OH258786   2.094   6.733   3.810  0.0960 -0.1748 -0.1702
12432TIP3    H158787   2.151   6.657   3.821  0.7651  0.3295 -0.0701
12432TIP3    H258788   2.021   6.717   3.869 -0.5944 -1.5077 -1.3623
12433TIP3   OH258789   2.133   3.342  10.579  0.2975  0.4566 -0.1908
12433TIP3    H158790   2.155   3.403  10.650 -2.0434  0.8288  0.2552
12433TIP3    H258791   2.058   3.382  10.535 -1.2651 -2.0241  0.0848
12434TIP3   OH258792   3.428   4.993  15.071 -0.5490  0.8151 -0.3167
12434TIP3    H158793   3.411   4.951  15.156  0.0518  0.9857 -0.1079
12434TIP3    H258794   3.502   5.051  15.088 -1.3608  1.9638 -0.6013
12435TIP3   OH258795   2.998   0.835   2.789  0.1990  0.0566  0.0667
12435TIP3    H158796   3.063   0.904   2.800  2.0237 -1.0588 -2.9031
12435TIP3    H258797   2.920   0.880   2.755  0.0527  1.1500  1.8349
12436TIP3   OH258798   1.215   6.487   3.230 -0.4916  0.2458  0.3679
12436TIP3    H158799   1.247   6.578   3.229 -2.4952  0.9628 -0.0685
12436TIP3    H258800   1.131   6.492   3.275 -1.1609 -1.2107 -0.7049
12437TIP3   OH258801   5.723   3.351  13.951 -0.1081  0.1914  0.0007
12437TIP3    H158802   5.764   3.380  13.870 -0.7179 -1.5458 -0.9772
12437TIP3    H258803   5.630   3.345  13.929 -0.2969 -0.1049  0.8792
12438TIP3   OH258804   6.696   3.621   0.564 -0.4428 -0.7574  0.7733
12438TIP3    H158805   6.608   3.640   0.596 -0.5477 -0.8053  0.5220
12438TIP3    H258806   6.712   3.531   0.591  0.5062  0.0547  2.9381
12439TIP3   OH258807   2.686   4.472   4.875  0.6620 -0.1518  0.3011
12439TIP3    H158808   2.752   4.404   4.884 -0.1241 -1.0909 -0.8939
12439TIP3    H258809   2.735   4.552   4.856  1.5242 -0.5575  0.7982
12440TIP3   OH258810   1.477   2.738  16.938  0.6417 -0.2817 -0.0556
12440TIP3    H158811   1.492   2.792  16.861 -0.4046  1.1402  0.7103
12440TIP3    H258812   1.557   2.746  16.990  0.6587  0.2032 -0.1540
12441TIP3   OH258813   0.493   1.959  12.198  0.1848 -0.0867 -0.5367
12441TIP3    H158814   0.587   1.941  12.190  0.0653 -0.5343 -0.9645
12441TIP3    H258815   0.453   1.872  12.203  0.0015  0.1125  2.1271
12442TIP3   OH258816   3.751   3.272  12.694 -0.1993 -0.2059 -0.3039
12442TIP3    H158817   3.731   3.312  12.778 -0.5791 -1.8327  0.3975
12442TIP3    H258818   3.667   3.240  12.661  0.2096 -1.1210 -0.4742
12443TIP3   OH258819   0.479   5.787  15.557 -0.1548  0.1236  0.0556
12443TIP3    H158820   0.449   5.811  15.469  0.1703 -2.8225 -0.9228
12443TIP3    H258821   0.572   5.810  15.557 -0.2557  0.5361 -0.2403
12444TIP3   OH258822   6.526   4.233  14.416  0.2070 -0.0909  0.0107
12444TIP3    H158823   6.556   4.243  14.326  0.8987 -2.5034 -0.0712
12444TIP3    H258824   6.566   4.306  14.463  0.8160  0.4989 -1.4031
12445TIP3   OH258825   2.708   3.403   1.162 -0.0555 -0.1062  0.4237
12445TIP3    H158826   2.714   3.478   1.102 -2.8079  0.5980  0.9673
12445TIP3    H258827   2.676   3.331   1.107  1.0750 -0.4955  0.2529
12446TIP3   OH258828   6.437   4.138   2.841  0.4706 -0.0417  0.1609
12446TIP3    H158829   6.464   4.157   2.931  0.5363 -1.5347  0.4758
12446TIP3    H258830   6.357   4.189   2.829  1.4325  1.5600  0.4606
12447TIP3   OH258831   4.162   6.465   1.008  0.1692  0.1537 -0.6124
12447TIP3    H158832   4.242   6.488   0.961  1.1840 -2.8372 -0.5077
12447TIP3    H258833   4.135   6.546   1.051  1.3519  1.9955 -3.2190
12448TIP3   OH258834   2.997   3.171  15.120 -0.5139  0.4797 -0.1275
12448TIP3    H158835   2.927   3.224  15.157 -0.3902  0.8325 -0.3856
12448TIP3    H258836   3.077   3.203  15.163 -0.6148 -0.5851  0.8890
12449TIP3   OH258837   3.564   4.273   3.787 -0.6603 -0.2768  0.1313
12449TIP3    H158838   3.621   4.280   3.864 -0.3932 -0.1544 -0.0771
12449TIP3    H258839   3.613   4.218   3.726 -0.1908  0.8776 -0.5590
12450TIP3   OH258840   6.547   3.396   2.510 -0.3730  0.3238 -0.5259
12450TIP3    H158841   6.571   3.485   2.537  0.1796 -0.5356  1.8531
12450TIP3    H258842   6.451   3.396   2.509 -0.3699  1.1044 -1.0792
12451TIP3   OH258843   0.806   2.897  15.559 -0.4762 -0.5552  0.0575
12451TIP3    H158844   0.832   2.977  15.604 -3.2008 -0.8767  2.3212
12451TIP3    H258845   0.791   2.925  15.468  1.6713  0.8000  0.0804
12452TIP3   OH258846   2.137   5.953   0.871  0.0772 -0.0368 -0.1130
12452TIP3    H158847   2.110   5.897   0.944 -0.8089  2.2066  1.3374
12452TIP3    H258848   2.208   5.905   0.828 -2.7778 -3.7863 -0.9393
12453TIP3   OH258849   3.324   5.023   3.846  0.0863  0.0156 -0.4396
12453TIP3    H158850   3.416   5.007   3.866  0.4621 -1.4414 -3.1863
12453TIP3    H258851   3.276   4.969   3.910  1.1078  0.7267  0.9522
12454TIP3   OH258852   1.727   5.130  14.335  0.6209  0.0402  0.0478
12454TIP3    H158853   1.724   5.220  14.302 -0.7383 -0.8303 -2.3624
12454TIP3    H258854   1.793   5.087  14.280 -0.4552 -1.0147 -0.4439
12455TIP3   OH258855   0.663   0.222   5.137 -0.6027 -0.4842 -0.2305
12455TIP3    H158856   0.639   0.131   5.155 -1.7269 -0.3592 -1.0774
12455TIP3    H258857   0.720   0.216   5.060 -1.2524 -0.4258 -0.7275
12456TIP3   OH258858   6.282   6.293  16.010  0.3444 -0.4928 -0.2068
12456TIP3    H158859   6.191   6.280  16.036  0.4610  0.4534  0.7315
12456TIP3    H258860   6.285   6.383  15.979  0.5156 -1.1853 -2.2774
12457TIP3   OH258861   3.183   2.371   0.565  0.6261 -0.3218  0.2561
12457TIP3    H158862   3.121   2.312   0.523 -0.0074  0.3908  0.1909
12457TIP3    H258863   3.150   2.459   0.546  0.6151  0.0254  1.8268
12458TIP3   OH258864   3.718   6.760  14.111  0.8954 -0.0498 -0.0587
12458TIP3    H158865   3.813   6.758  14.123  0.8654 -1.6747 -0.0012
12458TIP3    H258866   3.684   6.696  14.173 -0.2525  0.4744 -0.1221
12459TIP3   OH258867   4.716   4.480   2.378 -1.1143  0.0623 -0.0218
12459TIP3    H158868   4.674   4.516   2.300  0.5374 -1.4273 -1.6303
12459TIP3    H258869   4.683   4.534   2.450 -1.2462  2.6366 -1.9639
12460TIP3   OH258870   4.132   6.473  14.983  0.0611 -0.0172 -0.1433
12460TIP3    H158871   4.090   6.557  15.002  2.0603  0.5943  1.6841
12460TIP3    H258872   4.169   6.485  14.895 -1.5217  0.2381 -0.7942
12461TIP3   OH258873   3.610   2.693   0.857 -0.1245  0.3336  0.7604
12461TIP3    H158874   3.673   2.721   0.791  0.6009  0.1456  1.3608
12461TIP3    H258875   3.646   2.726   0.940 -0.4715 -0.3515  1.1889
12462TIP3   OH258876   5.204   5.319   4.965  0.3541  0.3777  0.3810
12462TIP3    H158877   5.260   5.315   5.042  0.3049 -0.0835  0.3964
12462TIP3    H258878   5.131   5.375   4.990  2.0928  3.1139 -0.4741
12463TIP3   OH258879   2.977   5.181   4.770  0.2891 -0.3313  0.3243
12463TIP3    H158880   2.896   5.133   4.785 -0.0102 -0.4054 -1.4190
12463TIP3    H258881   2.982   5.191   4.675  2.3555 -0.3852  0.3947
12464TIP3   OH258882   6.371   5.884   6.123 -0.0237  0.1188  0.8151
12464TIP3    H158883   6.403   5.868   6.212  1.7315 -2.0089 -0.1377
12464TIP3    H258884   6.451   5.889   6.070 -1.1379 -2.1291 -1.1574
12465TIP3   OH258885   5.403   2.684   5.376 -0.2024  0.6527  0.0124
12465TIP3    H158886   5.489   2.720   5.356  0.7617 -1.4331  0.2930
12465TIP3    H258887   5.372   2.647   5.294 -1.1964  2.1395 -0.2824
12466TIP3   OH258888   6.575   3.197  16.264 -0.2776  0.4195 -0.4260
12466TIP3    H158889   6.544   3.261  16.200 -1.5051 -0.1001 -0.3631
12466TIP3    H258890   6.526   3.117  16.244 -1.0575  0.3844  1.4656
12467TIP3   OH258891   0.147   6.221  12.248 -0.1953 -0.1314 -0.0955
12467TIP3    H158892   0.109   6.296  12.293  1.5397  2.0006 -2.0417
12467TIP3    H258893   0.225   6.256  12.204  1.3140 -3.3141 -0.1326
12468TIP3   OH258894   3.759   5.343   4.145  0.0862 -0.1395 -0.2207
12468TIP3    H158895   3.674   5.300   4.154 -0.2174  0.2821 -1.0001
12468TIP3    H258896   3.817   5.275   4.111  0.0875 -0.4565  0.4080
12469TIP3   OH258897   0.870   3.658  13.017  0.4402 -0.1652  0.4727
12469TIP3    H158898   0.885   3.566  13.038  1.1899 -0.0878  0.2825
12469TIP3    H258899   0.953   3.701  13.037 -0.0243  0.5307  0.8999
12470TIP3   OH258900   0.469   3.016   1.629 -0.3844  0.4683  0.0999
12470TIP3    H158901   0.403   2.973   1.574  0.7170 -1.1035 -0.0190
12470TIP3    H258902   0.552   2.980   1.599  0.5233  2.2834  0.3998
12471TIP3   OH258903   2.894   6.411  15.629 -0.2588  0.4948  0.2683
12471TIP3    H158904   2.972   6.467  15.630  0.4290 -0.4602  0.7015
12471TIP3    H258905   2.898   6.365  15.545 -0.2846  0.3427  0.3507
12472TIP3   OH258906   0.703   0.336  11.310  1.1562 -0.0598 -0.2894
12472TIP3    H158907   0.745   0.413  11.274 -0.3544  0.1283 -1.6858
12472TIP3    H258908   0.705   0.350  11.405  1.7315  1.2384 -0.4814
12473TIP3   OH258909   1.408   0.740   0.758 -0.2657  0.1409  0.2222
12473TIP3    H158910   1.454   0.824   0.768 -0.9578  0.5205  0.2511
12473TIP3    H258911   1.348   0.737   0.832 -0.0136 -0.5290  0.3970
12474TIP3   OH258912   6.283   2.829  13.500  0.2691  1.0263  0.5348
12474TIP3    H158913   6.304   2.785  13.582  1.1610 -0.5379 -0.5289
12474TIP3    H258914   6.268   2.759  13.437 -2.5732  2.1743 -0.1395
12475TIP3   OH258915   5.428   1.324   2.854 -0.3431  0.3280 -0.2919
12475TIP3    H158916   5.476   1.301   2.775 -1.0207 -0.9742 -0.3496
12475TIP3    H258917   5.344   1.358   2.823 -0.2208  0.7649 -0.1503
12476TIP3   OH258918   3.277   5.241  11.818  0.2214  0.0418 -0.3160
12476TIP3    H158919   3.303   5.168  11.874 -1.4463 -1.3130 -1.3075
12476TIP3    H258920   3.279   5.207  11.729 -0.5209  1.2169 -0.8017
12477TIP3   OH258921   1.272   6.808   1.750  0.2450  0.1812  0.0394
12477TIP3    H158922   1.217   6.886   1.739 -0.8559 -0.7566 -1.3412
12477TIP3    H258923   1.348   6.839   1.800 -0.4182  2.0170 -0.0421
12478TIP3   OH258924   6.637   4.759   0.190 -0.2430  0.1258  0.6861
12478TIP3    H158925   6.573   4.753   0.261 -0.6388 -1.1447  0.2511
12478TIP3    H258926   6.635   4.851   0.163 -1.9112  0.1090  0.6805
12479TIP3   OH258927   4.350   3.370   5.740  0.1760 -0.1605 -0.2084
12479TIP3    H158928   4.371   3.389   5.648 -0.1895  1.0261 -0.0566
12479TIP3    H258929   4.259   3.397   5.750  0.1747 -0.4054  0.4708
12480TIP3   OH258930   4.041   5.439   1.182  0.0618  0.7295 -0.5738
12480TIP3    H158931   3.995   5.477   1.107 -0.8082 -1.3921 -1.1457
12480TIP3    H258932   4.038   5.344   1.167  2.0956  0.3989  0.8623
12481TIP3   OH258933   5.027   6.440   3.343  0.4874  0.3413  0.1172
12481TIP3    H158934   5.011   6.534   3.346  0.3657  0.3223  0.0943
12481TIP3    H258935   5.039   6.420   3.250 -0.5035  0.1713  0.0183
12482TIP3   OH258936   4.875   4.516   1.900 -0.6975 -0.6295 -0.2478
12482TIP3    H158937   4.853   4.478   1.815  0.5823  0.3713 -1.0685
12482TIP3    H258938   4.836   4.604   1.897  0.0140 -0.3042 -0.1331
12483TIP3   OH258939   1.983   5.851   5.337  0.7242 -0.7922  0.4934
12483TIP3    H158940   1.978   5.928   5.394  0.8869 -0.8538  0.5900
12483TIP3    H258941   1.902   5.803   5.354  2.3893 -2.7196  3.3871
12484TIP3   OH258942   2.468   0.182  16.096  0.0956 -0.4283  0.6115
12484TIP3    H158943   2.510   0.207  16.014 -3.3823  1.7280 -0.6588
12484TIP3    H258944   2.444   0.090  16.083  1.9692 -0.9014  0.3307
12485TIP3   OH258945   3.001   2.625  14.186 -0.0683  0.5350  0.0879
12485TIP3    H158946   2.963   2.582  14.109  1.2494  1.0952 -0.8918
12485TIP3    H258947   3.043   2.553  14.234 -2.1490 -0.0515  1.0677
12486TIP3   OH258948   3.477   5.080  16.732 -0.4732  0.6306  0.7538
12486TIP3    H158949   3.451   5.129  16.654 -1.1821  1.4241  1.4741
12486TIP3    H258950   3.395   5.063  16.778 -0.3547 -2.2160 -0.0205
12487TIP3   OH258951   5.965   6.162   0.035 -0.1944  0.3491  0.0058
12487TIP3    H158952   5.896   6.119  -0.015 -0.2770 -0.6775  0.9689
12487TIP3    H258953   5.922   6.186   0.118  0.4126  0.3368  0.3253
12488TIP3   OH258954   5.924   1.063  11.408  0.0793  0.1911  0.2906
12488TIP3    H158955   5.929   1.043  11.315  2.2999 -0.4797  0.5340
12488TIP3    H258956   5.850   1.011  11.440 -1.0691  0.8872 -1.1885
12489TIP3   OH258957   0.820   1.697  15.433  0.1223  0.0440 -0.2952
12489TIP3    H158958   0.880   1.713  15.360 -0.0547  0.6680 -0.3011
12489TIP3    H258959   0.875   1.705  15.511  0.3418 -0.7602 -0.3609
12490TIP3   OH258960   1.267   1.166  17.069 -0.1187  0.3093  0.4311
12490TIP3    H158961   1.284   1.135  17.158 -1.1516  0.0638  0.5594
12490TIP3    H258962   1.352   1.196  17.037  0.7757 -1.9623  0.5733
12491TIP3   OH258963   1.284   2.392   0.971  0.1342 -0.3814 -0.8094
12491TIP3    H158964   1.288   2.412   0.877 -1.2652 -0.7247 -0.9489
12491TIP3    H258965   1.191   2.376   0.988  0.0766  1.6767  1.0543
12492TIP3   OH258966   5.760   4.795   5.531  0.4850 -0.4994  0.5270
12492TIP3    H158967   5.675   4.838   5.516 -0.2437 -2.2472 -0.5166
12492TIP3    H258968   5.765   4.785   5.626 -0.1948  0.1748  0.6472
12493TIP3   OH258969   0.670   5.795  16.117 -1.1783  0.0338 -0.2628
12493TIP3    H158970   0.591   5.753  16.084 -0.7857 -2.2582  1.5246
12493TIP3    H258971   0.639   5.854  16.186 -1.4376 -0.1672 -0.2060
12494TIP3   OH258972   0.659   2.739   0.569 -0.4214  0.0659  0.0523
12494TIP3    H158973   0.616   2.800   0.509  0.8166  1.4332  0.5116
12494TIP3    H258974   0.644   2.777   0.656  3.0940  1.5221  0.0972
12495TIP3   OH258975   1.825   5.326  12.189 -0.1844  0.4094 -0.1714
12495TIP3    H158976   1.853   5.235  12.190 -2.1601 -0.2076 -0.4289
12495TIP3    H258977   1.803   5.344  12.097  3.9159  2.3332 -0.8877
12496TIP3   OH258978   0.813   3.560   6.592 -0.4596 -0.5878 -0.5285
12496TIP3    H158979   0.757   3.554   6.515 -0.3841 -0.3085 -0.6049
12496TIP3    H258980   0.886   3.616   6.565 -0.6530 -0.1368 -0.1249
12497TIP3   OH258981   0.132   4.617  15.741  0.6069 -0.5954  0.0914
12497TIP3    H158982   0.112   4.549  15.806  3.2265 -1.2285  0.2590
12497TIP3    H258983   0.141   4.569  15.659  3.0476 -0.5743  0.3096
12498TIP3   OH258984   6.180   0.817   4.001 -0.2352 -0.6257  0.4799
12498TIP3    H158985   6.125   0.762   4.056  0.8208  0.0678  2.2974
12498TIP3    H258986   6.170   0.905   4.037  0.5049 -0.1558 -0.4212
12499TIP3   OH258987   0.703   0.962  15.743 -0.2275 -0.2782  0.2111
12499TIP3    H158988   0.664   1.036  15.696 -2.5664 -1.6579 -0.0891
12499TIP3    H258989   0.686   0.886  15.688 -1.2932 -1.6226  2.3190
12500TIP3   OH258990   5.987   0.630   5.976  0.3731  0.5065 -0.7989
12500TIP3    H158991   5.893   0.612   5.983  0.5555  0.5309  3.2451
12500TIP3    H258992   6.024   0.549   5.941 -0.7634 -0.8763  1.0739
12501TIP3   OH258993   2.031   0.508   4.456 -0.4641 -0.4791 -0.0714
12501TIP3    H158994   1.950   0.526   4.410 -0.0016  0.9932 -0.3427
12501TIP3    H258995   2.099   0.517   4.390  0.2449  2.0549  0.9357
12502TIP3   OH258996   6.657   1.477   1.518 -0.1302 -0.1535  0.0806
12502TIP3    H158997   6.678   1.418   1.446 -0.3715 -1.2079  0.8586
12502TIP3    H258998   6.606   1.423   1.579  0.1085  0.7122  1.0584
12503TIP3   OH258999   2.557   2.958   4.620  0.1410 -0.4635 -0.1268
12503TIP3    H159000   2.635   3.000   4.584  0.3227 -0.5641  0.1383
12503TIP3    H259001   2.484   2.998   4.574  0.4133 -1.3467 -1.3584
12504TIP3   OH259002   0.751   1.567  15.888  0.2309  0.8313 -0.2423
12504TIP3    H159003   0.816   1.526  15.832  1.3797  0.5116  1.2938
12504TIP3    H259004   0.673   1.513  15.878  0.7139  0.2461 -0.8267
12505TIP3   OH259005   4.844   4.047  14.992 -0.0783 -0.4002 -0.3027
12505TIP3    H159006   4.886   4.007  15.069 -0.8251 -2.6369 -1.0300
12505TIP3    H259007   4.756   4.009  14.991 -0.4381  0.4694 -1.6400
12506TIP3   OH259008   1.709   2.185   4.442 -0.4882  0.0407  0.1667
12506TIP3    H159009   1.675   2.132   4.369  0.3804  2.2981 -1.9346
12506TIP3    H259010   1.801   2.159   4.449 -0.6654 -0.4538  0.7481
12507TIP3   OH259011   0.215   0.267  15.712  0.2433 -0.1224  0.1414
12507TIP3    H159012   0.258   0.280  15.628 -0.3922  1.7314  0.0842
12507TIP3    H259013   0.270   0.313  15.775  0.1587 -0.6271  0.5933
12508TIP3   OH259014   1.169   0.044   6.210 -0.4275 -0.2943  0.0877
12508TIP3    H159015   1.083   0.003   6.216  0.6905 -3.0659 -1.8290
12508TIP3    H259016   1.195   0.034   6.119  2.0682  0.2058  0.6903
12509TIP3   OH259017   0.468   6.448  15.801  0.4892  0.2044  0.1206
12509TIP3    H159018   0.436   6.490  15.881  0.0043 -0.5515  0.3268
12509TIP3    H259019   0.538   6.390  15.831 -2.0069 -2.7719  0.5226
12510TIP3   OH259020   0.582   2.044  12.511  0.4587  0.9081  0.0643
12510TIP3    H159021   0.505   2.025  12.457  0.9178  0.1646 -0.3351
12510TIP3    H259022   0.637   1.966  12.502  2.1193  2.1801 -1.1474
12511TIP3   OH259023   4.428   3.730  15.319 -0.3901 -0.2354 -0.1026
12511TIP3    H159024   4.355   3.757  15.376  0.5161  0.3909  0.7888
12511TIP3    H259025   4.482   3.675  15.375  1.5072  1.9184  0.2490
12512TIP3   OH259026   2.539   5.892  14.311  0.1139  0.5781  0.1596
12512TIP3    H159027   2.574   5.920  14.396  0.6039  0.3089  0.0507
12512TIP3    H259028   2.565   5.962  14.251  2.3982 -0.6640 -0.3475
12513TIP3   OH259029   0.566   3.727   3.171 -0.2255 -0.4665  0.0545
12513TIP3    H159030   0.661   3.734   3.182 -0.4970  1.3029  1.6219
12513TIP3    H259031   0.550   3.752   3.080  0.9516 -2.6417 -0.7907
12514TIP3   OH259032   1.987   2.847   3.175 -0.2007  0.2196 -0.1952
12514TIP3    H159033   1.943   2.763   3.161  1.7604 -0.8658  0.0347
12514TIP3    H259034   1.965   2.870   3.265 -0.1050 -0.4561  0.0095
12515TIP3   OH259035   3.820   3.383   2.424 -0.2072 -0.2706 -0.2342
12515TIP3    H159036   3.883   3.382   2.496 -0.8523  0.0611  0.3504
12515TIP3    H259037   3.873   3.380   2.345  0.4782 -4.4434  0.2251
12516TIP3   OH259038   5.929   6.599  14.374  0.5033 -0.2637  0.4971
12516TIP3    H159039   5.922   6.655  14.296 -3.1244 -1.5910 -0.1861
12516TIP3    H259040   5.993   6.532  14.349  1.0458  0.5893 -0.4985
12517TIP3   OH259041   5.471   1.269  14.453 -0.7688 -0.1104  0.1214
12517TIP3    H159042   5.505   1.201  14.395 -1.2573 -0.0181 -0.2796
12517TIP3    H259043   5.541   1.284  14.516  0.1311  0.4497 -1.0069
12518TIP3   OH259044   0.011   3.881  11.418 -0.1199 -0.1874  0.7591
12518TIP3    H159045   0.093   3.838  11.442 -0.0213 -0.4699 -0.0624
12518TIP3    H259046   0.037   3.956  11.364 -0.4127 -0.4563  0.2348
12519TIP3   OH259047   3.411   4.229   3.549  0.0200  0.3116 -0.4561
12519TIP3    H159048   3.317   4.247   3.553  0.1425  0.9177 -0.1493
12519TIP3    H259049   3.438   4.224   3.641 -0.1084 -2.0826 -0.5249
12520TIP3   OH259050   6.722   3.512  17.254  0.1829  0.2153 -0.0417
12520TIP3    H159051   6.748   3.461  17.331  1.4904  0.8401 -0.0623
12520TIP3    H259052   6.723   3.603  17.284  1.1911  0.5067 -0.9315
12521TIP3   OH259053   6.030   1.988   3.044  0.0342 -1.0496 -0.1194
12521TIP3    H159054   6.006   1.968   3.135 -0.6204 -2.0249 -0.4875
12521TIP3    H259055   6.012   2.081   3.034 -1.9199 -1.3609  0.1681
12522TIP3   OH259056   0.446   5.536   4.333 -0.2077 -0.4298 -0.3911
12522TIP3    H159057   0.399   5.457   4.359 -2.4008 -0.6501 -4.5696
12522TIP3    H259058   0.395   5.608   4.370 -0.2353 -0.8709  0.4317
12523TIP3   OH259059   2.091   6.762  15.891  0.3548 -0.4217  0.1924
12523TIP3    H159060   2.072   6.705  15.965 -0.5939  0.9931  1.0461
12523TIP3    H259061   2.005   6.785  15.855  0.7804 -0.5303 -0.9262
12524TIP3   OH259062   2.835   3.075   5.070 -0.0422  0.3760 -0.0128
12524TIP3    H159063   2.861   3.111   5.155  0.5182  0.2447 -0.1261
12524TIP3    H259064   2.914   3.080   5.016 -0.4510  0.6486 -0.5935
12525TIP3   OH259065   2.743   2.068   5.769 -0.8534  0.1610  0.1189
12525TIP3    H159066   2.786   2.003   5.825  0.1992  0.2373 -0.5863
12525TIP3    H259067   2.783   2.151   5.793 -1.9445  0.5185  0.7666
12526TIP3   OH259068   3.160   0.135  16.265 -0.8598 -0.1587  0.2602
12526TIP3    H159069   3.204   0.051  16.279 -0.3968  0.2027  0.9910
12526TIP3    H259070   3.079   0.127  16.316 -0.8205 -0.1664  0.3200
12527TIP3   OH259071   2.155   3.000   0.833  0.6427  0.6667  0.1884
12527TIP3    H159072   2.088   3.021   0.898  1.0498  0.1203  0.7847
12527TIP3    H259073   2.118   2.928   0.782  1.4635 -0.7645  1.5959
12528TIP3   OH259074   6.706   0.494   1.314  0.3700  0.1276 -0.3249
12528TIP3    H159075   6.637   0.427   1.313  0.4095  0.0763  0.4618
12528TIP3    H259076   6.681   0.554   1.384  1.3133 -0.0941  0.2128
12529TIP3   OH259077   1.496   3.101  13.316 -0.1565  0.7762  0.0395
12529TIP3    H159078   1.485   3.188  13.278 -0.8104  0.6087 -0.1515
12529TIP3    H259079   1.430   3.047  13.273 -1.6503  0.8426  2.1878
12530TIP3   OH259080   0.880   1.884   4.722 -0.4273  0.2148  0.4022
12530TIP3    H159081   0.881   1.830   4.643  1.5666  0.3462  0.3212
12530TIP3    H259082   0.897   1.823   4.794 -1.2780  0.2480  0.6375
12531TIP3   OH259083   5.735   0.256  16.302 -0.3869  0.0102 -0.9202
12531TIP3    H159084   5.770   0.204  16.230 -0.4255  1.1917 -1.8184
12531TIP3    H259085   5.670   0.199  16.344 -0.6630 -0.5538 -2.0826
12532TIP3   OH259086   5.863   3.835   4.323  0.1597 -0.2224  0.3851
12532TIP3    H159087   5.910   3.763   4.366  1.0569  0.1701  0.0800
12532TIP3    H259088   5.813   3.877   4.393 -0.4396 -1.1991  0.5470
12533TIP3   OH259089   3.421   1.916  15.013 -0.2369  0.5235 -0.0390
12533TIP3    H159090   3.343   1.967  15.033 -1.9661 -1.0043 -2.4817
12533TIP3    H259091   3.458   1.958  14.936  0.4280  0.3141  0.1653
12534TIP3   OH259092   3.801   0.709   3.208 -0.2092 -0.2413  0.5138
12534TIP3    H159093   3.824   0.762   3.284 -1.0386  1.5734 -0.4825
12534TIP3    H259094   3.729   0.654   3.239 -0.7556  0.7116  0.9587
12535TIP3   OH259095   3.772   4.950  15.701  0.2739  0.0875  0.1109
12535TIP3    H159096   3.682   4.922  15.681  0.1676  0.1848  0.4344
12535TIP3    H259097   3.781   4.933  15.795 -0.1705  2.1336  0.5699
12536TIP3   OH259098   4.389   6.409  11.515  0.1028 -0.0826 -0.2098
12536TIP3    H159099   4.322   6.452  11.462 -1.1928 -0.1165  1.3363
12536TIP3    H259100   4.349   6.326  11.542  1.9207 -1.5121 -1.7270
12537TIP3   OH259101   0.089   4.288   4.876  0.1891  0.2349  0.0133
12537TIP3    H159102   0.057   4.377   4.892 -1.9468 -0.5433  0.2286
12537TIP3    H259103   0.014   4.231   4.895  1.9603 -1.7471  1.3540
12538TIP3   OH259104   3.179   5.785   3.051 -0.3033  0.5092 -0.0161
12538TIP3    H159105   3.199   5.869   3.094  2.2959  0.3881 -0.8456
12538TIP3    H259106   3.177   5.721   3.122 -0.1449  0.9585  0.3958
12539TIP3   OH259107   3.298   6.766  15.713 -0.3939  0.2123  0.2191
12539TIP3    H159108   3.276   6.819  15.789 -1.6057 -0.2899  0.2430
12539TIP3    H259109   3.356   6.821  15.661 -1.3097  1.4154  0.4408
12540TIP3   OH259110   0.262   4.379  14.732 -0.4450 -0.3353 -0.4146
12540TIP3    H159111   0.270   4.284  14.721  1.0029 -0.3384  0.6162
12540TIP3    H259112   0.172   4.398  14.704 -0.0271 -1.6645 -2.8470
12541TIP3   OH259113   4.245   6.240  12.734  0.0301  0.0956 -0.1928
12541TIP3    H159114   4.315   6.178  12.758 -1.4399 -2.0087 -1.2115
12541TIP3    H259115   4.276   6.279  12.653  1.7441  1.9949  1.3237
12542TIP3   OH259116   3.442   0.171  12.608 -0.1384 -0.6396  0.1300
12542TIP3    H159117   3.458   0.191  12.516 -0.3492 -0.1695  0.1898
12542TIP3    H259118   3.353   0.135  12.609 -0.8471  1.0482  0.3694
12543TIP3   OH259119   2.641   2.591  11.489  0.3229  0.3247 -0.1274
12543TIP3    H159120   2.623   2.530  11.560  1.7231 -1.0739 -0.9639
12543TIP3    H259121   2.572   2.574  11.424 -0.7103  1.3211  0.6739
12544TIP3   OH259122   0.708   0.901   5.211  0.1242 -0.3329 -0.4015
12544TIP3    H159123   0.689   0.813   5.243 -0.4385  0.0663  0.3983
12544TIP3    H259124   0.777   0.933   5.269 -0.4490  0.1566  0.0256
12545TIP3   OH259125   3.482   0.609  13.611  0.4217 -0.5834  0.6544
12545TIP3    H159126   3.510   0.648  13.693  0.4000 -0.3138  0.5362
12545TIP3    H259127   3.403   0.659  13.586  1.1364  0.1652 -0.1513
12546TIP3   OH259128   0.474   3.997  10.293 -0.5190 -0.3808 -0.7806
12546TIP3    H159129   0.515   4.050  10.361  0.8769  0.2498 -2.0592
12546TIP3    H259130   0.519   3.912  10.298 -0.7227 -0.4814 -0.6387
12547TIP3   OH259131   2.317   6.098  15.240 -0.7788  0.3843  0.1920
12547TIP3    H159132   2.360   6.158  15.302 -1.1403  1.8063 -0.8903
12547TIP3    H259133   2.273   6.034  15.295  0.5251  0.4707  1.3661
12548TIP3   OH259134   2.533   5.840  16.297  0.1317 -0.4392  0.2426
12548TIP3    H159135   2.604   5.776  16.296 -1.2377 -2.0692  2.1402
12548TIP3    H259136   2.477   5.814  16.224  1.7285  1.2187 -1.6443
12549TIP3   OH259137   0.546   2.702  11.909  0.0470 -0.9933 -0.4430
12549TIP3    H159138   0.569   2.618  11.950  0.0901 -1.4975 -1.4950
12549TIP3    H259139   0.451   2.709  11.921  0.2690 -0.3790  1.1436
12550TIP3   OH259140   0.290   4.967  15.495  0.3888 -0.0068 -0.2653
12550TIP3    H159141   0.325   5.034  15.553 -1.2191 -0.1207  0.8678
12550TIP3    H259142   0.271   5.013  15.413  0.3920  0.6636  0.1078
12551TIP3   OH259143   0.210   4.005   4.135 -0.4027 -0.4404  0.1334
12551TIP3    H159144   0.171   3.918   4.134 -1.9411  0.2481  0.1913
12551TIP3    H259145   0.201   4.034   4.226 -0.8210  0.1954 -0.1099
12552TIP3   OH259146   1.022   6.759  12.730 -0.4500 -0.2408 -0.6388
12552TIP3    H159147   1.064   6.777  12.813 -0.9477  1.7683 -0.8032
12552TIP3    H259148   1.089   6.714  12.678  0.1263 -0.7502  0.5336
12553TIP3   OH259149   4.483   1.815  16.308 -0.2569 -0.1209 -0.2653
12553TIP3    H159150   4.404   1.764  16.329 -0.3429 -0.0475 -0.4103
12553TIP3    H259151   4.512   1.779  16.224  0.7555 -1.2206  0.5219
12554TIP3   OH259152   5.948   2.335  10.951 -0.1730 -0.5625  0.0699
12554TIP3    H159153   6.028   2.368  10.910 -0.3508 -0.6407 -0.3416
12554TIP3    H259154   5.968   2.244  10.971  0.2415 -0.2746  1.0079
12555TIP3   OH259155   1.588   3.666   5.442  0.0300  0.2516  0.4882
12555TIP3    H159156   1.552   3.613   5.513 -2.1639  0.3300 -0.5310
12555TIP3    H259157   1.584   3.608   5.365  1.9505  0.3270  0.3159
12556TIP3   OH259158   6.784   6.490  13.908  0.3458 -0.1132  0.0812
12556TIP3    H159159   6.832   6.443  13.840 -0.1149 -0.1570 -0.2188
12556TIP3    H259160   6.709   6.527  13.862  0.5826  0.7282  0.3609
12557TIP3   OH259161   0.382   0.653  13.818 -0.2480  0.0515  0.0442
12557TIP3    H159162   0.443   0.608  13.759 -1.2511 -1.5704  0.2057
12557TIP3    H259163   0.393   0.609  13.902 -1.1661  0.1978  0.2384
12558TIP3   OH259164   3.537   5.619   5.188  0.5819  0.0696  0.0855
12558TIP3    H159165   3.442   5.630   5.202  0.2109 -0.7286 -1.7079
12558TIP3    H259166   3.554   5.663   5.105  1.4841 -1.2032 -0.4154
12559TIP3   OH259167   5.771   1.769   3.888  0.4608  0.9463  0.5976
12559TIP3    H159168   5.714   1.835   3.926  2.0534  2.8160 -0.1615
12559TIP3    H259169   5.842   1.758   3.952 -1.1998 -2.1578  2.0522
12560TIP3   OH259170   1.431   4.651  15.202 -0.7011 -0.5952 -0.2248
12560TIP3    H159171   1.400   4.673  15.114 -0.9596 -0.9375 -0.2231
12560TIP3    H259172   1.351   4.627  15.250 -0.5860 -0.2062  0.1610
12561TIP3   OH259173   4.586   2.235  15.302  0.2469  0.6895  0.0822
12561TIP3    H159174   4.654   2.199  15.359  0.3054  0.5191 -0.0967
12561TIP3    H259175   4.632   2.266  15.225  0.0673  0.1931 -0.2221
12562TIP3   OH259176   3.596   4.551  14.586  0.1134  0.2160 -0.2205
12562TIP3    H159177   3.560   4.473  14.629 -0.4135 -0.6198 -2.1124
12562TIP3    H259178   3.546   4.624  14.622 -1.1959 -0.5985 -0.3620
12563TIP3   OH259179   1.439   2.504   4.354 -0.1973  0.1096  0.4571
12563TIP3    H159180   1.470   2.431   4.300 -0.4842 -0.5620  1.1875
12563TIP3    H259181   1.519   2.553   4.374  0.1679 -0.6311  0.8793
12564TIP3   OH259182   2.455   5.109   3.895 -0.1929 -0.2566 -0.2061
12564TIP3    H159183   2.372   5.108   3.846  0.6867 -1.4970 -1.7187
12564TIP3    H259184   2.478   5.202   3.901 -1.5470  0.0732 -0.0488
12565TIP3   OH259185   1.722   4.828   4.030  0.1130  0.2491 -0.3460
12565TIP3    H159186   1.654   4.888   4.060 -0.4269 -0.8192  0.6078
12565TIP3    H259187   1.687   4.790   3.949 -0.4877 -0.4161  0.2288
12566TIP3   OH259188   5.009   5.807   1.560 -0.2885  0.4436 -0.3135
12566TIP3    H159189   5.062   5.882   1.535 -1.5735  1.0295 -1.3000
12566TIP3    H259190   5.002   5.813   1.656  3.9740 -1.3705  0.2315
12567TIP3   OH259191   2.351   3.322   4.149  0.2352 -0.5856 -0.4828
12567TIP3    H159192   2.434   3.276   4.134 -0.6109 -2.6173  0.7924
12567TIP3    H259193   2.376   3.411   4.171  2.0158 -0.8292 -1.4558
12568TIP3   OH259194   0.927   4.264  16.310 -0.2156 -0.2468  0.2871
12568TIP3    H159195   0.915   4.172  16.285 -0.3395 -0.1773  0.0926
12568TIP3    H259196   0.878   4.314  16.245 -0.7218 -0.0753  0.8028
12569TIP3   OH259197   3.177   0.046  12.341 -0.1078 -0.1068  0.3799
12569TIP3    H159198   3.107   0.066  12.279  0.0854 -2.3928 -0.6050
12569TIP3    H259199   3.214  -0.037  12.311  1.8560  0.1570  1.9289
12570TIP3   OH259200   1.914   6.333  17.290 -0.4586  0.6202  0.0913
12570TIP3    H159201   1.909   6.332  17.386  0.1541 -0.8235  0.1193
12570TIP3    H259202   1.835   6.286  17.261  0.7835 -1.4700 -0.0206
12571TIP3   OH259203   1.036   3.300  14.937  0.1741  0.1995  0.1122
12571TIP3    H159204   1.038   3.210  14.968  1.1718 -0.5621 -2.1429
12571TIP3    H259205   1.040   3.294  14.842 -0.8721  2.5884 -0.1275
12572TIP3   OH259206   3.687   3.555  17.275  0.0663  0.2642 -0.2927
12572TIP3    H159207   3.647   3.520  17.355 -0.2150  0.4818 -0.3402
12572TIP3    H259208   3.780   3.564  17.297 -0.0598  0.6048  0.1057
12573TIP3   OH259209   1.338   4.175  16.937 -0.1379 -0.3212 -0.1598
12573TIP3    H159210   1.339   4.253  16.991 -2.1516  1.1268 -2.1152
12573TIP3    H259211   1.306   4.205  16.852 -0.0803 -3.0953 -1.2238
12574TIP3   OH259212   5.819   0.895  14.522 -0.3459 -0.4377 -0.5213
12574TIP3    H159213   5.766   0.836  14.469 -1.7972  1.8273 -1.6368
12574TIP3    H259214   5.761   0.924  14.592  0.0144  0.4761 -0.5867
12575TIP3   OH259215   0.540   6.497  14.134 -0.0206 -0.0634  0.3851
12575TIP3    H159216   0.581   6.411  14.124 -0.8907 -0.3320 -1.0121
12575TIP3    H259217   0.577   6.532  14.215  1.9157 -0.8779 -0.1240
12576TIP3   OH259218   5.766   0.207  11.350  0.4139  0.0005 -0.2106
12576TIP3    H159219   5.721   0.131  11.314 -1.5741  1.4057 -0.7656
12576TIP3    H259220   5.856   0.178  11.364  0.2258 -1.7763 -2.4980
12577TIP3   OH259221   2.601   5.990  14.560  0.0729  0.4840  0.1476
12577TIP3    H159222   2.685   6.020  14.525  0.6144  0.8607  1.7097
12577TIP3    H259223   2.606   6.009  14.654 -0.8842 -1.4868  0.6270
12578TIP3   OH259224   1.680   3.584   4.590 -0.1563  0.0037 -0.4168
12578TIP3    H159225   1.630   3.624   4.661  1.2458  0.8931  0.0900
12578TIP3    H259226   1.703   3.657   4.533  0.2407 -0.4444 -0.8398
12579TIP3   OH259227   1.296   0.072  12.659 -0.1281 -0.3195 -0.5703
12579TIP3    H159228   1.279   0.135  12.730 -0.1781 -1.0023  0.0325
12579TIP3    H259229   1.369   0.019  12.692  0.7035  0.1908 -1.5709
12580TIP3   OH259230   2.652   1.759  16.021  0.0263  0.1312  0.1395
12580TIP3    H159231   2.588   1.722  16.082 -0.7781  0.6408 -0.3916
12580TIP3    H259232   2.705   1.818  16.075 -0.3956  0.2455  0.4347
12581TIP3   OH259233   0.125   0.813  14.253 -0.4391 -0.0763  0.3053
12581TIP3    H159234   0.041   0.779  14.222 -0.3239  0.5751 -0.7636
12581TIP3    H259235   0.181   0.736  14.260 -0.9125 -0.4214  0.3150
12582TIP3   OH259236   6.801   5.359   1.419  0.6435  0.1851 -0.5420
12582TIP3    H159237   6.877   5.391   1.469  0.4313  1.3868 -0.9677
12582TIP3    H259238   6.742   5.324   1.485  1.2103 -0.0058 -0.1298
12583TIP3   OH259239   6.570   5.507  14.873  0.0496  0.3305  0.3424
12583TIP3    H159240   6.533   5.552  14.797 -2.0781  1.2651  1.9112
12583TIP3    H259241   6.519   5.427  14.880  0.0896  0.3619  0.9434
12584TIP3   OH259242   4.614   5.010   3.726  0.3110 -0.3085 -0.0677
12584TIP3    H159243   4.526   5.029   3.694  0.3740 -0.4030 -0.2999
12584TIP3    H259244   4.613   5.037   3.817 -0.1773 -0.9753  0.1269
12585TIP3   OH259245   1.510   0.937  14.622  0.0821  0.2381  0.4874
12585TIP3    H159246   1.419   0.907  14.629 -0.1205  0.4848 -1.0255
12585TIP3    H259247   1.562   0.858  14.637 -0.3811  0.0982  1.3743
12586TIP3   OH259248   1.875   5.177   3.992  0.5110 -0.1188  0.7257
12586TIP3    H159249   1.954   5.201   3.943 -0.2676 -0.3858 -0.6721
12586TIP3    H259250   1.821   5.129   3.929  0.0743 -1.6493  2.2232
12587TIP3   OH259251   4.477   3.024  12.702  0.0084  0.5458  0.2104
12587TIP3    H159252   4.390   3.034  12.740 -0.6420  0.2584 -1.1634
12587TIP3    H259253   4.537   3.049  12.772 -1.1118 -1.0808  1.8019
12588TIP3   OH259254   6.471   6.208  16.690 -0.4385 -0.3985  0.0575
12588TIP3    H159255   6.437   6.131  16.735  3.0683 -2.9672 -1.3666
12588TIP3    H259256   6.424   6.210  16.607 -0.7460 -0.8412  0.2196
12589TIP3   OH259257   6.423   2.803  11.354 -0.5047  0.2911 -0.2977
12589TIP3    H159258   6.510   2.825  11.386 -0.1587  0.6097 -1.4147
12589TIP3    H259259   6.387   2.743  11.419  0.5845  0.0914  0.1224
12590TIP3   OH259260   6.085   1.928   5.347 -0.7437  0.3958  0.1268
12590TIP3    H159261   5.999   1.900   5.316 -0.2452 -1.0255 -0.0227
12590TIP3    H259262   6.138   1.936   5.267 -0.9823  2.1824  0.1296
12591TIP3   OH259263   4.431   5.589  15.324 -0.0993 -0.3381  0.7510
12591TIP3    H159264   4.419   5.500  15.355  1.6579 -0.0142  2.5119
12591TIP3    H259265   4.362   5.602  15.259 -2.1049 -2.0337  2.4705
12592TIP3   OH259266   5.320   6.112  12.405  0.4744  0.7815  0.1078
12592TIP3    H159267   5.256   6.100  12.334 -0.8804 -0.0504  1.4375
12592TIP3    H259268   5.361   6.196  12.385 -0.8972  1.2461 -0.8957
12593TIP3   OH259269   3.856   5.825  16.072  0.0747  0.0625 -0.0285
12593TIP3    H159270   3.804   5.892  16.028  0.6006 -0.7942 -1.9988
12593TIP3    H259271   3.922   5.799  16.008  0.6449 -1.4642  1.1372
12594TIP3   OH259272   6.550   5.983  15.932 -0.2258 -0.4056  0.2405
12594TIP3    H159273   6.614   5.932  15.982  1.2211  1.4343  0.3459
12594TIP3    H259274   6.585   6.072  15.934 -1.9677  0.3271 -1.1180
12595TIP3   OH259275   6.038   3.432  10.649 -0.0964 -0.5657  0.5202
12595TIP3    H159276   6.077   3.519  10.649 -1.7090  0.1685  0.3058
12595TIP3    H259277   6.095   3.380  10.707 -0.2501  1.1328  2.2314
12596TIP3   OH259278   6.247   1.411  11.819  0.2016 -0.9779 -0.5625
12596TIP3    H159279   6.302   1.408  11.897  1.2417  0.9418 -1.1822
12596TIP3    H259280   6.309   1.403  11.746 -0.4352  0.1998 -1.2479
12597TIP3   OH259281   1.484   1.402   5.099  0.4512 -0.1389 -0.3016
12597TIP3    H159282   1.434   1.474   5.138 -0.0782 -0.0912 -1.0719
12597TIP3    H259283   1.519   1.438   5.018 -0.5280 -1.0136 -1.1200
12598TIP3   OH259284   5.653   2.239   4.449 -0.5075  0.1919 -0.1228
12598TIP3    H159285   5.589   2.169   4.434 -1.1952 -0.0495  3.5040
12598TIP3    H259286   5.735   2.194   4.469 -0.1466  0.4660 -0.9660
12599TIP3   OH259287   1.656   5.369   1.097 -0.0271 -0.0905  0.5557
12599TIP3    H159288   1.563   5.375   1.119 -0.1019  0.4351  0.0976
12599TIP3    H259289   1.700   5.424   1.162 -0.1262  0.4172  0.1949
12600TIP3   OH259290   6.491   1.255   6.537  0.1869  0.1145 -0.2919
12600TIP3    H159291   6.511   1.205   6.617  1.5293 -1.1014 -1.3581
12600TIP3    H259292   6.575   1.296   6.514 -0.1655  0.3302 -1.1675
12601TIP3   OH259293   6.310   4.103  13.227  0.1363 -0.0863  0.3074
12601TIP3    H159294   6.387   4.074  13.276  0.9408  1.3410 -0.0549
12601TIP3    H259295   6.300   4.040  13.156  1.4289  0.1137 -0.0646
12602TIP3   OH259296   2.607   6.434  16.454 -0.2371  0.1636 -0.1180
12602TIP3    H159297   2.556   6.376  16.510  0.5127 -0.2867  0.1044
12602TIP3    H259298   2.697   6.399  16.458 -0.3960 -0.6423 -2.5919
12603TIP3   OH259299   0.697   6.764   5.187 -0.2339 -0.5225  0.3422
12603TIP3    H159300   0.779   6.814   5.179  0.1813 -0.4026  4.2546
12603TIP3    H259301   0.714   6.683   5.140  2.1039 -0.4471  0.9638
12604TIP3   OH259302   4.324   6.510  10.876 -0.3560 -0.0145 -0.1899
12604TIP3    H159303   4.311   6.447  10.947  0.2100  0.4791  0.3524
12604TIP3    H259304   4.247   6.499  10.820  0.2573 -1.9330 -0.6827
12605TIP3   OH259305   6.018   5.537   5.414  0.3900  0.2097 -0.2505
12605TIP3    H159306   5.981   5.461   5.459  0.0556  0.1658 -0.5956
12605TIP3    H259307   5.942   5.584   5.380  0.5307  1.3532  0.9989
12606TIP3   OH259308   4.195   0.981   5.751  0.2160 -0.3442  0.2106
12606TIP3    H159309   4.209   1.034   5.829 -0.9489  0.6700 -0.2553
12606TIP3    H259310   4.274   0.995   5.699 -0.3165  1.4030 -0.1606
12607TIP3   OH259311   5.089   4.857  15.338  0.3567 -0.5931 -0.0787
12607TIP3    H159312   5.107   4.912  15.414  1.3408 -1.1020  0.0677
12607TIP3    H259313   5.008   4.892  15.301 -0.3544 -0.5797  1.4315
12608TIP3   OH259314   4.741   3.818   0.647 -0.5822 -0.2649 -0.2485
12608TIP3    H159315   4.819   3.795   0.596 -2.4924  1.7371 -4.2395
12608TIP3    H259316   4.753   3.910   0.669 -1.0241 -0.4241  0.6770
12609TIP3   OH259317   3.468   4.664  14.247  0.2149  0.3297 -0.4693
12609TIP3    H159318   3.417   4.736  14.283 -1.2743 -0.5580 -0.7777
12609TIP3    H259319   3.459   4.672  14.152 -0.4014 -0.5547 -0.4979
12610TIP3   OH259320   6.379   0.351  15.343 -0.1972  0.7205 -0.4302
12610TIP3    H159321   6.436   0.366  15.419 -1.1287  1.6608  0.1201
12610TIP3    H259322   6.374   0.437  15.300 -1.4700  0.7487 -0.2539
12611TIP3   OH259323   0.350   1.327  17.210 -0.0858  0.2972 -0.1109
12611TIP3    H159324   0.321   1.303  17.298  0.7938 -0.2551  0.0330
12611TIP3    H259325   0.423   1.267  17.191 -0.6472  0.0203 -1.4526
12612TIP3   OH259326   0.302   5.745  14.261  0.6353 -0.1176 -0.4934
12612TIP3    H159327   0.209   5.753  14.239  0.7618 -0.2185 -1.0494
12612TIP3    H259328   0.316   5.812  14.328 -0.0610 -0.7460  0.2916
12613TIP3   OH259329   4.573   2.938  15.192 -0.4247 -0.2109  0.3073
12613TIP3    H159330   4.538   2.894  15.269  0.0904 -1.3026 -0.0798
12613TIP3    H259331   4.606   2.868  15.137  0.0769  0.6317 -0.4806
12614TIP3   OH259332   2.843   0.066   0.116  0.2807 -0.0053  0.2827
12614TIP3    H159333   2.906   0.138   0.117 -0.2916  0.4917  0.1890
12614TIP3    H259334   2.875   0.006   0.183  1.6519 -0.4284 -0.7275
12615TIP3   OH259335   3.489   3.848  15.444  1.1871  0.3209 -0.2640
12615TIP3    H159336   3.568   3.880  15.487  0.3825  1.1042  0.6661
12615TIP3    H259337   3.516   3.766  15.402  1.9206 -0.7119  2.1150
12616TIP3   OH259338   5.392   5.221  14.729  0.3183 -0.5952  0.1378
12616TIP3    H159339   5.449   5.211  14.806 -2.0112  2.2178  2.3545
12616TIP3    H259340   5.312   5.174  14.752  0.2089 -1.1182 -1.2654
12617TIP3   OH259341   3.527   3.950   6.333 -0.0811  0.4092 -0.3209
12617TIP3    H159342   3.534   4.010   6.407 -0.1273 -1.5296  1.2982
12617TIP3    H259343   3.437   3.958   6.303 -0.2084  0.8102  0.1796
12618TIP3   OH259344   3.154   5.111  15.436  0.1639  0.3916  0.0540
12618TIP3    H159345   3.102   5.039  15.400 -0.0004  0.5245  0.0274
12618TIP3    H259346   3.159   5.175  15.365  0.2139  0.4573  0.1165
12619TIP3   OH259347   4.781   5.851  12.345  0.4751 -0.3540 -0.1289
12619TIP3    H159348   4.778   5.756  12.356 -1.5938 -0.2010  0.8422
12619TIP3    H259349   4.717   5.869  12.277 -1.0903  0.5817  1.5649
12620TIP3   OH259350   5.246   6.576  14.767 -0.3944 -0.1743  0.2333
12620TIP3    H159351   5.159   6.573  14.727 -0.0938 -0.7392 -0.3972
12620TIP3    H259352   5.235   6.629  14.846 -1.0558  0.7084 -0.4555
12621TIP3   OH259353   5.735   4.032   1.744  0.5217  0.4273 -0.2807
12621TIP3    H159354   5.741   3.939   1.765  0.0036  0.5184  0.2918
12621TIP3    H259355   5.794   4.076   1.805 -0.6016  0.6416  0.6742
12622TIP3   OH259356   1.978   4.148   5.660  0.0384  0.2408 -0.0213
12622TIP3    H159357   1.976   4.054   5.681 -0.9780  0.2526 -0.0059
12622TIP3    H259358   1.887   4.176   5.671  0.5960  1.5717  1.4807
12623TIP3   OH259359   1.420   6.156  14.809 -0.4016  0.1403  0.2742
12623TIP3    H159360   1.483   6.213  14.765 -0.1263 -0.5952 -0.2902
12623TIP3    H259361   1.448   6.067  14.787 -1.0410 -0.2075  0.8503
12624TIP3   OH259362   6.364   5.939   3.211  0.5059 -0.0901  0.3458
12624TIP3    H159363   6.280   5.985   3.224 -0.0304 -0.1251 -2.7401
12624TIP3    H259364   6.362   5.910   3.120  3.1952 -1.5414  0.7018
12625TIP3   OH259365   6.727   1.840   3.891  0.0315 -0.3075  0.7428
12625TIP3    H159366   6.639   1.877   3.893  0.4438  0.7776 -0.3149
12625TIP3    H259367   6.723   1.764   3.949 -2.0938 -1.3805 -0.7452
12626TIP3   OH259368   4.998   1.586  11.590 -0.5600 -0.0094 -0.0685
12626TIP3    H159369   5.064   1.580  11.659 -0.5458  1.8468  0.0987
12626TIP3    H259370   5.046   1.622  11.515 -1.4332  1.6785  0.1628
12627TIP3   OH259371   4.675   0.795  10.643 -0.3337 -0.3025  0.2963
12627TIP3    H159372   4.738   0.850  10.690 -0.1408 -0.2228 -0.0532
12627TIP3    H259373   4.720   0.770  10.563 -0.6642 -0.4376  0.1511
12628TIP3   OH259374   6.390   4.747  16.633 -0.6229 -0.0704 -0.1089
12628TIP3    H159375   6.374   4.667  16.684 -2.0132  1.4013  1.8492
12628TIP3    H259376   6.397   4.816  16.699 -0.0644  1.5303 -1.8117
12629TIP3   OH259377   2.365   0.089  11.951 -0.1279 -0.2881 -0.2749
12629TIP3    H159378   2.365   0.074  11.856 -0.0992 -1.1567 -0.1433
12629TIP3    H259379   2.425   0.162  11.964  0.2050 -0.4474 -0.8869
12630TIP3   OH259380   4.909   2.561   0.320 -0.7336 -0.1408 -0.0247
12630TIP3    H159381   4.853   2.628   0.282 -1.3230 -0.6545 -0.0585
12630TIP3    H259382   4.849   2.500   0.364 -0.2729 -1.0784 -0.6636
12631TIP3   OH259383   2.237   0.358   2.862  0.1262 -0.4561  1.1121
12631TIP3    H159384   2.230   0.431   2.800  0.4827 -0.7066  0.7732
12631TIP3    H259385   2.177   0.381   2.933  0.9083  0.6050  1.4534
12632TIP3   OH259386   3.015   3.866   5.552  0.4601 -0.3171  0.3860
12632TIP3    H159387   3.090   3.924   5.567  0.5492 -0.1556 -0.6650
12632TIP3    H259388   3.042   3.811   5.479 -0.5908 -0.0039 -0.2437
12633TIP3   OH259389   6.275   2.340  14.939  0.0320 -0.0125  0.2767
12633TIP3    H159390   6.245   2.266  14.886  2.6210  0.5343 -2.0601
12633TIP3    H259391   6.204   2.404  14.934 -0.9689 -1.1424 -0.1085
12634TIP3   OH259392   5.987   1.913  13.536 -0.7936  0.0017  0.2458
12634TIP3    H159393   5.955   2.000  13.563  0.0457 -0.1331  1.7186
12634TIP3    H259394   6.069   1.931  13.491 -2.0746  0.2053 -2.0735
12635TIP3   OH259395   2.535   6.586  12.935 -0.1543 -0.2715 -0.6391
12635TIP3    H159396   2.531   6.679  12.911 -0.0550  0.0318  0.5199
12635TIP3    H259397   2.446   6.563  12.959 -0.1876 -0.4943 -0.9660
12636TIP3   OH259398   4.199   0.016   2.366 -1.0140  0.3115  0.2130
12636TIP3    H159399   4.292   0.018   2.344 -0.5183  2.3732  2.2885
12636TIP3    H259400   4.197   0.007   2.461 -2.9319  0.3970  0.2065
12637TIP3   OH259401   3.061   0.569   3.252  0.3541  0.2606  0.3746
12637TIP3    H159402   3.001   0.558   3.325 -0.6928  0.1418 -0.4999
12637TIP3    H259403   3.006   0.564   3.174  1.7723 -2.0410 -0.5371
12638TIP3   OH259404   4.239   3.716  16.301  0.4743 -0.1022 -0.1334
12638TIP3    H159405   4.273   3.722  16.212 -2.1327  1.6945 -1.0557
12638TIP3    H259406   4.148   3.687  16.291 -0.4128  1.8498  1.7907
12639TIP3   OH259407   6.733   6.386  14.194  0.1177 -0.3771 -0.4858
12639TIP3    H159408   6.705   6.301  14.227 -0.1701 -0.6893 -1.5174
12639TIP3    H259409   6.654   6.424  14.156 -0.2219  1.2175  1.7513
12640TIP3   OH259410   4.301   0.091  12.082 -0.7296  0.0270  0.8120
12640TIP3    H159411   4.382   0.121  12.040 -0.4561 -0.7041  0.8087
12640TIP3    H259412   4.265   0.027  12.021 -1.6769  0.8474  0.4922
12641TIP3   OH259413   6.634   2.481  14.367 -0.0764  0.6500  0.2082
12641TIP3    H159414   6.587   2.546  14.315 -1.7026  0.0338  0.8436
12641TIP3    H259415   6.609   2.501  14.458  1.2419  0.5647  0.5920
12642TIP3   OH259416   0.584   0.066  14.619  0.1363 -0.1574  0.5846
12642TIP3    H159417   0.608   0.042  14.708 -0.5850 -2.0546  0.3022
12642TIP3    H259418   0.505   0.014  14.601 -0.2785  0.9197 -0.8178
12643TIP3   OH259419   1.907   0.780   3.089 -0.4274  0.0609  0.2086
12643TIP3    H159420   1.938   0.843   3.154  0.6249  0.3425 -0.5664
12643TIP3    H259421   1.811   0.781   3.098 -0.3446  0.8718  1.0206
12644TIP3   OH259422   2.468   1.444  17.228  0.3392  0.0880 -0.1601
12644TIP3    H159423   2.468   1.469  17.136  1.1640 -0.3331 -0.2710
12644TIP3    H259424   2.559   1.450  17.255 -0.0560  1.4311  0.9654
12645TIP3   OH259425   1.125   4.692  15.882 -0.9982 -0.3986 -0.0855
12645TIP3    H159426   1.091   4.671  15.969 -2.9264  0.3277 -0.6496
12645TIP3    H259427   1.125   4.788  15.879 -1.0941 -0.4248 -0.9569
12646TIP3   OH259428   4.832   3.698  14.732 -0.0911 -0.3922  0.5525
12646TIP3    H159429   4.892   3.626  14.752 -1.3383 -1.2528  1.2349
12646TIP3    H259430   4.873   3.744  14.658 -0.0484 -2.7244 -0.9078
12647TIP3   OH259431   1.705   1.656  14.290 -0.1083  0.0826  0.1207
12647TIP3    H159432   1.793   1.619  14.282 -0.2973 -0.7111  1.6137
12647TIP3    H259433   1.674   1.664  14.200  0.6612 -1.6500 -0.3140
12648TIP3   OH259434   0.420   3.327   2.161  0.2799 -0.0893 -0.1894
12648TIP3    H159435   0.376   3.279   2.232 -0.6532 -1.5643 -1.7465
12648TIP3    H259436   0.513   3.312   2.177  0.1585  1.0466  1.7295
12649TIP3   OH259437   0.398   3.172  10.926 -0.4925 -0.5239  0.2320
12649TIP3    H159438   0.399   3.244  10.863 -2.2939  1.1845  2.0707
12649TIP3    H259439   0.383   3.094  10.873  0.7720  0.5397 -1.7301
12650TIP3   OH259440   1.222   6.172   5.545  0.5337  0.2772  0.2728
12650TIP3    H159441   1.302   6.205   5.587  1.4555  0.0346 -1.2341
12650TIP3    H259442   1.235   6.077   5.540  0.2964  0.2664 -0.2152
12651TIP3   OH259443   1.900   3.615  15.648 -0.6818  0.5639 -0.3757
12651TIP3    H159444   1.895   3.546  15.582  0.4026 -1.8433  1.9394
12651TIP3    H259445   1.815   3.658  15.645 -1.2374 -0.6133 -2.1375
12652TIP3   OH259446   0.261   5.126   2.013  0.6826  0.4955  0.0905
12652TIP3    H159447   0.316   5.049   1.995  0.3793  0.2566  0.1784
12652TIP3    H259448   0.266   5.137   2.108 -1.0803 -0.7871  0.3654
12653TIP3   OH259449   0.316   4.783   2.345 -0.0461 -0.0794  0.4244
12653TIP3    H159450   0.322   4.849   2.414 -1.2430  0.0956  0.3779
12653TIP3    H259451   0.406   4.760   2.325  0.3996  1.6918  0.3122
12654TIP3   OH259452   1.435   6.581  17.221  0.1170  0.0735 -0.4859
12654TIP3    H159453   1.468   6.512  17.278 -1.2720  0.7686  1.2209
12654TIP3    H259454   1.437   6.660  17.276 -1.3135  0.7505 -1.3814
12655TIP3   OH259455   3.466   1.236   0.053 -0.4380  0.1500 -0.2719
12655TIP3    H159456   3.512   1.186   0.120  0.0560  0.9014 -0.0401
12655TIP3    H259457   3.373   1.219   0.070 -0.2419 -1.9593 -1.2075
12656TIP3   OH259458   1.479   4.655   5.693  0.3855 -0.1496  0.0591
12656TIP3    H159459   1.388   4.639   5.718  0.7697 -3.5617 -0.3798
12656TIP3    H259460   1.474   4.699   5.609 -0.8931 -0.7605 -0.1989
12657TIP3   OH259461   6.813   4.903   1.953  0.2853 -0.5695  0.5129
12657TIP3    H159462   6.892   4.850   1.943 -0.9111 -2.3345  0.2056
12657TIP3    H259463   6.828   4.954   2.033  2.5469  0.5966 -0.6118
12658TIP3   OH259464   4.746   0.403  13.657 -0.3534 -0.1114  0.1628
12658TIP3    H159465   4.663   0.359  13.672 -0.9880  0.8491 -0.4717
12658TIP3    H259466   4.765   0.448  13.739 -1.6649  1.6091 -0.4364
12659TIP3   OH259467   4.517   0.473  12.477  0.2305  0.1098 -0.5174
12659TIP3    H159468   4.424   0.494  12.463  0.0664 -0.6800 -0.6537
12659TIP3    H259469   4.545   0.534  12.545  0.4740  2.5892 -2.7622
12660TIP3   OH259470   5.703   2.671  12.904  0.1901 -0.2092  0.0100
12660TIP3    H159471   5.653   2.595  12.874 -0.5504 -0.7435  2.4453
12660TIP3    H259472   5.793   2.639  12.912  0.1303 -0.4509 -0.3119
12661TIP3   OH259473   2.925   1.896  14.275 -0.1773  0.3791 -0.2787
12661TIP3    H159474   2.968   1.953  14.338 -0.0496  0.9091 -0.8384
12661TIP3    H259475   2.833   1.895  14.301  0.0466 -0.2172  0.5182
12662TIP3   OH259476   1.886   1.754   4.807 -0.2581 -0.3163 -0.3949
12662TIP3    H159477   1.827   1.770   4.880 -1.3084 -1.2256 -1.0356
12662TIP3    H259478   1.915   1.664   4.817  1.4409  0.2671  0.1921
12663TIP3   OH259479   4.050   6.139   3.145  0.0394  0.1140 -0.0651
12663TIP3    H159480   4.100   6.058   3.136  2.4217  1.6430 -1.1351
12663TIP3    H259481   4.098   6.203   3.093 -2.5861  1.8922 -0.4002
12664TIP3   OH259482   0.021   1.628  13.558  0.3607  0.5958 -0.4669
12664TIP3    H159483  -0.067   1.642  13.594 -0.0815 -1.2164 -0.8058
12664TIP3    H259484   0.011   1.641  13.464  0.5407  0.7832 -0.4609
12665TIP3   OH259485   3.189   1.129  15.659  0.4217  0.3444  0.7689
12665TIP3    H159486   3.193   1.093  15.571 -0.3166  0.0049  0.8703
12665TIP3    H259487   3.262   1.089  15.706 -0.1279 -0.6772  0.7528
12666TIP3   OH259488   4.165   5.634  16.992 -0.5811 -0.6587 -0.0078
12666TIP3    H159489   4.253   5.671  17.002 -0.1281 -1.0727 -2.1078
12666TIP3    H259490   4.175   5.542  17.013 -0.7546 -0.4770  0.8661
12667TIP3   OH259491   5.268   4.819   4.492  0.2762  0.5305  0.2559
12667TIP3    H159492   5.271   4.894   4.552  0.8217 -0.9386  2.1231
12667TIP3    H259493   5.360   4.798   4.475  0.1246  1.1045 -1.3475
12668TIP3   OH259494   5.005   5.426   5.123  0.4179 -0.1107  0.5227
12668TIP3    H159495   4.944   5.490   5.087 -0.9591 -1.4566  0.3790
12668TIP3    H259496   4.954   5.345   5.126  1.9600 -1.0666  1.1883
12669TIP3   OH259497   5.892   4.777  11.886 -0.2515  0.0620  0.1845
12669TIP3    H159498   5.926   4.778  11.796 -0.8358 -0.0706 -0.0363
12669TIP3    H259499   5.802   4.807  11.878 -0.9467 -1.8820  0.4792
12670TIP3   OH259500   0.992   4.841  13.297 -0.2789 -0.2388 -0.7046
12670TIP3    H159501   0.949   4.914  13.252  0.3288  0.0324 -0.8441
12670TIP3    H259502   1.020   4.782  13.227  0.4363  0.0563 -0.6670
12671TIP3   OH259503   2.437   0.256  17.146 -0.5683  0.7220  0.4807
12671TIP3    H159504   2.481   0.202  17.211 -0.2305  2.2158  1.5362
12671TIP3    H259505   2.505   0.275  17.081 -0.4861  0.4702  0.4963
12672TIP3   OH259506   4.050   5.299   2.612 -0.1855  0.2241 -0.5247
12672TIP3    H159507   4.128   5.258   2.648 -0.3289 -1.0751 -1.6305
12672TIP3    H259508   4.072   5.317   2.520 -1.0267  0.2503 -0.7278
12673TIP3   OH259509   1.348   1.718   4.737 -0.3902 -0.1229  0.1773
12673TIP3    H159510   1.365   1.709   4.644 -1.4443 -0.5770  0.0207
12673TIP3    H259511   1.253   1.704   4.746 -0.1637 -0.9699  1.4089
12674TIP3   OH259512   1.739   0.541  11.168  0.0343 -0.3432 -0.7516
12674TIP3    H159513   1.737   0.622  11.218  0.1037 -0.6828 -0.1978
12674TIP3    H259514   1.670   0.552  11.103 -2.4351 -1.2929  1.6197
12675TIP3   OH259515   2.964   2.742  13.155  0.3872  0.7831  0.7563
12675TIP3    H159516   2.952   2.675  13.222 -0.0514 -0.0203 -0.1024
12675TIP3    H259517   3.038   2.711  13.103  1.3257  1.8656  1.4043
12676TIP3   OH259518   1.044   6.035   0.993  0.2248  0.7853 -0.1892
12676TIP3    H159519   1.069   6.026   1.085 -0.0766  1.9381  0.0107
12676TIP3    H259520   1.041   6.129   0.978  0.6525  0.5962 -1.4936
12677TIP3   OH259521   6.085   4.406  14.111 -0.4846 -0.2223 -0.1380
12677TIP3    H159522   6.062   4.445  14.196 -0.5708 -1.3953  0.3774
12677TIP3    H259523   6.158   4.460  14.080 -0.0258 -0.1766  0.9799
12678TIP3   OH259524   0.191   0.283  12.658  0.9080  0.6110 -0.5207
12678TIP3    H159525   0.222   0.341  12.727  0.9701 -0.3375  0.2622
12678TIP3    H259526   0.190   0.338  12.579  1.3571  1.5534  0.1163
12679TIP3   OH259527   0.358   1.817   1.792 -0.3619 -0.6000  0.5058
12679TIP3    H159528   0.264   1.814   1.775 -0.4863  0.3408  1.0199
12679TIP3    H259529   0.376   1.740   1.846 -0.9609 -0.3628  1.0415
12680TIP3   OH259530   2.773   5.250  16.891  0.0410 -0.2918  0.1927
12680TIP3    H159531   2.743   5.193  16.820  1.7508 -1.6184  0.5093
12680TIP3    H259532   2.811   5.190  16.955 -0.6927  0.9718  1.8558
12681TIP3   OH259533   2.754   6.736  16.463  0.3430 -0.0906 -1.0603
12681TIP3    H159534   2.687   6.779  16.410  1.5366  2.7737 -0.3542
12681TIP3    H259535   2.829   6.725  16.404  0.8383  0.9258 -0.6324
12682TIP3   OH259536   0.222   1.302   6.428  0.8273  0.4709 -0.0488
12682TIP3    H159537   0.255   1.375   6.376  2.4245  0.3515  0.7761
12682TIP3    H259538   0.133   1.287   6.394  1.2646  1.3977 -1.6599
12683TIP3   OH259539   5.700   5.199  16.414  0.2622  0.2577 -0.0881
12683TIP3    H159540   5.706   5.190  16.319 -0.5330  2.0878 -0.3319
12683TIP3    H259541   5.790   5.211  16.443  0.4051  0.8419 -0.7550
12684TIP3   OH259542   5.769   1.988  14.959  0.0235  1.1284  0.1312
12684TIP3    H159543   5.854   1.946  14.951 -0.3457  0.4993 -0.5760
12684TIP3    H259544   5.783   2.078  14.929 -0.0952  0.3341 -2.4707
12685TIP3   OH259545   0.554   6.346   3.800  0.2341  0.1735 -0.9047
12685TIP3    H159546   0.531   6.324   3.891  0.6730  1.8731 -0.3667
12685TIP3    H259547   0.506   6.427   3.782 -0.5125 -0.6101 -2.4900
12686TIP3   OH259548   5.723   6.308   3.875  0.1080 -0.2625  0.1878
12686TIP3    H159549   5.630   6.298   3.890 -0.0350  2.7689  1.5852
12686TIP3    H259550   5.765   6.255   3.943 -0.5919 -0.2431  0.6363
12687TIP3   OH259551   3.787   1.791  14.560  0.5444  0.2543 -0.1394
12687TIP3    H159552   3.696   1.768  14.580  1.0366 -0.7850  0.9439
12687TIP3    H259553   3.782   1.834  14.474 -1.0852  1.0785  0.3442
12688TIP3   OH259554   0.239   3.582  17.197  0.6919  0.2377  0.0789
12688TIP3    H159555   0.173   3.648  17.221  0.1058 -0.2035 -0.3106
12688TIP3    H259556   0.203   3.500  17.230  2.1052  0.3111  1.8312
12689TIP3   OH259557   1.513   1.616  15.681  0.4906 -0.0859 -0.4571
12689TIP3    H159558   1.493   1.701  15.642  0.3671 -0.8320 -2.0724
12689TIP3    H259559   1.608   1.616  15.690  0.4497  0.3999 -0.0650
12690TIP3   OH259560   3.882   5.936  16.762  0.5747 -0.1604 -0.5480
12690TIP3    H159561   3.956   5.878  16.742  0.1378 -0.1047 -2.3740
12690TIP3    H259562   3.888   6.006  16.698 -0.9336 -0.0386 -0.5698
12691TIP3   OH259563   5.696   5.339   0.060 -0.4229  0.1678 -0.2478
12691TIP3    H159564   5.735   5.279   0.123 -0.2889 -0.5358 -0.9908
12691TIP3    H259565   5.629   5.287   0.015  0.0616  0.4000 -1.2724
12692TIP3   OH259566   2.661   1.182   1.812 -0.1344  0.9403  0.0699
12692TIP3    H159567   2.600   1.120   1.770  1.4676 -1.5316  1.2776
12692TIP3    H259568   2.672   1.148   1.901  2.2769  1.8876  0.1666
12693TIP3   OH259569   0.456   6.247   4.046  0.4076  0.2155 -0.4049
12693TIP3    H159570   0.468   6.214   4.136 -1.3749  0.9127  0.1226
12693TIP3    H259571   0.453   6.168   3.992  2.9926 -0.1527 -0.0758
12694TIP3   OH259572   2.614   6.794  12.267 -0.1475  0.0360 -0.3218
12694TIP3    H159573   2.539   6.778  12.209  0.1345  0.2265 -0.7454
12694TIP3    H259574   2.621   6.889  12.272 -0.2700  0.0202  0.1595
12695TIP3   OH259575   2.098   3.059  13.246 -0.4531 -0.2914 -0.1758
12695TIP3    H159576   2.125   3.035  13.334  0.9924  2.2679  0.1183
12695TIP3    H259577   2.024   3.120  13.259 -0.4316 -0.1400 -0.7307
12696TIP3   OH259578   3.841   2.713   4.559 -0.2415  0.6155 -0.2032
12696TIP3    H159579   3.827   2.631   4.512 -0.4892  0.3330  0.3636
12696TIP3    H259580   3.936   2.722   4.564 -0.2082 -0.1545  0.6371
12697TIP3   OH259581   6.010   5.679   3.019 -0.0053 -0.3452 -0.2163
12697TIP3    H159582   6.077   5.670   3.086 -0.4491 -0.6179  0.1993
12697TIP3    H259583   6.010   5.772   2.997  0.7564 -0.4055 -0.4860
12698TIP3   OH259584   2.460   2.607   6.020  0.7294 -0.6083  0.0627
12698TIP3    H159585   2.389   2.575   5.964  1.3472 -1.7531 -0.0823
12698TIP3    H259586   2.528   2.540   6.013  0.4052 -1.3200  3.0476
12699TIP3   OH259587   3.507   6.354   4.824  0.4338 -0.3886 -0.8456
12699TIP3    H159588   3.589   6.380   4.782  0.4367  1.5097  0.2729
12699TIP3    H259589   3.496   6.416   4.897 -1.5347 -1.1699 -0.4328
12700TIP3   OH259590   3.211   3.089   3.877  0.0464  0.1621 -0.3817
12700TIP3    H159591   3.262   3.093   3.958  0.5396  3.2850 -0.7915
12700TIP3    H259592   3.272   3.054   3.812  0.3512 -0.2096  0.1058
12701TIP3   OH259593   5.394   6.223   2.533  0.1994  1.1464 -0.1253
12701TIP3    H159594   5.382   6.147   2.590  1.6148  1.0929  0.1132
12701TIP3    H259595   5.405   6.297   2.593  0.3070  1.3048 -0.3366
12702TIP3   OH259596   6.316   0.288   4.741  0.2618  0.6206 -0.2533
12702TIP3    H159597   6.331   0.333   4.658  2.3666  2.0487  0.8210
12702TIP3    H259598   6.318   0.359   4.806 -0.0366 -0.6267  1.1311
12703TIP3   OH259599   4.315   6.152  13.064  0.3788  0.1448 -0.3511
12703TIP3    H159600   4.347   6.066  13.035  0.5546 -0.6072  2.0070
12703TIP3    H259601   4.346   6.160  13.154  1.0215  3.0277 -0.7887
12704TIP3   OH259602   6.091   3.576  16.262 -0.1525 -0.1520 -0.2890
12704TIP3    H159603   6.172   3.583  16.213  0.2811  0.7888  0.5179
12704TIP3    H259604   6.032   3.638  16.219 -0.5097 -0.9876 -1.0023
12705TIP3   OH259605   2.835   6.527   3.156 -0.0441  0.2904 -0.4759
12705TIP3    H159606   2.848   6.480   3.073  0.9439  0.8046 -0.6193
12705TIP3    H259607   2.864   6.465   3.223 -1.3417 -0.3248 -0.4658
12706TIP3   OH259608   2.513   0.830  14.194 -0.4969 -0.1803 -0.4591
12706TIP3    H159609   2.539   0.864  14.280  0.6245 -0.4444 -0.6805
12706TIP3    H259610   2.482   0.741  14.212  1.1573 -0.7932 -0.5029
12707TIP3   OH259611   2.750   2.322  11.376  0.0676  0.1777  0.0168
12707TIP3    H159612   2.808   2.292  11.446 -0.8416 -1.1402  0.2130
12707TIP3    H259613   2.773   2.415  11.364  0.8237  0.1901  1.4492
12708TIP3   OH259614   4.861   1.086   2.982 -0.1837  0.0439 -0.1115
12708TIP3    H159615   4.778   1.056   3.019  0.7613 -1.2963  0.9398
12708TIP3    H259616   4.836   1.126   2.899 -2.0188  0.6983  0.7082
12709TIP3   OH259617   0.732   0.974   6.076  0.5775  0.4025  0.0202
12709TIP3    H159618   0.827   0.986   6.069  0.5096  0.0672 -1.7118
12709TIP3    H259619   0.707   1.028   6.150  2.0540  0.9639  0.1310
12710TIP3   OH259620   4.011   6.236   5.583 -0.0644 -0.1051 -0.1145
12710TIP3    H159621   3.952   6.181   5.635  0.5247 -0.4525  0.1866
12710TIP3    H259622   4.007   6.322   5.626 -1.7068  0.3699 -1.1325
12711TIP3   OH259623   4.007   4.399  11.140  0.5918 -0.3396  0.3299
12711TIP3    H159624   4.058   4.478  11.156 -0.9898  0.9765 -0.9153
12711TIP3    H259625   3.917   4.430  11.132  0.2462 -1.9521 -2.5992
12712TIP3   OH259626   4.250   2.352  16.897  0.2940  0.2881 -0.1817
12712TIP3    H159627   4.277   2.421  16.957  1.7106 -1.2274  0.9661
12712TIP3    H259628   4.155   2.360  16.892  0.5255  3.2159 -1.2077
12713TIP3   OH259629   0.028   1.183  12.719 -0.2661  0.5663  0.5296
12713TIP3    H159630   0.039   1.091  12.741  1.4766  0.6246 -0.0141
12713TIP3    H259631   0.090   1.229  12.774 -0.6145  1.3519  0.2751
12714TIP3   OH259632   5.841   2.823   0.174  0.6477  0.0150  0.1351
12714TIP3    H159633   5.753   2.861   0.171  0.6302 -0.1762 -3.0895
12714TIP3    H259634   5.826   2.729   0.181  0.4927 -0.2286 -2.7797
12715TIP3   OH259635   0.668   5.301  15.015 -0.2650  0.6477 -0.1202
12715TIP3    H159636   0.613   5.378  15.032 -0.4387  0.3996  0.4589
12715TIP3    H259637   0.661   5.249  15.095  0.6870  0.5361 -0.1061
12716TIP3   OH259638   1.397   3.756  11.533 -0.3796 -0.0531 -0.0936
12716TIP3    H159639   1.367   3.764  11.443 -0.9360 -0.9656  0.0027
12716TIP3    H259640   1.491   3.736  11.526 -0.6574 -1.2485 -0.5054
12717TIP3   OH259641   1.486   0.655  16.349  0.2687  0.2517  0.1307
12717TIP3    H159642   1.471   0.716  16.421 -0.7341 -0.7023  0.7493
12717TIP3    H259643   1.486   0.569  16.390  1.4621 -0.1934 -0.7633
12718TIP3   OH259644   4.657   5.805  13.607  0.1531 -0.1159  0.3770
12718TIP3    H159645   4.663   5.788  13.701 -3.2677 -0.2923  0.6221
12718TIP3    H259646   4.637   5.899  13.601  1.4503  0.1337 -0.2461
12719TIP3   OH259647   5.439   5.016   2.609 -0.0526  0.1343 -0.4718
12719TIP3    H159648   5.393   4.938   2.640  1.6301  0.3438  2.8083
12719TIP3    H259649   5.378   5.088   2.627 -0.7712 -0.1655 -1.6125
12720TIP3   OH259650   2.720   5.847   0.388  0.4685 -0.3550  0.4965
12720TIP3    H159651   2.634   5.809   0.377  0.1230  0.0068  1.9412
12720TIP3    H259652   2.746   5.825   0.477  1.2732  0.7073  0.5398
12721TIP3   OH259653   2.803   2.221  12.838  0.4538 -0.7051  0.2625
12721TIP3    H159654   2.717   2.259  12.819 -0.5126 -1.8542  2.2149
12721TIP3    H259655   2.825   2.173  12.758 -1.1821 -1.2320  0.0984
12722TIP3   OH259656   3.968   2.065  13.880 -0.8373 -0.3118  0.1758
12722TIP3    H159657   4.031   2.132  13.854 -1.4738  0.3422  0.3048
12722TIP3    H259658   3.885   2.112  13.888 -1.1783 -1.0086  0.7989
12723TIP3   OH259659   6.650   2.593   0.810  0.1639 -0.3853  0.0347
12723TIP3    H159660   6.707   2.590   0.733 -0.5408 -0.6904 -0.4818
12723TIP3    H259661   6.632   2.501   0.829 -0.3584 -0.2836  0.0408
12724TIP3   OH259662   2.088   5.607  14.179 -0.8686 -0.5984 -0.0780
12724TIP3    H159663   2.047   5.664  14.243 -2.7763 -1.7374 -0.2380
12724TIP3    H259664   2.140   5.665  14.124  1.8743  0.2770  3.2277
12725TIP3   OH259665   3.624   2.736   2.025 -0.4685 -0.1105  0.2597
12725TIP3    H159666   3.581   2.782   2.097  1.4220  2.1943 -0.0298
12725TIP3    H259667   3.699   2.692   2.065 -0.8841 -0.9548  0.1225
12726TIP3   OH259668   2.783   5.771  13.849 -0.0315  0.1567  0.2237
12726TIP3    H159669   2.857   5.730  13.892  0.8216  2.3769  0.9617
12726TIP3    H259670   2.724   5.796  13.921 -0.1317  0.9623 -0.1266
12727TIP3   OH259671   3.423   2.487  16.898 -0.7144  0.0843 -0.5169
12727TIP3    H159672   3.495   2.540  16.865 -1.1907  0.8567 -0.3193
12727TIP3    H259673   3.385   2.446  16.820 -1.7073  1.7463 -0.9236
12728TIP3   OH259674   5.845   3.462  16.446  0.3452  0.0488  0.2774
12728TIP3    H159675   5.833   3.514  16.366  0.1358  0.5457  0.6245
12728TIP3    H259676   5.768   3.484  16.499 -0.1025 -1.1558  0.1360
12729TIP3   OH259677   0.486   0.077   3.715  0.3260 -0.4556  0.9284
12729TIP3    H159678   0.412   0.136   3.727 -0.4608 -1.0745 -0.7097
12729TIP3    H259679   0.461  -0.003   3.760  0.0088 -0.6396  0.4356
12730TIP3   OH259680   0.405   2.842   4.322 -0.5572  0.4138 -0.1815
12730TIP3    H159681   0.398   2.934   4.347  0.0532  0.9359 -1.8780
12730TIP3    H259682   0.467   2.805   4.385 -0.3107  1.3101  0.1138
12731TIP3   OH259683   2.359   2.547  16.006  0.1034 -0.1759  0.5226
12731TIP3    H159684   2.363   2.643  16.005 -0.0039 -0.1733  0.3981
12731TIP3    H259685   2.342   2.523  15.915  0.3483 -0.3218  0.5149
12732TIP3   OH259686   5.489   1.668  13.743  0.4686  0.0731  0.4768
12732TIP3    H159687   5.396   1.653  13.754  0.2284 -0.2476 -1.8708
12732TIP3    H259688   5.531   1.598  13.793 -0.5436 -0.2310  0.9082
12733TIP3   OH259689   3.423   4.936   1.488 -0.5013  0.5509  0.3639
12733TIP3    H159690   3.504   4.885   1.486 -0.5065  0.4785  1.3205
12733TIP3    H259691   3.399   4.947   1.397  0.2998  0.1059  0.0906
12734TIP3   OH259692   2.852   0.581  15.937  0.1456  0.5095 -0.0757
12734TIP3    H159693   2.805   0.536  16.006 -0.9111  0.1435 -1.0208
12734TIP3    H259694   2.944   0.558  15.952 -0.2266 -0.7848  0.3101
12735TIP3   OH259695   5.131   0.271   0.069 -0.7113 -0.3718 -0.6316
12735TIP3    H159696   5.130   0.361   0.101 -0.0026 -0.1744 -1.1442
12735TIP3    H259697   5.166   0.220   0.142 -2.9621 -0.5321  0.3698
12736TIP3   OH259698   3.094   3.650   3.667  0.3721  0.1466  0.1851
12736TIP3    H159699   3.151   3.578   3.696  1.7619  1.0598 -0.1911
12736TIP3    H259700   3.139   3.729   3.698 -1.0088  0.8722  0.3725
12737TIP3   OH259701   0.226   2.093   1.956  0.0499  0.5689  0.6317
12737TIP3    H159702   0.213   2.002   1.983  3.3830 -0.5864 -1.4177
12737TIP3    H259703   0.144   2.118   1.914  0.0398 -2.3950 -1.2146
12738TIP3   OH259704   5.701   6.411   1.069  0.5612 -0.2650 -0.2065
12738TIP3    H159705   5.714   6.319   1.047  0.4722 -0.1552 -0.7345
12738TIP3    H259706   5.612   6.415   1.104  0.9105 -0.5381  0.7116
12739TIP3   OH259707   6.137   3.990  16.610  0.0485  0.0620  0.0608
12739TIP3    H159708   6.187   4.041  16.546  0.0044 -0.4994 -0.4191
12739TIP3    H259709   6.097   3.920  16.560 -1.2199  0.4890  0.4376
12740TIP3   OH259710   4.161   1.617   2.052  0.2377  0.1625 -0.4614
12740TIP3    H159711   4.126   1.564   1.980  2.0352 -1.5326 -0.1372
12740TIP3    H259712   4.139   1.567   2.131  1.0334  0.3959 -0.0852
12741TIP3   OH259713   6.394   2.352   5.025 -0.0861  0.0115 -0.5007
12741TIP3    H159714   6.415   2.307   5.107 -1.4076  0.8680  0.3246
12741TIP3    H259715   6.311   2.396   5.043  0.5949  1.7924 -1.6903
12742TIP3   OH259716   4.975   3.012   0.296  0.4074  0.2319 -0.1657
12742TIP3    H159717   5.013   3.090   0.255  1.3980  0.2451  0.7446
12742TIP3    H259718   4.918   3.046   0.364  0.1748  0.1770 -0.3326
12743TIP3   OH259719   0.843   0.160  12.683 -0.4713  0.5924  0.0958
12743TIP3    H159720   0.918   0.103  12.701 -1.9614 -1.2475  0.6416
12743TIP3    H259721   0.855   0.186  12.592  0.5702 -0.0875  0.0239
12744TIP3   OH259722   1.607   4.690  14.040 -0.1942  0.6471  0.0953
12744TIP3    H159723   1.563   4.750  13.980 -2.1635 -0.0565  0.8082
12744TIP3    H259724   1.642   4.747  14.108 -0.0381  1.2134 -0.4445
12745TIP3   OH259725   3.829   5.788   3.938  0.0149 -0.0875  0.0606
12745TIP3    H159726   3.780   5.763   4.016  1.3723  0.1805  1.0143
12745TIP3    H259727   3.907   5.733   3.940  0.7764  0.9617 -0.3080
12746TIP3   OH259728   1.707   1.099   0.492 -0.1411 -0.4671 -0.0939
12746TIP3    H159729   1.644   1.027   0.489  1.0166 -1.5259  0.4909
12746TIP3    H259730   1.666   1.164   0.550 -0.7715 -1.0725  0.1468
12747TIP3   OH259731   6.314   4.095   1.497  0.5188 -0.0118  0.1704
12747TIP3    H159732   6.247   4.157   1.468 -0.7523 -0.3287  2.3023
12747TIP3    H259733   6.383   4.101   1.431 -0.5923  2.0085 -0.8434
12748TIP3   OH259734   4.252   0.800  15.976  0.2659  0.1167  0.1701
12748TIP3    H159735   4.222   0.710  15.966 -1.5387  0.5602  1.4103
12748TIP3    H259736   4.347   0.795  15.963 -0.0069 -1.6911 -1.3433
12749TIP3   OH259737   1.940   4.974   2.271  0.3828  0.3486  0.0859
12749TIP3    H159738   2.035   4.988   2.264  0.4752 -0.9624 -1.5418
12749TIP3    H259739   1.925   4.963   2.364  2.0931 -1.0938  0.2253
12750TIP3   OH259740   3.827   1.327   4.578 -0.1705  0.3368 -0.4886
12750TIP3    H159741   3.856   1.247   4.621 -1.1388  0.5549  0.6413
12750TIP3    H259742   3.736   1.309   4.553 -0.5975  1.2549  0.3181
12751TIP3   OH259743   3.601   6.093   4.923 -0.0097  0.5569  0.0825
12751TIP3    H159744   3.569   6.179   4.896 -1.5023  0.6346  2.0258
12751TIP3    H259745   3.531   6.032   4.897  0.5908  0.0435 -0.3577
12752TIP3   OH259746   2.133   1.720  10.972 -0.3375  0.2818  0.0045
12752TIP3    H159747   2.054   1.677  10.940 -1.0969 -0.0175  2.1736
12752TIP3    H259748   2.107   1.812  10.983  0.6287  0.8986 -2.4745
12753TIP3   OH259749   5.823   1.769  11.751  0.4679 -0.2542  0.2800
12753TIP3    H159750   5.850   1.707  11.818 -1.8067  0.2576  1.7190
12753TIP3    H259751   5.775   1.837  11.799 -1.5247 -0.0673 -1.8605
12754TIP3   OH259752   6.272   6.234   4.445 -0.8937  0.3363  0.8002
12754TIP3    H159753   6.277   6.298   4.516 -1.8081  1.0011  0.2717
12754TIP3    H259754   6.179   6.223   4.430 -0.7385 -1.1441  0.8926
12755TIP3   OH259755   4.863   5.551   2.489 -0.7058 -1.3000  0.2836
12755TIP3    H159756   4.891   5.564   2.579 -1.5494  1.6806  0.1501
12755TIP3    H259757   4.934   5.586   2.435  0.2882 -4.0382 -0.2984
12756TIP3   OH259758   1.174   0.178  15.939 -0.1084  0.4552 -0.3108
12756TIP3    H159759   1.232   0.128  15.881 -1.4296  0.9137 -2.0647
12756TIP3    H259760   1.121   0.111  15.982  0.6080  0.1369  0.0884
12757TIP3   OH259761   3.211   0.739   0.570 -0.1051  0.0607 -0.0593
12757TIP3    H159762   3.294   0.765   0.609 -0.1895  2.0079 -1.1553
12757TIP3    H259763   3.235   0.688   0.493  0.0501 -1.2106  0.8078
12758TIP3   OH259764   5.457   1.518  16.933  0.2508 -0.2758  0.4936
12758TIP3    H159765   5.381   1.488  16.984 -1.8973  0.1539 -2.3109
12758TIP3    H259766   5.505   1.438  16.913  0.8547 -0.4991  2.7330
12759TIP3   OH259767   4.429   3.991  17.177  0.1666 -0.5909 -0.3597
12759TIP3    H159768   4.499   3.925  17.180  1.7556  1.0743  0.1572
12759TIP3    H259769   4.387   3.985  17.263  0.3663 -0.8672 -0.2786
12760TIP3   OH259770   4.611   5.916  12.553  0.4732 -0.1068 -0.0029
12760TIP3    H159771   4.681   5.917  12.488 -0.0927 -0.3251 -0.6211
12760TIP3    H259772   4.607   5.825  12.582  0.7820  0.0073  0.4017
12761TIP3   OH259773   4.209   1.844   2.684  0.1567 -0.1416  0.2866
12761TIP3    H159774   4.236   1.890   2.763 -0.2420  1.4289 -0.4650
12761TIP3    H259775   4.114   1.832   2.694  0.2583 -0.7914  0.4771
12762TIP3   OH259776   2.828   0.052   1.928 -0.4519  0.2891 -0.4505
12762TIP3    H159777   2.849   0.123   1.868  0.9760 -0.4311 -0.8055
12762TIP3    H259778   2.865  -0.027   1.888  1.4700 -0.0487  1.8677
12763TIP3   OH259779   0.742   0.258  12.433  0.1174  0.3077 -0.1964
12763TIP3    H159780   0.680   0.229  12.366 -1.1726 -0.0548  1.1100
12763TIP3    H259781   0.771   0.344  12.403 -1.8607  0.9606 -0.3165
12764TIP3   OH259782   3.066   0.609   2.429  0.0111  0.2668  0.2663
12764TIP3    H159783   3.096   0.698   2.447 -0.5298  0.2916  1.0625
12764TIP3    H259784   3.062   0.567   2.515  0.7856 -0.7007 -0.1566
12765TIP3   OH259785   2.696   0.899  12.004 -0.3258  0.2911 -0.5025
12765TIP3    H159786   2.706   0.903  11.909 -0.0761  0.5445 -0.4681
12765TIP3    H259787   2.775   0.942  12.038 -0.7700  0.8750 -0.1953
12766TIP3   OH259788   6.512   2.720  12.594  0.6277  0.1353  0.1668
12766TIP3    H159789   6.512   2.815  12.584 -0.6444  0.1778  0.3903
12766TIP3    H259790   6.530   2.706  12.687  0.2506  0.1839  0.2483
12767TIP3   OH259791   0.873   0.074   3.209 -0.3461 -0.1201  0.6378
12767TIP3    H159792   0.872  -0.019   3.186 -0.2712 -0.4715  2.0108
12767TIP3    H259793   0.827   0.079   3.293  0.2771  0.9702  0.9342
12768TIP3   OH259794   3.884   6.591   5.279  0.0592 -0.0869 -0.7837
12768TIP3    H159795   3.879   6.661   5.345  0.2499  0.6164 -1.5094
12768TIP3    H259796   3.978   6.572   5.272 -0.0349 -0.7751 -0.2147
12769TIP3   OH259797   0.007   5.596  14.754 -0.2183  0.1927 -0.4167
12769TIP3    H159798  -0.010   5.530  14.687 -0.4236 -1.2287  1.0244
12769TIP3    H259799  -0.068   5.591  14.813  0.2817  0.9712  0.3027
12770TIP3   OH259800   2.439   3.880  15.073  0.4530  0.0724  0.4839
12770TIP3    H159801   2.355   3.916  15.045 -0.6105 -1.7185  1.3096
12770TIP3    H259802   2.419   3.833  15.154  2.3638  0.1031  0.9995
12771TIP3   OH259803   0.824   0.760  12.603  0.3402 -0.1319  0.0242
12771TIP3    H159804   0.881   0.811  12.545  0.6561 -0.9895 -0.4439
12771TIP3    H259805   0.881   0.731  12.674  0.4016 -0.6405 -0.2254
12772TIP3   OH259806   5.025   3.099   1.072 -0.4323 -0.7973 -0.9738
12772TIP3    H159807   5.046   3.065   0.985  0.0528 -0.7111 -0.8909
12772TIP3    H259808   4.959   3.166   1.056 -1.1867 -1.5776 -1.1660
12773TIP3   OH259809   3.229   4.063   0.228  0.3923 -0.0458  0.1424
12773TIP3    H159810   3.294   4.133   0.237 -0.0588  0.2072  1.4369
12773TIP3    H259811   3.278   3.983   0.248  0.4351  0.0936  0.6084
12774TIP3   OH259812   5.689   3.457   4.143  0.3843 -0.1223 -0.2746
12774TIP3    H159813   5.650   3.373   4.117 -0.1685  0.1144 -0.2119
12774TIP3    H259814   5.623   3.497   4.200  0.3392  0.6758 -0.8763
12775TIP3   OH259815   5.267   0.827  10.968 -0.0169  0.1605  0.0628
12775TIP3    H159816   5.332   0.771  11.012  0.2159 -0.9686 -1.6783
12775TIP3    H259817   5.319   0.891  10.920 -0.2104 -0.0982 -0.4954
12776TIP3   OH259818   4.633   5.305   5.384 -0.5443  0.1622  1.2574
12776TIP3    H159819   4.654   5.367   5.454  1.4257  0.0699  0.7936
12776TIP3    H259820   4.651   5.219   5.422  1.2844  0.1469  0.4459
12777TIP3   OH259821   5.637   4.828   0.446  0.8354 -0.1635 -0.5500
12777TIP3    H159822   5.666   4.807   0.534  1.5135  1.2107 -0.4351
12777TIP3    H259823   5.568   4.894   0.458  1.7535  0.9060 -1.0965
12778TIP3   OH259824   6.624   1.326   4.700  0.2960 -0.1698  0.4102
12778TIP3    H159825   6.677   1.351   4.625  2.0952 -3.0765  0.6111
12778TIP3    H259826   6.658   1.380   4.772  0.4635  0.6522 -0.2887
12779TIP3   OH259827   4.145   0.262   4.990 -0.5360 -0.3133 -0.2603
12779TIP3    H159828   4.078   0.288   5.053 -0.2331  0.9380 -0.4282
12779TIP3    H259829   4.131   0.168   4.977 -2.0279 -0.1410 -0.0271
12780TIP3   OH259830   6.189   5.302  14.731  0.1441  0.5009  0.0676
12780TIP3    H159831   6.156   5.212  14.728  0.8220  0.2689 -0.5185
12780TIP3    H259832   6.266   5.301  14.675  0.5355  1.2925  0.5844
12781TIP3   OH259833   5.706   0.079  15.046  0.4702  0.7507  0.7278
12781TIP3    H159834   5.701   0.002  14.990 -1.7234  0.5216  1.1982
12781TIP3    H259835   5.704   0.044  15.135  2.2758  1.2136  0.9741
12782TIP3   OH259836   5.363   3.725  15.656 -0.9643 -0.0470  0.0189
12782TIP3    H159837   5.286   3.749  15.606 -0.7501 -0.1820 -0.3787
12782TIP3    H259838   5.354   3.631  15.671 -1.0292 -0.0064  0.2324
12783TIP3   OH259839   2.396   4.078   3.041  0.0109 -0.6491 -0.0214
12783TIP3    H159840   2.377   4.171   3.050  1.0597 -0.3402 -0.9707
12783TIP3    H259841   2.372   4.041   3.126 -1.9623  0.2040 -0.1886
12784TIP3   OH259842   4.314   6.582  12.341 -0.6730  0.4272  0.1070
12784TIP3    H159843   4.322   6.673  12.368  0.8814  0.0157  1.0378
12784TIP3    H259844   4.359   6.577  12.257 -0.5547  0.4587  0.1691
12785TIP3   OH259845   2.727   2.507   4.417  0.0124 -0.4692 -0.1768
12785TIP3    H159846   2.802   2.550   4.375 -0.5367  1.3415  0.6783
12785TIP3    H259847   2.687   2.455   4.347 -0.0255  1.3388 -1.5176
12786TIP3   OH259848   2.099   0.165  16.394 -0.1162  0.3069 -0.5805
12786TIP3    H159849   2.083   0.074  16.368  0.1104  0.0439  0.2141
12786TIP3    H259850   2.164   0.159  16.464 -1.8918  0.9235  1.1590
12787TIP3   OH259851   5.643   1.286  12.893 -0.2448  0.0611  0.6074
12787TIP3    H159852   5.672   1.208  12.845 -1.0028 -0.0948  0.3944
12787TIP3    H259853   5.664   1.267  12.984  0.5844  0.0724  0.4259
12788TIP3   OH259854   3.201   4.502   5.316 -0.3614 -0.4754  0.8520
12788TIP3    H159855   3.283   4.456   5.331 -0.0086  0.2550  1.2127
12788TIP3    H259856   3.154   4.449   5.252 -0.4582 -1.9309  2.1079
12789TIP3   OH259857   6.009   6.759  16.438 -0.0318  0.4659 -0.3860
12789TIP3    H159858   6.003   6.723  16.350  0.4405  1.0748 -0.6764
12789TIP3    H259859   6.014   6.854  16.425 -2.0830  0.7121  0.4016
12790TIP3   OH259860   4.198   1.757  12.822  0.4953 -0.1738 -0.1124
12790TIP3    H159861   4.123   1.702  12.799 -0.5067  1.1103  0.0831
12790TIP3    H259862   4.245   1.706  12.888  0.2034 -1.3074 -0.7562
12791TIP3   OH259863   3.560   1.922   3.700 -0.6108 -0.6597  0.4677
12791TIP3    H159864   3.527   1.980   3.769  0.3235  0.8747 -0.3489
12791TIP3    H259865   3.613   1.979   3.645 -0.7508 -2.0387 -1.1083
12792TIP3   OH259866   5.151   1.468   0.134 -0.2078 -0.1868  0.4845
12792TIP3    H159867   5.205   1.524   0.077 -2.6960  0.5211 -1.2295
12792TIP3    H259868   5.113   1.528   0.198  0.9155 -0.6834  1.6594
12793TIP3   OH259869   5.412   6.397   2.778 -0.5387  0.2691  0.0842
12793TIP3    H159870   5.417   6.360   2.866 -0.7324 -1.1474 -0.4916
12793TIP3    H259871   5.492   6.450   2.770  0.9417 -1.8886  0.0912
12794TIP3   OH259872   4.072   6.514   3.849  0.3417 -0.0288 -0.3700
12794TIP3    H159873   4.070   6.508   3.944 -1.0884 -1.5854 -0.4838
12794TIP3    H259874   4.159   6.481   3.825 -0.2088 -2.0157  0.2544
12795TIP3   OH259875   0.385   6.691   1.595  0.0466  0.3423  0.5213
12795TIP3    H159876   0.358   6.781   1.574 -1.8833  0.0002  1.4158
12795TIP3    H259877   0.327   6.665   1.667  1.9443 -0.9220  1.6149
12796TIP3   OH259878   4.494   5.675   3.386 -0.0956 -0.4166 -0.4628
12796TIP3    H159879   4.479   5.592   3.432  3.5567 -0.4636  0.7604
12796TIP3    H259880   4.574   5.661   3.336  2.2543  3.2711  2.0634
12797TIP3   OH259881   3.190   3.871  16.222 -0.1604 -0.2971  0.1127
12797TIP3    H159882   3.207   3.964  16.210 -0.2047 -0.0637  1.7929
12797TIP3    H259883   3.098   3.866  16.247 -0.2414 -0.8198 -0.2748
12798TIP3   OH259884   4.806   1.423  15.477 -0.0367 -0.3043  0.4374
12798TIP3    H159885   4.786   1.426  15.384  0.0082 -1.0142  0.4012
12798TIP3    H259886   4.888   1.472  15.486 -0.5112  0.5276  0.2334
12799TIP3   OH259887   3.801   2.600  13.870  0.0762 -0.4419 -0.0750
12799TIP3    H159888   3.796   2.575  13.778  2.2425  2.2846 -1.0205
12799TIP3    H259889   3.752   2.683  13.874  0.5367 -0.2255  1.1012
12800TIP3   OH259890   4.635   6.714   4.106  0.1375  0.1782 -0.0177
12800TIP3    H159891   4.548   6.718   4.146  0.4739 -0.0112  0.7616
12800TIP3    H259892   4.675   6.798   4.127 -0.8740  1.4096 -2.8282
12801TIP3   OH259893   3.011   3.167   3.712 -0.6171  0.4441  0.0416
12801TIP3    H159894   3.068   3.135   3.782 -0.9915  0.5335  0.3904
12801TIP3    H259895   3.063   3.158   3.633  0.4804  2.0451  0.5620
12802TIP3   OH259896   0.645   1.767  13.336  0.1852  0.1181  0.3238
12802TIP3    H159897   0.620   1.684  13.377  0.1451  0.3681  0.8078
12802TIP3    H259898   0.563   1.804  13.304  0.1118  0.2864  0.7004
12803TIP3   OH259899   5.271   4.118   0.644  0.1776  0.2989 -0.2736
12803TIP3    H159900   5.179   4.100   0.629 -0.3291  0.8076  2.0606
12803TIP3    H259901   5.300   4.165   0.565 -1.4278 -0.2142 -1.1846
12804TIP3   OH259902   2.904   4.179  16.097  0.2346 -0.2045  0.3705
12804TIP3    H159903   2.977   4.202  16.041 -0.6228  0.6827 -0.3815
12804TIP3    H259904   2.856   4.260  16.110 -1.3731 -1.0473 -0.2318
12805TIP3   OH259905   1.787   4.737   1.614  1.0178 -0.0469 -0.5444
12805TIP3    H159906   1.707   4.743   1.561  1.2826  0.1865 -0.9178
12805TIP3    H259907   1.788   4.646   1.643 -0.5057  0.4786  1.2340
12806TIP3   OH259908   6.556   2.197  14.950 -0.3049 -0.0244 -0.0127
12806TIP3    H159909   6.481   2.173  14.895 -0.3356 -0.1826  0.1001
12806TIP3    H259910   6.517   2.239  15.026 -0.2536  0.3806 -0.2059
12807TIP3   OH259911   2.150   2.032   5.195 -0.1978  0.0360  0.3057
12807TIP3    H159912   2.199   1.992   5.123  0.2722  0.3298  0.4565
12807TIP3    H259913   2.177   1.984   5.273 -2.0063 -1.4097  0.0564
12808TIP3   OH259914   6.438   5.231  10.902 -0.1759 -0.6727 -0.2448
12808TIP3    H159915   6.483   5.173  10.962 -0.9939 -2.3810 -1.2270
12808TIP3    H259916   6.492   5.310  10.899  0.6493 -1.1445  1.5495
12809TIP3   OH259917   1.002   5.983   2.254 -0.1522  0.0667  0.1800
12809TIP3    H159918   0.991   6.026   2.169 -1.4067  0.8385  0.7282
12809TIP3    H259919   1.000   5.890   2.234 -1.7901  0.2346 -0.4787
12810TIP3   OH259920   4.678   2.442  16.400 -0.8198 -0.1581 -0.0463
12810TIP3    H159921   4.686   2.355  16.360  0.2230 -0.7391  1.3706
12810TIP3    H259922   4.629   2.493  16.336 -0.8606 -1.5992 -1.2063
12811TIP3   OH259923   1.678   2.484  10.690 -0.1750 -0.0663  0.6179
12811TIP3    H159924   1.625   2.560  10.667 -1.4832 -0.6351  1.6261
12811TIP3    H259925   1.718   2.456  10.608 -1.1416  0.6241 -0.0992
12812TIP3   OH259926   0.303   1.465  12.061 -0.4897 -0.7464  0.1954
12812TIP3    H159927   0.275   1.430  12.146  0.7948 -0.7463  0.6271
12812TIP3    H259928   0.345   1.548  12.082 -0.4096 -0.6191 -0.4700
12813TIP3   OH259929   3.982   5.828   5.574  0.0302 -0.1339 -0.9685
12813TIP3    H159930   3.982   5.743   5.618 -0.1293  0.3687 -0.0027
12813TIP3    H259931   4.065   5.830   5.526 -0.8009 -1.6357 -2.5667
12814TIP3   OH259932   5.764   3.730  14.053 -0.0353  0.3991  0.8592
12814TIP3    H159933   5.751   3.665  13.984  0.0478 -0.4400  1.6203
12814TIP3    H259934   5.700   3.799  14.034 -1.4318 -0.7931  1.0861
12815TIP3   OH259935   6.788   4.694   3.674 -0.3456  0.4169  0.7338
12815TIP3    H159936   6.780   4.604   3.642  0.9353  0.5143  0.1237
12815TIP3    H259937   6.697   4.723   3.685 -0.7783 -0.7249  0.3116
12816TIP3   OH259938   4.054   6.042  14.062  0.1369 -0.1021 -0.0188
12816TIP3    H159939   4.027   6.110  13.999 -0.5351  0.7085  1.1235
12816TIP3    H259940   4.137   6.075  14.097  1.4640 -1.4429 -1.7881
12817TIP3   OH259941   5.923   2.491   5.556  0.5489 -0.1421  0.8191
12817TIP3    H159942   5.995   2.429   5.569  0.7242  0.1932  1.4761
12817TIP3    H259943   5.853   2.458   5.612  0.1612 -0.5115  0.1199
12818TIP3   OH259944   0.155   5.978   1.758  0.6588 -0.3782  0.1014
12818TIP3    H159945   0.090   5.967   1.827  0.0102 -1.4716 -0.6574
12818TIP3    H259946   0.177   6.071   1.759 -0.4328 -0.1258  0.8054
12819TIP3   OH259947   6.356   1.311   4.385  0.1176 -0.1980 -0.5501
12819TIP3    H159948   6.390   1.353   4.306 -1.0296  0.7384 -0.5507
12819TIP3    H259949   6.317   1.230   4.354 -2.4553  1.2784 -1.3037
12820TIP3   OH259950   5.803   0.581   1.652  0.0477 -0.6160 -0.2585
12820TIP3    H159951   5.831   0.558   1.741  1.7351  0.0936 -0.5898
12820TIP3    H259952   5.766   0.669   1.660  0.5346 -0.4058 -0.3247
12821TIP3   OH259953   6.809   2.458  16.527  0.6691 -0.3028 -0.7629
12821TIP3    H159954   6.731   2.404  16.515  0.8164 -0.5271 -0.7101
12821TIP3    H259955   6.877   2.415  16.475  0.4286  0.6002 -1.8452
12822TIP3   OH259956   2.623   1.821   5.637  0.0200 -0.0761 -0.2001
12822TIP3    H159957   2.542   1.864   5.611 -0.4723 -0.5897  0.4588
12822TIP3    H259958   2.668   1.885   5.691 -0.4322 -0.1715  0.2894
12823TIP3   OH259959   4.109   2.764   4.530  0.0108  1.1706 -0.4663
12823TIP3    H159960   4.204   2.762   4.537 -0.0713  0.3698  0.6935
12823TIP3    H259961   4.084   2.854   4.551  0.4843  1.2847 -0.3987
12824TIP3   OH259962   1.978   2.664  14.440  0.4680 -0.0578 -0.2802
12824TIP3    H159963   2.035   2.614  14.498  0.2517 -0.4687 -0.4237
12824TIP3    H259964   1.892   2.660  14.481  0.3140 -0.3458 -0.6196
12825TIP3   OH259965   2.406   6.410  16.234  0.2256  0.1444  0.1477
12825TIP3    H159966   2.478   6.422  16.295  0.6230  4.0974 -0.9659
12825TIP3    H259967   2.445   6.368  16.158  0.8401  0.1113  0.4842
12826TIP3   OH259968   3.392   1.449   2.838 -1.1503 -0.4377  0.1711
12826TIP3    H159969   3.414   1.364   2.800 -1.7375  0.6088 -2.6055
12826TIP3    H259970   3.463   1.507   2.810 -1.6268  0.3889  0.6478
12827TIP3   OH259971   6.597   0.157   1.993 -0.3078 -0.2645 -0.1164
12827TIP3    H159972   6.536   0.107   1.939 -0.6004  0.3658 -0.3667
12827TIP3    H259973   6.660   0.195   1.931 -0.5779  0.3657 -0.0096
12828TIP3   OH259974   6.783   6.531   4.061 -0.4646 -0.0536  0.4464
12828TIP3    H159975   6.869   6.540   4.020 -0.7846 -1.7153 -0.6479
12828TIP3    H259976   6.740   6.615   4.045  0.9411  0.7852  0.9911
12829TIP3   OH259977   5.730   5.859   0.120  0.3301  0.0306  0.3192
12829TIP3    H159978   5.647   5.904   0.108 -0.1346 -0.2104  2.3857
12829TIP3    H259979   5.730   5.789   0.055 -1.1669 -0.0676  0.4222
12830TIP3   OH259980   6.778   4.805  15.668 -0.0051 -1.0268  0.1968
12830TIP3    H159981   6.844   4.737  15.678  0.1452 -0.9143 -0.0464
12830TIP3    H259982   6.750   4.799  15.577  1.8318  0.9202 -0.5390
12831TIP3   OH259983   2.065   6.123   1.194 -0.1042  0.7311 -0.1152
12831TIP3    H159984   1.994   6.102   1.255 -0.3854  0.8829 -0.3892
12831TIP3    H259985   2.059   6.055   1.127 -0.5796  1.2842 -0.6370
12832TIP3   OH259986   2.914   2.945  13.642  0.1557  0.3311 -0.2989
12832TIP3    H159987   2.935   3.025  13.592  0.2943 -0.1975 -1.0967
12832TIP3    H259988   2.841   2.906  13.595 -1.0044  0.8374  1.0427
12833TIP3   OH259989   6.324   5.775   2.337  0.4792 -0.2652 -0.4542
12833TIP3    H159990   6.394   5.840   2.332 -0.3127  0.6229 -0.2140
12833TIP3    H259991   6.249   5.816   2.293 -0.6181 -0.2178  1.3796
12834TIP3   OH259992   2.038   6.423   3.836  0.3093 -0.5061 -0.0447
12834TIP3    H159993   1.958   6.444   3.787 -0.5813  1.2413  2.0703
12834TIP3    H259994   2.015   6.345   3.886  0.8024 -1.5353 -1.3934
12835TIP3   OH259995   1.240   6.690  14.680  0.4867  0.1779  0.2272
12835TIP3    H159996   1.263   6.774  14.719  0.1689  0.5748 -0.4251
12835TIP3    H259997   1.144   6.692  14.674  0.4440 -0.4385  0.6677
12836TIP3   OH259998   1.044   2.188   6.798 -0.0098 -0.2367 -0.0473
12836TIP3    H159999   0.958   2.148   6.787  0.1902 -0.4937 -0.7416
12836TIP3    H260000   1.026   2.275   6.833 -0.6489  0.2244 -1.4532
12837TIP3   OH260001   6.555   1.762   3.069  0.3478  0.6634  0.0528
12837TIP3    H160002   6.642   1.778   3.105  0.2577  0.0527  0.5509
12837TIP3    H260003   6.568   1.752   2.975  1.0282 -1.0644  0.3266
12838TIP3   OH260004   2.661   1.906  12.077 -0.2264  0.2024 -0.8734
12838TIP3    H160005   2.618   1.991  12.090 -1.7371 -0.8154  0.9894
12838TIP3    H260006   2.618   1.870  11.998  0.7361  1.3356 -1.9339
12839TIP3   OH260007   1.413   1.704   2.961  0.3421 -0.3920 -0.4959
12839TIP3    H160008   1.444   1.794   2.950 -0.2417 -0.1880 -0.4724
12839TIP3    H260009   1.421   1.688   3.055  2.5070 -1.1149 -0.7797
12840TIP3   OH260010   6.784   0.383  15.537 -0.2607 -0.1180  0.1521
12840TIP3    H160011   6.765   0.317  15.470 -0.7738 -1.0852  1.2362
12840TIP3    H260012   6.812   0.333  15.613  1.8302  1.0590  0.1867
12841TIP3   OH260013   6.029   5.930   4.874 -0.3662  0.0983  0.3378
12841TIP3    H160014   6.034   6.021   4.846  1.9638  0.3232  1.3185
12841TIP3    H260015   6.035   5.880   4.793 -0.0294  0.8091 -0.0813
12842TIP3   OH260016   2.893   3.244  16.421  0.5610  0.6822  0.3656
12842TIP3    H160017   2.849   3.286  16.347 -0.2663  0.2654  0.6046
12842TIP3    H260018   2.983   3.230  16.392 -0.1429 -0.8822 -1.1483
12843TIP3   OH260019   5.784   0.556  11.315  0.1596 -0.3931  0.2966
12843TIP3    H160020   5.841   0.556  11.391 -0.3467 -1.1227  0.6791
12843TIP3    H260021   5.771   0.649  11.295  1.0189 -0.2130  0.5400
12844TIP3   OH260022   5.627   0.449  14.477 -0.2378  0.2605 -0.8031
12844TIP3    H160023   5.664   0.374  14.430 -1.0456  0.9026 -2.4928
12844TIP3    H260024   5.541   0.420  14.506  0.9830 -0.7623  1.9290
12845TIP3   OH260025   3.727   6.748   5.605  0.4448 -0.0269  0.6351
12845TIP3    H160026   3.761   6.660   5.590 -3.4686 -1.5068 -0.0657
12845TIP3    H260027   3.688   6.745   5.693 -1.1603  0.4974 -0.0382
12846TIP3   OH260028   4.674   4.334  12.229 -0.2044 -0.3147 -0.0404
12846TIP3    H160029   4.637   4.312  12.144 -1.3269  0.7179  0.1602
12846TIP3    H260030   4.768   4.345  12.213 -0.2126 -1.4051 -0.8751
12847TIP3   OH260031   4.165   2.990   4.271 -0.3460 -0.4283 -0.2611
12847TIP3    H160032   4.085   2.987   4.323  0.8151 -1.5293  1.5180
12847TIP3    H260033   4.221   3.054   4.316 -0.6899  1.3257 -2.2329
12848TIP3   OH260034   2.190   1.231  13.531  0.0870  0.1356  0.2960
12848TIP3    H160035   2.281   1.238  13.504  0.1183 -2.0457 -0.2402
12848TIP3    H260036   2.153   1.318  13.514  1.7239  0.6558 -0.7056
12849TIP3   OH260037   3.147   6.299  12.817  0.8573 -0.3872 -0.3106
12849TIP3    H160038   3.080   6.280  12.883  0.1436  1.1634 -0.5615
12849TIP3    H260039   3.122   6.246  12.742 -0.1240  0.2340 -0.4220
12850TIP3   OH260040   5.799   5.011  14.343 -0.1214  0.0068  0.6061
12850TIP3    H160041   5.831   5.085  14.291 -0.5334  0.6998  1.3244
12850TIP3    H260042   5.705   5.027  14.353 -0.4629 -1.3139 -0.3590
12851TIP3   OH260043   1.517   1.738  12.513 -0.5381  0.0898 -0.5446
12851TIP3    H160044   1.494   1.831  12.511  0.7531  0.4438  0.1280
12851TIP3    H260045   1.438   1.694  12.545 -1.0143  1.0001 -0.4493
12852TIP3   OH260046   1.335   4.277   5.573 -0.5930  0.2074 -0.2608
12852TIP3    H160047   1.419   4.259   5.614 -1.3812 -0.2822  1.1808
12852TIP3    H260048   1.297   4.349   5.625 -0.6857  1.0127 -1.4298
12853TIP3   OH260049   6.259   3.513   4.348  0.3881 -0.0917  0.0276
12853TIP3    H160050   6.236   3.448   4.414  1.0385 -2.3031 -1.8722
12853TIP3    H260051   6.286   3.462   4.272  1.1557  2.4090 -1.4363
12854TIP3   OH260052   6.338   2.874   0.030  0.4594 -0.4355  0.3334
12854TIP3    H160053   6.401   2.803   0.039 -2.0691 -2.5970  1.7067
12854TIP3    H260054   6.259   2.832  -0.002 -0.9606  1.8524  0.6969
12855TIP3   OH260055   6.454   6.250  14.332  0.3783 -0.1645 -0.8381
12855TIP3    H160056   6.515   6.286  14.396 -0.7549 -0.7452  0.5775
12855TIP3    H260057   6.396   6.323  14.310 -0.1609 -0.3637 -0.0814
12856TIP3   OH260058   0.899   6.746  12.444  0.1092 -0.8112 -0.9104
12856TIP3    H160059   0.977   6.780  12.401  1.4662 -1.2855  1.1220
12856TIP3    H260060   0.925   6.732  12.535 -2.7668  0.3992  0.1696
12857TIP3   OH260061   4.074   3.942   2.661 -0.4038 -0.2038  0.3475
12857TIP3    H160062   4.015   3.867   2.667 -0.3790 -0.2870 -0.3842
12857TIP3    H260063   4.086   3.970   2.752 -0.7726 -0.8032  0.5891
12858TIP3   OH260064   5.129   0.532   2.605 -0.0399  0.1823  0.8215
12858TIP3    H160065   5.177   0.530   2.688 -0.4247  1.9913  1.1164
12858TIP3    H260066   5.180   0.476   2.546  0.7463 -0.3648  2.0069
12859TIP3   OH260067   1.125   2.145  13.474 -0.1770  0.5253 -0.5408
12859TIP3    H160068   1.041   2.124  13.515  1.4549 -1.8588  1.6963
12859TIP3    H260069   1.142   2.236  13.500 -1.8275  0.8838 -0.6448
12860TIP3   OH260070   5.799   5.145  11.828 -0.2279 -0.0041  0.0915
12860TIP3    H160071   5.796   5.097  11.911 -0.3704  0.1255  0.1608
12860TIP3    H260072   5.893   5.150  11.807 -0.1597  0.3590  0.4768
12861TIP3   OH260073   5.826   2.319   0.418 -0.4386 -0.2157  0.1013
12861TIP3    H160074   5.898   2.316   0.355 -1.2281 -1.4080 -0.7798
12861TIP3    H260075   5.868   2.309   0.503  0.5525  0.4417 -0.2969
12862TIP3   OH260076   1.042   2.012   6.213  0.2336  0.0671  0.4527
12862TIP3    H160077   1.125   1.977   6.246  0.4251 -0.3724 -0.4905
12862TIP3    H260078   1.022   2.085   6.272  1.9028  0.9488 -0.0275
12863TIP3   OH260079   0.443   0.543   1.447 -0.3539 -0.0664 -0.5284
12863TIP3    H160080   0.421   0.490   1.370  1.5374  1.7737 -2.3790
12863TIP3    H260081   0.499   0.485   1.500  1.8606  0.0788 -2.6217
12864TIP3   OH260082   2.866   1.183  14.647 -0.1342  0.0977  0.5723
12864TIP3    H160083   2.937   1.121  14.631  0.5665  0.9919  0.1078
12864TIP3    H260084   2.886   1.221  14.732  0.2751  0.7768  0.1783
12865TIP3   OH260085   5.097   4.316  16.454 -0.0040  0.5411 -0.0959
12865TIP3    H160086   5.053   4.335  16.371  0.0609  0.2773 -0.1937
12865TIP3    H260087   5.058   4.233  16.483 -1.8407  1.8734  1.3962
12866TIP3   OH260088   6.686   0.381  14.067  0.0774 -0.3223  0.0438
12866TIP3    H160089   6.671   0.289  14.045  4.4150 -1.6762  2.0898
12866TIP3    H260090   6.766   0.404  14.019  0.7584  1.3962  1.9153
12867TIP3   OH260091   2.467   1.317  13.696  0.7138 -0.2799  0.0370
12867TIP3    H160092   2.494   1.225  13.699  0.1767 -0.4765 -1.0196
12867TIP3    H260093   2.455   1.335  13.603 -2.4003 -0.0750  0.4473
12868TIP3   OH260094   4.559   1.981  13.172 -0.2399  0.4171  0.4921
12868TIP3    H160095   4.479   1.998  13.221 -1.9540  1.3599 -2.5293
12868TIP3    H260096   4.594   2.068  13.152 -0.3621  0.0905 -1.2023
12869TIP3   OH260097   1.858   1.891   6.371  0.2106 -0.2763  0.3810
12869TIP3    H160098   1.809   1.944   6.434  0.4707 -0.4569  0.7356
12869TIP3    H260099   1.886   1.954   6.304  0.0924 -0.0518  0.5404
12870TIP3   OH260100   3.084   2.487  12.685  0.2263  0.2680  0.4049
12870TIP3    H160101   3.175   2.494  12.713 -0.2609 -0.4742  2.1941
12870TIP3    H260102   3.086   2.423  12.614  1.2408  1.0772 -0.3296
12871TIP3   OH260103   0.382   5.755  16.704  0.4842 -0.0991 -0.0502
12871TIP3    H160104   0.336   5.722  16.626 -0.3657 -0.1647  0.4705
12871TIP3    H260105   0.322   5.736  16.776  2.0512 -1.6561  0.8589
12872TIP3   OH260106   2.918   5.700   1.741  0.3459  0.1569  0.1661
12872TIP3    H160107   2.961   5.615   1.732 -1.4900 -1.0898  2.3830
12872TIP3    H260108   2.869   5.712   1.660  1.9658 -0.1178 -0.8533
12873TIP3   OH260109   5.551   5.135  14.360  0.4247  0.2015 -0.2341
12873TIP3    H160110   5.521   5.162  14.273  0.8130 -0.2959 -0.5259
12873TIP3    H260111   5.478   5.084  14.396  1.2170 -1.7655 -1.2957
12874TIP3   OH260112   2.592   4.784  11.229  0.5869 -0.6135  0.1652
12874TIP3    H160113   2.549   4.806  11.146 -2.0480 -0.9630  1.3836
12874TIP3    H260114   2.578   4.690  11.239  1.5154 -0.6987  0.6828
12875TIP3   OH260115   1.255   4.919   2.664  0.5145 -0.0964  0.0579
12875TIP3    H160116   1.292   4.898   2.750 -0.3407  1.4093  0.8223
12875TIP3    H260117   1.181   4.859   2.654  1.6759 -1.4791 -0.4231
12876TIP3   OH260118   6.408   5.379  15.577  0.0093 -0.1868  0.7508
12876TIP3    H160119   6.476   5.338  15.523  0.4271  1.5228 -0.0484
12876TIP3    H260120   6.433   5.472  15.581 -2.6631  0.6043 -0.1581
12877TIP3   OH260121   1.294   4.672  16.540 -0.2503  0.3912  0.0682
12877TIP3    H160122   1.303   4.583  16.574 -0.0946  0.1462 -0.5948
12877TIP3    H260123   1.317   4.729  16.613  0.9589 -0.1431  0.1142
12878TIP3   OH260124   1.580   2.686   2.426 -0.1083 -0.2472 -0.0505
12878TIP3    H160125   1.661   2.735   2.416  0.7311 -1.5813  0.1105
12878TIP3    H260126   1.543   2.717   2.509 -0.0396  0.7383 -0.3794
12879TIP3   OH260127   0.400   4.480  14.934 -0.0137 -0.0960 -0.0466
12879TIP3    H160128   0.367   4.452  14.849  1.8961  0.9571 -1.1699
12879TIP3    H260129   0.355   4.563  14.952 -0.9907 -0.6994  0.3568
12880TIP3   OH260130   2.839   3.966  12.517 -0.0292 -0.3448 -0.7649
12880TIP3    H160131   2.745   3.957  12.503  0.0395 -0.7712 -0.9552
12880TIP3    H260132   2.858   3.908  12.592 -0.1463  0.7768  0.1492
12881TIP3   OH260133   0.698   4.271   4.911  0.2442 -0.2388 -0.0441
12881TIP3    H160134   0.752   4.285   4.989  0.4666  2.4904 -0.6420
12881TIP3    H260135   0.690   4.175   4.904  0.0250 -0.5089  3.4117
12882TIP3   OH260136   1.116   1.325   4.352  0.0052  0.5174  0.6049
12882TIP3    H160137   1.204   1.310   4.318  0.1414  0.1824  1.1039
12882TIP3    H260138   1.119   1.412   4.392 -0.4492  1.3807 -1.1928
12883TIP3   OH260139   6.057   2.912  14.077 -0.2246 -0.1992  0.3447
12883TIP3    H160140   6.066   2.821  14.048 -1.3506  0.1544 -1.1271
12883TIP3    H260141   6.130   2.925  14.138  0.2791 -1.9123  0.1223
12884TIP3   OH260142   0.593   4.197   5.364 -0.3479  0.0705  0.2530
12884TIP3    H160143   0.562   4.252   5.292  0.8841  1.1396  0.5145
12884TIP3    H260144   0.560   4.109   5.343 -0.4218  0.4625 -1.3569
12885TIP3   OH260145   5.240   1.969  11.365  0.0635 -0.2336 -0.5874
12885TIP3    H160146   5.270   1.909  11.297  0.5009  0.7041 -1.2382
12885TIP3    H260147   5.313   1.975  11.426  0.2292  0.0330 -0.8049
12886TIP3   OH260148   3.235   2.206   5.378 -0.1384 -0.2931  0.0393
12886TIP3    H160149   3.144   2.235   5.373  0.1240  0.3799 -1.0488
12886TIP3    H260150   3.280   2.259   5.312  1.6654  1.6934  2.7674
12887TIP3   OH260151   5.991   0.760  11.384 -0.4783 -0.2485 -0.4077
12887TIP3    H160152   5.976   0.790  11.473 -1.5099  0.3714 -0.7849
12887TIP3    H260153   6.076   0.715  11.387 -0.5106 -0.2174  0.8726
12888TIP3   OH260154   1.972   2.157   3.832  0.5399 -0.0523  0.5142
12888TIP3    H160155   2.032   2.185   3.763 -0.9423  0.0297 -0.7732
12888TIP3    H260156   1.966   2.062   3.821 -0.1421  0.0291  0.1488
12889TIP3   OH260157   3.354   4.727  12.805  0.5244 -0.1640  0.4779
12889TIP3    H160158   3.418   4.659  12.781  0.4320 -0.5085  1.2000
12889TIP3    H260159   3.273   4.700  12.763  0.4855 -0.5041  0.7744
12890TIP3   OH260160   2.062   6.644  11.440 -0.2780 -0.1293  0.0880
12890TIP3    H160161   1.970   6.648  11.415 -0.0478  0.4342 -0.6807
12890TIP3    H260162   2.063   6.585  11.516 -1.0175 -1.6567 -1.0504
12891TIP3   OH260163   5.195   1.297   3.531  0.6053 -0.3852 -0.3933
12891TIP3    H160164   5.204   1.202   3.534  0.4851 -0.4971 -2.9134
12891TIP3    H260165   5.100   1.312   3.532  0.6300 -0.2006  1.4786
12892TIP3   OH260166   4.769   6.070  13.813  0.0642  0.6524 -0.0782
12892TIP3    H160167   4.688   6.025  13.834  0.0376  1.6126  2.0784
12892TIP3    H260168   4.742   6.148  13.765 -0.4507  1.7528  1.9407
12893TIP3   OH260169   0.712   5.525  13.775  0.3794  0.4228  0.0818
12893TIP3    H160170   0.801   5.495  13.755  0.0940 -1.3750  1.2985
12893TIP3    H260171   0.679   5.563  13.694  1.2397 -1.5198 -1.1955
12894TIP3   OH260172   0.639   2.430  11.961  0.1434  0.0101  0.6468
12894TIP3    H160173   0.709   2.449  12.022 -0.3958  0.9748  0.9718
12894TIP3    H260174   0.682   2.387  11.887  1.2940  1.8660  0.2105
12895TIP3   OH260175   1.307   3.551   2.210 -0.1415 -0.1859 -0.3123
12895TIP3    H160176   1.335   3.638   2.182  0.2189  1.2133  4.0189
12895TIP3    H260177   1.373   3.492   2.175  1.3177  1.6325 -0.7234
12896TIP3   OH260178   0.260   5.305   3.406  0.9421 -0.1610  0.5723
12896TIP3    H160179   0.276   5.317   3.500  2.8665 -2.6496  0.6219
12896TIP3    H260180   0.186   5.244   3.402  1.4924 -0.8195  0.4759
12897TIP3   OH260181   0.085   0.813  13.867 -0.7809  0.1508 -0.5967
12897TIP3    H160182   0.124   0.735  13.907 -0.0913  0.9476  0.3177
12897TIP3    H260183   0.159   0.865  13.838 -1.2703 -0.0991 -2.3497
12898TIP3   OH260184   2.503   3.174  11.950  0.4254 -0.7382  0.2310
12898TIP3    H160185   2.437   3.104  11.949 -1.7535  1.2309  0.3296
12898TIP3    H260186   2.513   3.199  11.858 -0.7779  0.5707  0.4389
12899TIP3   OH260187   5.581   1.902   5.565 -0.2506  0.3246 -0.1168
12899TIP3    H160188   5.662   1.851   5.578  0.0040  0.9066  0.6503
12899TIP3    H260189   5.571   1.950   5.647 -1.1512  0.5838 -0.3788
12900TIP3   OH260190   1.650   0.128  10.930 -0.1614 -0.3782  0.1413
12900TIP3    H160191   1.641   0.039  10.896  0.1331 -0.7448  1.0051
12900TIP3    H260192   1.678   0.180  10.855  2.4701 -1.5583  0.2290
12901TIP3   OH260193   4.404   6.757  11.137 -0.0680  0.2161  0.4704
12901TIP3    H160194   4.462   6.715  11.200  0.4575  0.0397 -0.1175
12901TIP3    H260195   4.345   6.810  11.189  0.7970  0.6023  1.0664
12902TIP3   OH260196   4.070   4.871   3.052 -0.1938  0.3737 -0.4665
12902TIP3    H160197   4.126   4.859   2.975 -2.3338 -0.4808 -1.9465
12902TIP3    H260198   4.059   4.783   3.088  0.3770  0.7026  0.5212
12903TIP3   OH260199   0.266   3.985  15.857  0.4556  0.1182  0.6229
12903TIP3    H160200   0.296   4.076  15.863 -1.4003  0.6873  1.5124
12903TIP3    H260201   0.293   3.945  15.939 -1.6830  0.7989  1.6958
12904TIP3   OH260202   6.749   2.822   6.575  0.6376  0.2769 -0.2396
12904TIP3    H160203   6.729   2.911   6.545  1.6398  0.1727 -1.2432
12904TIP3    H260204   6.710   2.765   6.508  0.7069 -0.0268 -0.0236
12905TIP3   OH260205   4.422   1.519  14.693 -0.4366 -0.5270  0.1368
12905TIP3    H160206   4.419   1.432  14.652 -1.4241 -0.5799  0.3067
12905TIP3    H260207   4.330   1.543  14.706 -0.1812  0.7110 -0.2478
12906TIP3   OH260208   5.673   0.034  13.474 -0.0999  0.2173  0.3813
12906TIP3    H160209   5.591   0.030  13.426 -0.6618 -0.0532  1.3620
12906TIP3    H260210   5.708   0.121  13.455 -0.1845  0.0215 -0.7206
12907TIP3   OH260211   4.283   0.014  15.252  0.1820 -0.0431 -0.3883
12907TIP3    H160212   4.201   0.026  15.299 -0.3692  1.0598 -1.6101
12907TIP3    H260213   4.313   0.103  15.232  0.8632 -0.4691 -1.3211
12908TIP3   OH260214   1.579   3.221   5.169  0.1710  0.1688 -0.2248
12908TIP3    H160215   1.644   3.208   5.100  1.8453  0.5925  1.2653
12908TIP3    H260216   1.579   3.139   5.218 -1.1441 -0.1935 -0.7884
12909TIP3   OH260217   0.570   2.984  16.460  0.5184  0.2928 -0.1039
12909TIP3    H160218   0.543   2.892  16.456 -0.8794  0.7191 -0.3668
12909TIP3    H260219   0.568   3.005  16.553 -2.7322  1.1027 -0.3044
12910TIP3   OH260220   4.650   1.594  13.715  0.1177  0.5084  0.1314
12910TIP3    H160221   4.656   1.690  13.717  0.4436  0.4965 -0.1847
12910TIP3    H260222   4.625   1.570  13.804 -1.6545  1.0008 -0.2101
12911TIP3   OH260223   6.118   4.856  13.692 -0.0360  0.2382  0.4823
12911TIP3    H160224   6.096   4.797  13.764 -1.2600 -1.7030 -1.3996
12911TIP3    H260225   6.203   4.823  13.661 -0.8550 -0.7596 -0.7521
12912TIP3   OH260226   4.452   6.001   0.041  0.2648 -0.0228  0.1549
12912TIP3    H160227   4.384   5.934   0.049  0.0744 -0.1769 -2.4683
12912TIP3    H260228   4.512   5.966  -0.025  0.2596  2.3280 -1.1218
12913TIP3   OH260229   3.480   2.217  12.903 -0.3981  0.3828 -0.5636
12913TIP3    H160230   3.573   2.193  12.899 -0.2866  0.9108 -1.2633
12913TIP3    H260231   3.480   2.306  12.937 -0.6390  0.4271 -0.6812
12914TIP3   OH260232   5.154   2.474  16.748 -0.2660 -0.3790 -0.2831
12914TIP3    H160233   5.135   2.382  16.729  0.9679 -0.1770 -2.7552
12914TIP3    H260234   5.109   2.522  16.678 -0.5969  0.8694  0.7794
12915TIP3   OH260235   4.759   1.640  15.112 -0.5048 -0.2762  0.3598
12915TIP3    H160236   4.722   1.552  15.114  0.9234 -0.8846  0.6055
12915TIP3    H260237   4.843   1.630  15.067  0.2285  0.7289  1.4563
12916TIP3   OH260238   6.002   1.848  14.901  0.0223  0.5378 -0.0220
12916TIP3    H160239   5.963   1.773  14.856  1.3021 -0.7656  1.0174
12916TIP3    H260240   6.062   1.886  14.837  0.4738 -0.2100 -0.0381
12917TIP3   OH260241   2.320   6.603  15.972  0.5132 -0.5330  0.0427
12917TIP3    H160242   2.331   6.597  16.067  0.0185 -3.5324 -0.0373
12917TIP3    H260243   2.263   6.529  15.950  1.8942 -0.8199 -2.7872
12918TIP3   OH260244   5.038   2.036   5.381  0.5171  0.5509  0.2763
12918TIP3    H160245   5.105   2.097   5.413  1.4291 -0.5980  0.6077
12918TIP3    H260246   4.971   2.036   5.450  1.0082  0.4032  0.7549
12919TIP3   OH260247   2.422   2.078   4.314 -0.8407  0.6087 -0.4546
12919TIP3    H160248   2.377   2.157   4.287  1.7525  2.1984 -0.2882
12919TIP3    H260249   2.413   2.076   4.410 -3.4552 -0.9347 -0.6924
12920TIP3   OH260250   5.271   3.449  14.666 -0.3379  0.1475 -0.1137
12920TIP3    H160251   5.209   3.518  14.688  1.5775  2.3554 -1.4488
12920TIP3    H260252   5.237   3.410  14.586 -0.2124  1.1080 -0.6406
12921TIP3   OH260253   5.425   2.467  13.073  0.1350 -0.3644  0.2406
12921TIP3    H160254   5.405   2.492  13.163 -0.2600 -1.7558  0.5503
12921TIP3    H260255   5.521   2.462  13.071  0.2089  0.8385  0.2501
12922TIP3   OH260256   5.632   0.142  14.577  0.0580 -0.2388  0.0296
12922TIP3    H160257   5.612   0.219  14.629  0.8318  0.9518 -1.3933
12922TIP3    H260258   5.636   0.070  14.640 -1.2159  0.7841  1.2917
12923TIP3   OH260259   2.312   4.758   0.167  0.0987  0.5720  0.0454
12923TIP3    H160260   2.270   4.690   0.220 -1.4715  0.9383 -0.7014
12923TIP3    H260261   2.383   4.713   0.121 -1.2794 -0.6929 -0.8685
12924TIP3   OH260262   0.293   2.975  12.194 -0.0638  0.3205 -0.5304
12924TIP3    H160263   0.353   3.049  12.201  1.4549 -1.0452  1.7790
12924TIP3    H260264   0.346   2.899  12.218 -2.4189 -1.0967  0.3898
12925TIP3   OH260265   1.198   1.381  16.659 -0.3215 -0.1990 -0.9440
12925TIP3    H160266   1.269   1.394  16.596  0.1906 -0.4751 -0.4264
12925TIP3    H260267   1.131   1.334  16.610 -0.4774  0.7490 -1.6553
12926TIP3   OH260268   4.164   1.504  16.100 -0.0586  0.8593  0.3956
12926TIP3    H160269   4.190   1.452  16.024 -1.8221 -0.0125  0.3820
12926TIP3    H260270   4.077   1.472  16.124  0.8708  0.4138  3.4106
12927TIP3   OH260271   6.381   3.334  16.911 -0.1020 -0.1073  0.2814
12927TIP3    H160272   6.451   3.313  16.972  0.7131  0.3539 -0.4919
12927TIP3    H260273   6.307   3.359  16.967 -0.2823 -2.4442  1.1505
12928TIP3   OH260274   0.597   5.690   4.871  0.3225  0.1232  0.2656
12928TIP3    H160275   0.515   5.735   4.850 -0.3878 -1.7146 -1.0342
12928TIP3    H260276   0.604   5.696   4.966 -0.0354  2.4428  0.1826
12929TIP3   OH260277   2.877   1.778   3.406 -0.2477  0.1917  0.1597
12929TIP3    H160278   2.859   1.786   3.312 -0.3608  2.0670  0.3238
12929TIP3    H260279   2.808   1.828   3.448  1.2308  1.4611  1.1284
12930TIP3   OH260280   6.075   2.296  15.396  0.1576  0.2985 -0.0659
12930TIP3    H160281   6.113   2.375  15.435 -0.1935  0.5561 -0.2427
12930TIP3    H260282   6.135   2.226  15.421 -0.3344  0.3714  1.3653
12931TIP3   OH260283   3.394   1.538  12.311 -0.4396 -0.2117  0.3415
12931TIP3    H160284   3.444   1.494  12.242  1.6761 -0.1952  1.7984
12931TIP3    H260285   3.459   1.555  12.380 -1.7611  2.7875  0.9259
12932TIP3   OH260286   4.141   5.901   3.772 -0.0748 -0.0118  0.0749
12932TIP3    H160287   4.137   5.814   3.732 -0.8538  0.1286 -0.1647
12932TIP3    H260288   4.082   5.955   3.719  0.9643  0.8493 -0.2118
12933TIP3   OH260289   3.127   2.180  14.668 -0.3390 -0.1292 -0.5018
12933TIP3    H160290   3.075   2.224  14.736 -0.7093 -3.2649  1.3559
12933TIP3    H260291   3.193   2.244  14.642 -1.1323  1.6650  1.7601
12934TIP3   OH260292   0.875   0.496  13.355 -0.7270 -0.4105  0.1402
12934TIP3    H160293   0.910   0.464  13.438  0.0553  0.2623  0.0757
12934TIP3    H260294   0.837   0.418  13.314 -0.8751 -0.7986  1.0020
12935TIP3   OH260295   2.319   4.907  16.233  0.1001  0.2766 -0.2920
12935TIP3    H160296   2.317   4.896  16.328  2.1681  1.4680 -0.0793
12935TIP3    H260297   2.411   4.897  16.209 -0.3654  0.1893 -2.1484
12936TIP3   OH260298   4.611   4.602   4.773  0.2078 -0.2443  0.3750
12936TIP3    H160299   4.599   4.583   4.866 -3.5550 -0.1514 -0.0220
12936TIP3    H260300   4.547   4.670   4.754  0.4760 -0.7284 -2.4578
12937TIP3   OH260301   0.529   2.681   1.916  0.2542 -0.6066  0.0851
12937TIP3    H160302   0.441   2.713   1.933 -0.3670 -1.9481 -0.5514
12937TIP3    H260303   0.520   2.586   1.911  2.1812 -1.0101  2.8174
12938TIP3   OH260304   6.548   6.468  15.817 -0.0659  0.1666 -0.9917
12938TIP3    H160305   6.556   6.518  15.899  0.0340 -1.2604 -0.1216
12938TIP3    H260306   6.638   6.457  15.787 -0.1656  1.5507 -1.8328
12939TIP3   OH260307   5.924   2.810   2.788  0.5704 -0.3943  0.2321
12939TIP3    H160308   5.977   2.744   2.833  1.7913 -0.6492 -1.5394
12939TIP3    H260309   5.921   2.884   2.849  1.4143 -1.0834  1.1195
12940TIP3   OH260310   5.802   4.582   5.846 -0.1584 -0.5096  0.7658
12940TIP3    H160311   5.851   4.502   5.867  0.3808 -0.6652 -1.0345
12940TIP3    H260312   5.750   4.559   5.770 -0.0963  0.8217  0.3101
12941TIP3   OH260313   1.451   1.637   1.360 -0.0602 -0.6120  0.4569
12941TIP3    H160314   1.514   1.600   1.298  2.0243  0.4431  1.8790
12941TIP3    H260315   1.408   1.707   1.311 -0.5472 -1.6921 -0.7016
12942TIP3   OH260316   4.669   0.517  14.493  0.2366 -0.2855 -0.4693
12942TIP3    H160317   4.604   0.474  14.548  0.8338  0.3095  0.7097
12942TIP3    H260318   4.744   0.531  14.551  0.5643  1.0831 -1.2220
12943TIP3   OH260319   5.467   6.145  16.785  0.1146  0.7461  0.3674
12943TIP3    H160320   5.439   6.055  16.803  2.1523  0.0811  0.3409
12943TIP3    H260321   5.496   6.143  16.693 -0.1689  1.5060  0.2642
12944TIP3   OH260322   6.649   0.543   1.570 -0.3251  0.0144 -0.1638
12944TIP3    H160323   6.618   0.621   1.615 -1.1743 -0.8685  0.8086
12944TIP3    H260324   6.605   0.470   1.614  1.6085 -1.1403 -0.0596
12945TIP3   OH260325   2.094   5.152   0.763  0.3218 -0.1475 -0.6364
12945TIP3    H160326   2.086   5.059   0.742 -0.0997 -0.7513  1.9203
12945TIP3    H260327   2.180   5.178   0.729 -0.1885 -1.0700 -2.6836
12946TIP3   OH260328   1.265   5.610  13.169  0.3201 -0.1311 -0.8103
12946TIP3    H160329   1.342   5.627  13.115  1.0752 -0.3240  0.1909
12946TIP3    H260330   1.285   5.651  13.253 -1.2710  1.0708 -0.9788
12947TIP3   OH260331   3.316   4.398  13.338 -0.0439  0.1202  0.0372
12947TIP3    H160332   3.409   4.375  13.340  0.2890  1.4281  0.3929
12947TIP3    H260333   3.303   4.449  13.418 -0.0613  3.6098 -2.1075
12948TIP3   OH260334   4.535   1.024  14.798  0.5378 -0.2191  0.2645
12948TIP3    H160335   4.479   1.098  14.775  2.1756  0.7491 -0.7041
12948TIP3    H260336   4.505   0.953  14.741 -0.5909 -0.1048  0.7077
12949TIP3   OH260337   5.121   6.167   1.732  0.1898  0.2254  0.7230
12949TIP3    H160338   5.159   6.087   1.769 -0.9912  0.4327  2.4157
12949TIP3    H260339   5.080   6.138   1.651  1.1680 -0.5770  0.4979
12950TIP3   OH260340   6.704   3.973   0.719 -0.0821 -0.0119  0.0264
12950TIP3    H160341   6.661   3.952   0.636  1.3328  0.0532 -0.7564
12950TIP3    H260342   6.720   3.889   0.760 -0.2512 -0.0835 -0.0553
12951TIP3   OH260343   3.469   0.629  12.424  0.4013  0.4504 -0.5208
12951TIP3    H160344   3.546   0.634  12.367 -0.7285 -2.2767 -2.4024
12951TIP3    H260345   3.397   0.606  12.366 -1.1556 -0.5372  1.7186
12952TIP3   OH260346   3.535   3.145  15.084 -0.6705 -0.1474 -0.3047
12952TIP3    H160347   3.516   3.195  15.005  1.3769  1.0072 -0.1113
12952TIP3    H260348   3.537   3.054  15.055  2.1185  0.4011 -2.0714
12953TIP3   OH260349   2.921   3.619   2.203  0.1593  0.2497 -0.2656
12953TIP3    H160350   2.876   3.631   2.120 -0.1371  2.4781  0.1684
12953TIP3    H260351   2.993   3.560   2.183 -2.6033 -2.9673 -1.0676
12954TIP3   OH260352   4.153   3.121  10.561 -0.0041  0.5186  0.0555
12954TIP3    H160353   4.097   3.146  10.635 -0.9345 -0.3621 -0.3439
12954TIP3    H260354   4.191   3.204  10.532 -0.9584  1.1154  0.4475
12955TIP3   OH260355   2.645   3.543  17.133 -0.1871  0.1291  0.4198
12955TIP3    H160356   2.560   3.539  17.178  0.2638  2.4902  1.5429
12955TIP3    H260357   2.677   3.453  17.136 -2.3740 -0.6925  0.5160
12956TIP3   OH260358   2.793   1.345  16.407  0.5539 -0.0241 -0.0444
12956TIP3    H160359   2.796   1.250  16.398  0.6073 -0.0241 -0.0313
12956TIP3    H260360   2.724   1.373  16.346 -0.0157 -0.1457  0.5342
12957TIP3   OH260361   2.552   5.056   3.212  0.2758  0.2150  0.0988
12957TIP3    H160362   2.492   5.054   3.286  0.7164  1.0203  0.4797
12957TIP3    H260363   2.555   4.965   3.182 -1.3534  0.2039 -0.1090
12958TIP3   OH260364   4.513   6.068   3.681  0.4445  0.1977  0.5124
12958TIP3    H160365   4.570   6.106   3.748  0.6377 -0.2872  0.6299
12958TIP3    H260366   4.522   6.125   3.605 -0.4753  1.2825  1.1940
12959TIP3   OH260367   6.664   2.903   2.355  0.7362 -0.2156  0.1732
12959TIP3    H160368   6.622   2.823   2.387  0.9292 -0.7319 -0.8155
12959TIP3    H260369   6.717   2.934   2.428  0.9262 -1.1926  0.4602
12960TIP3   OH260370   2.637   6.648  13.959 -0.4383 -0.5823  0.0731
12960TIP3    H160371   2.554   6.658  13.913 -2.1442 -0.4169  3.1066
12960TIP3    H260372   2.673   6.737  13.962 -1.5443 -0.1743  1.2917
12961TIP3   OH260373   0.647   1.482   1.765  0.0256  0.2521  0.3797
12961TIP3    H160374   0.641   1.517   1.676  0.9415 -0.7524 -0.1019
12961TIP3    H260375   0.706   1.541   1.811 -0.9714  1.1490  0.5179
12962TIP3   OH260376   0.588   2.843   1.417 -0.3522 -0.2890  0.4889
12962TIP3    H160377   0.534   2.777   1.374 -0.2800  0.1196 -0.2189
12962TIP3    H260378   0.677   2.808   1.412 -0.1857  0.2789 -0.6886
12963TIP3   OH260379   1.401   3.357   2.024 -0.0364  0.3266 -0.4975
12963TIP3    H160380   1.474   3.404   1.984  1.5719 -0.8556  0.9755
12963TIP3    H260381   1.417   3.265   2.002 -1.6018  0.1323 -0.9288
12964TIP3   OH260382   1.965   4.265  10.798  0.1694  0.1595 -0.1301
12964TIP3    H160383   1.912   4.345  10.791 -0.6291 -0.2674  0.8154
12964TIP3    H260384   2.054   4.297  10.814  0.0410  0.8758 -0.8147
12965TIP3   OH260385   1.388   1.787  14.826 -0.3845 -0.0396  0.6167
12965TIP3    H160386   1.418   1.698  14.804  1.0506  0.5351  0.1917
12965TIP3    H260387   1.320   1.805  14.762 -1.5063 -1.2785  1.4374
12966TIP3   OH260388   2.762   5.027   4.749 -0.0468 -0.4670  0.3828
12966TIP3    H160389   2.770   4.935   4.725  0.8498 -0.9248  2.3565
12966TIP3    H260390   2.682   5.032   4.800 -0.6963  0.0787 -0.6584
12967TIP3   OH260391   6.664   5.783   5.003  0.0721  0.1320  0.0623
12967TIP3    H160392   6.623   5.810   5.085 -0.0991  0.7816 -0.2260
12967TIP3    H260393   6.626   5.842   4.937 -0.1198 -0.6684 -0.5534
12968TIP3   OH260394   4.193   6.619  15.596  0.3019  0.2202 -0.2875
12968TIP3    H160395   4.249   6.583  15.527 -0.1899 -1.9582  0.4284
12968TIP3    H260396   4.145   6.690  15.553  1.0591 -0.1645 -1.8065
12969TIP3   OH260397   1.863   0.442   1.288  0.0055  0.0268 -0.0692
12969TIP3    H160398   1.855   0.402   1.374 -0.3215 -0.2610 -0.2292
12969TIP3    H260399   1.850   0.536   1.304 -0.2670 -0.0490  0.1694
12970TIP3   OH260400   6.199   4.892   3.499 -0.1689 -0.3802 -0.1289
12970TIP3    H160401   6.172   4.965   3.442 -1.6163 -0.0208  1.0035
12970TIP3    H260402   6.214   4.820   3.438  0.1318  0.5176 -1.1594
12971TIP3   OH260403   5.213   4.354  16.068  0.8120 -0.1404 -0.2418
12971TIP3    H160404   5.126   4.360  16.108  1.8396 -1.5084  2.3468
12971TIP3    H260405   5.268   4.316  16.137  3.7380  1.8392 -1.4052
12972TIP3   OH260406   3.856   5.784   0.720 -0.3413 -0.6668 -0.1040
12972TIP3    H160407   3.825   5.696   0.741  0.0433 -0.5218  1.1084
12972TIP3    H260408   3.881   5.822   0.804  0.3395  0.2828 -0.7134
12973TIP3   OH260409   6.425   4.371   0.736  0.4897 -0.2398 -0.6114
12973TIP3    H160410   6.508   4.407   0.768  0.7817 -0.4437 -1.1486
12973TIP3    H260411   6.433   4.276   0.749  0.6854 -0.3405 -1.4817
12974TIP3   OH260412   2.281   6.028  10.748 -0.3783  0.0055  0.6637
12974TIP3    H160413   2.364   6.016  10.794 -1.2969 -0.8842  2.1123
12974TIP3    H260414   2.272   6.123  10.742  0.6120  0.1172  0.7274
12975TIP3   OH260415   3.429   3.208  11.084  0.6298  0.2886  0.2409
12975TIP3    H160416   3.483   3.257  11.147 -0.8901  0.2791  1.5884
12975TIP3    H260417   3.411   3.272  11.014  0.9226  0.8290  0.6500
12976TIP3   OH260418   3.162   0.070  17.017  0.0833  0.4111  0.5058
12976TIP3    H160419   3.202   0.137  16.961 -1.3515  1.1910  0.3790
12976TIP3    H260420   3.196   0.089  17.105  0.3678  0.7729  0.3177
12977TIP3   OH260421   3.647   4.854  13.482  0.3758  0.0499 -0.4631
12977TIP3    H160422   3.560   4.887  13.504  0.6055  1.3265 -1.4213
12977TIP3    H260423   3.631   4.781  13.422 -0.0171  0.6074 -1.0414
12978TIP3   OH260424   1.893   0.185  12.390 -0.0709  0.0404 -0.5576
12978TIP3    H160425   1.819   0.126  12.376 -0.3571  0.2729 -0.0233
12978TIP3    H260426   1.870   0.264  12.342 -0.3855  0.2943  0.0215
12979TIP3   OH260427   4.657   6.374  11.484  0.3933  0.1487 -0.2949
12979TIP3    H160428   4.564   6.359  11.498  0.7600 -2.0280 -0.0164
12979TIP3    H260429   4.689   6.409  11.567 -0.0910  0.4963 -0.2528
12980TIP3   OH260430   1.586   1.953   3.666 -0.2779  0.2357  0.3838
12980TIP3    H160431   1.559   1.862   3.681 -1.6714  0.5358 -0.2434
12980TIP3    H260432   1.524   2.005   3.717 -0.8292  0.9325 -0.9735
12981TIP3   OH260433   4.112   4.448   4.336  0.5466 -0.6723  0.1229
12981TIP3    H160434   4.169   4.470   4.263  0.6980 -1.1641  0.0897
12981TIP3    H260435   4.044   4.392   4.297 -0.1992  0.2565  0.0763
12982TIP3   OH260436   0.653   4.182  11.468 -0.1582  0.3544 -0.7191
12982TIP3    H160437   0.595   4.108  11.449  2.1815 -1.1185 -2.2738
12982TIP3    H260438   0.734   4.162  11.423  1.6060  2.4016  1.4131
12983TIP3   OH260439   1.450   2.033  12.635 -0.5301  0.3061  0.6946
12983TIP3    H160440   1.454   2.041  12.730 -0.6224 -1.4255  0.8518
12983TIP3    H260441   1.529   1.984  12.611 -0.7291  0.3528 -0.0710
12984TIP3   OH260442   6.149   6.060  14.661 -0.4757 -0.0731  0.3296
12984TIP3    H160443   6.165   5.968  14.679 -0.5509  0.1689  1.6838
12984TIP3    H260444   6.201   6.107  14.726 -0.9581  0.8299  0.0750
12985TIP3   OH260445   1.757   5.840  16.601 -0.0927  0.0506 -1.0680
12985TIP3    H160446   1.682   5.784  16.583  0.2631 -0.7688 -0.0987
12985TIP3    H260447   1.730   5.927  16.571 -1.8459 -0.0068  0.2514
12986TIP3   OH260448   3.245   5.324  15.248 -0.0486  0.3546 -0.5215
12986TIP3    H160449   3.194   5.257  15.203  0.4788 -0.3989 -0.0015
12986TIP3    H260450   3.201   5.406  15.226 -0.2484 -0.0776 -1.7875
12987TIP3   OH260451   3.641   1.900  11.839 -0.0729  0.2669  0.3462
12987TIP3    H160452   3.564   1.935  11.795  0.0312  0.6929  0.4939
12987TIP3    H260453   3.612   1.818  11.879  0.0019 -0.4632 -1.0603
12988TIP3   OH260454   2.469   1.348  11.140 -0.2576  0.3166  0.0536
12988TIP3    H160455   2.437   1.284  11.076  1.2818 -0.0727 -0.3379
12988TIP3    H260456   2.421   1.429  11.119 -0.8516 -0.2120 -0.6391
12989TIP3   OH260457   4.559   5.086  14.498 -0.4906  0.0871 -0.2265
12989TIP3    H160458   4.533   5.177  14.507  1.0996  0.8452 -2.8662
12989TIP3    H260459   4.642   5.088  14.450  0.7862 -2.6286  1.7083
12990TIP3   OH260460   3.235   4.099  16.721  0.4949 -0.0133  0.3863
12990TIP3    H160461   3.328   4.080  16.735  1.3395  1.7044 -2.4804
12990TIP3    H260462   3.212   4.047  16.644 -0.8397 -0.1734  0.8869
12991TIP3   OH260463   3.037   0.415   6.458  0.1037 -0.0141  0.3534
12991TIP3    H160464   3.084   0.459   6.387 -0.4803  0.9747  0.5758
12991TIP3    H260465   2.981   0.482   6.495  0.6636 -0.4229  1.9905
12992TIP3   OH260466   6.168   6.711   1.149 -0.0189 -0.4211 -0.5256
12992TIP3    H160467   6.203   6.622   1.151  1.0999 -0.0754 -2.7972
12992TIP3    H260468   6.126   6.718   1.063 -0.7650  1.0133 -0.0608
12993TIP3   OH260469   1.412   0.634   2.123 -0.0863  0.0430  0.2571
12993TIP3    H160470   1.323   0.669   2.114  0.6219  1.6785 -0.6091
12993TIP3    H260471   1.446   0.674   2.202 -0.4543 -1.3952  1.1730
12994TIP3   OH260472   4.069   3.451   0.725 -1.1651  0.2017  0.6874
12994TIP3    H160473   4.137   3.393   0.688 -2.7833 -0.8335 -0.7220
12994TIP3    H260474   4.048   3.412   0.810  0.4616  0.9148  1.4468
12995TIP3   OH260475   6.323   0.636   0.667 -0.2062  0.1236  0.1373
12995TIP3    H160476   6.313   0.663   0.759 -2.3069 -0.3207  0.0513
12995TIP3    H260477   6.404   0.679   0.639  0.7188 -0.1084  2.3342
12996TIP3   OH260478   6.666   1.647   4.575  0.0647  0.1620  0.1412
12996TIP3    H160479   6.720   1.583   4.530  1.4681  0.1648  1.7722
12996TIP3    H260480   6.717   1.672   4.652 -2.2534  0.1675  1.7372
12997TIP3   OH260481   5.277   3.773  13.142 -0.1102  0.7036 -0.0873
12997TIP3    H160482   5.337   3.724  13.198  0.2343  0.8768 -0.3035
12997TIP3    H260483   5.218   3.707  13.106  0.4965  0.4184 -0.5578
12998TIP3   OH260484   5.499   2.082   3.326  0.6756 -0.2129  0.0000
12998TIP3    H160485   5.449   2.001   3.342 -0.2588  0.3819  0.1434
12998TIP3    H260486   5.585   2.051   3.298 -0.2125 -1.2814 -1.6848
12999TIP3   OH260487   2.222   3.433   3.175 -0.1453 -0.4482  0.4064
12999TIP3    H160488   2.261   3.388   3.100 -0.1325  0.3614 -0.0773
12999TIP3    H260489   2.262   3.391   3.252  1.3306  0.0480 -0.0706
13000TIP3   OH260490   1.815   6.008  14.594 -0.2474  0.5833 -0.1337
13000TIP3    H160491   1.835   6.071  14.664  0.5686 -1.3847  1.4788
13000TIP3    H260492   1.886   6.018  14.531 -0.4074  1.6432 -0.1425
13001TIP3   OH260493   3.116   2.414  12.963  0.1239  0.0245  0.1165
13001TIP3    H160494   3.196   2.467  12.958 -1.3330  2.1847 -1.5475
13001TIP3    H260495   3.056   2.456  12.900 -2.0589 -1.9655  0.8115
13002TIP3   OH260496   0.112   1.408   3.942 -0.2652  0.1664 -0.6286
13002TIP3    H160497   0.127   1.435   3.851  0.3544 -1.8672 -1.1489
13002TIP3    H260498   0.053   1.475   3.977 -0.2940  1.1241 -2.4422
13003TIP3   OH260499   5.511   6.572   2.530  0.5433  0.0771 -0.0718
13003TIP3    H160500   5.580   6.621   2.575  0.0939  0.5852  0.0604
13003TIP3    H260501   5.558   6.520   2.465  1.0363  0.5560 -0.1066
13004TIP3   OH260502   2.142   6.542   0.487  0.0090 -0.2872 -0.5124
13004TIP3    H160503   2.219   6.596   0.507 -0.5075  0.1573  0.3104
13004TIP3    H260504   2.176   6.469   0.435  1.0806 -0.4355  0.3973
13005TIP3   OH260505   6.364   0.019  15.837 -0.0934  0.1859 -0.1441
13005TIP3    H160506   6.398   0.059  15.917 -1.0645 -0.8290  0.7843
13005TIP3    H260507   6.271   0.007  15.853  0.1159 -2.0968 -0.5521
13006TIP3   OH260508   4.204   3.294   3.771  0.4630  0.6975  0.1528
13006TIP3    H160509   4.118   3.299   3.731 -0.6061  0.6587  2.3981
13006TIP3    H260510   4.245   3.217   3.731 -1.8501 -1.3243  1.5143
13007TIP3   OH260511   6.010   0.001  17.060  0.5227 -0.1649 -0.1684
13007TIP3    H160512   5.922  -0.028  17.084  0.1916  0.3347 -0.7586
13007TIP3    H260513   6.011   0.094  17.082  1.1968 -0.3549  0.6455
13008TIP3   OH260514   5.098   5.471  11.903  0.1409  0.2400  0.1257
13008TIP3    H160515   5.062   5.459  11.815 -1.9754  0.5434  0.9111
13008TIP3    H260516   5.166   5.404  11.910 -1.1287 -1.2319 -0.9904
13009TIP3   OH260517   5.827   5.585   1.740 -0.2990  0.0477 -0.9560
13009TIP3    H160518   5.825   5.496   1.706  1.8980 -1.1871  1.8967
13009TIP3    H260519   5.869   5.637   1.671  2.5456 -2.0353 -0.8498
13010TIP3   OH260520   6.509   0.295   4.301 -0.2797 -0.7256  0.3708
13010TIP3    H160521   6.575   0.229   4.322 -0.1475 -0.8088 -0.2784
13010TIP3    H260522   6.488   0.336   4.384  0.1939 -1.0754  0.6639
13011TIP3   OH260523   4.033   4.057   5.408 -0.0661 -0.0014  0.1357
13011TIP3    H160524   3.968   4.072   5.477 -1.1168 -1.5885 -0.4698
13011TIP3    H260525   4.064   3.968   5.424  0.2451 -0.1014 -0.9826
13012TIP3   OH260526   2.479   0.853   4.138 -0.0319  0.2039  0.2737
13012TIP3    H160527   2.547   0.909   4.101 -1.3655  2.2955  0.9095
13012TIP3    H260528   2.512   0.830   4.225  1.7011 -2.2115 -0.9374
13013TIP3   OH260529   3.514   3.781  11.762 -0.9011 -0.7768  0.4777
13013TIP3    H160530   3.458   3.711  11.794 -0.9874 -2.0785 -2.3695
13013TIP3    H260531   3.502   3.780  11.667  0.5362  1.8712  0.2092
13014TIP3   OH260532   2.371   1.005   1.010  0.5450 -0.5891  0.0050
13014TIP3    H160533   2.382   0.980   1.102  1.1267  1.0487  0.4046
13014TIP3    H260534   2.277   1.019   0.999  0.3755 -1.6367  0.1193
13015TIP3   OH260535   6.717   3.652   2.274  0.3786  0.2196 -0.2946
13015TIP3    H160536   6.801   3.676   2.313  0.5220  1.1356 -1.1666
13015TIP3    H260537   6.652   3.677   2.341  0.8487 -1.5670  0.8766
13016TIP3   OH260538   3.010   1.913  15.142 -0.2741  0.3343  0.3417
13016TIP3    H160539   2.968   1.978  15.085  0.4399  0.2135 -0.3288
13016TIP3    H260540   3.098   1.947  15.157  0.0186 -0.3502  0.1942
13017TIP3   OH260541   4.202   3.482  13.821 -0.4472  0.0996  0.4092
13017TIP3    H160542   4.292   3.488  13.791 -0.5303  1.3267  0.3977
13017TIP3    H260543   4.185   3.388  13.827  0.4617 -0.1449 -0.6867
13018TIP3   OH260544   1.893   2.483  11.553  0.5375  0.0464 -0.5078
13018TIP3    H160545   1.907   2.543  11.626  0.9605  0.8947 -1.2791
13018TIP3    H260546   1.844   2.534  11.489  0.7530 -0.4811 -1.1058
13019TIP3   OH260547   3.985   2.878  13.246  0.2114  0.2362  0.0054
13019TIP3    H160548   4.070   2.834  13.238 -0.1214 -0.5154  0.4850
13019TIP3    H260549   3.927   2.828  13.189 -0.0521  0.3592  0.1652
13020TIP3   OH260550   2.706   5.515   3.789 -0.2287  0.3228 -0.2389
13020TIP3    H160551   2.720   5.448   3.856  0.5329  1.7904  1.1003
13020TIP3    H260552   2.617   5.548   3.807 -0.1200  0.5452 -0.1100
13021TIP3   OH260553   3.680   0.910   1.206 -0.1754  0.1134  0.6498
13021TIP3    H160554   3.600   0.923   1.256  0.3324 -0.7909  1.7057
13021TIP3    H260555   3.707   0.821   1.226  0.8169  0.2368 -0.1035
13022TIP3   OH260556   3.964   5.766  13.138  0.2471 -0.1435 -0.8304
13022TIP3    H160557   3.946   5.676  13.111  1.1711 -0.3159 -0.8792
13022TIP3    H260558   3.890   5.816  13.105 -0.4291 -0.9339 -0.5384
13023TIP3   OH260559   6.475   1.412   2.244 -0.0932  0.2916 -0.0251
13023TIP3    H160560   6.535   1.486   2.256  0.3969 -0.1458  0.2544
13023TIP3    H260561   6.391   1.444   2.275  0.1385  0.7000  0.1933
13024TIP3   OH260562   1.929   1.258  13.270 -0.0019  0.1627 -0.7312
13024TIP3    H160563   1.952   1.347  13.241  0.3243  1.3744  2.9501
13024TIP3    H260564   1.834   1.256  13.268 -0.1457  1.6392  1.8101
13025TIP3   OH260565   1.133   4.202  12.821 -0.4063  0.0165  0.2470
13025TIP3    H160566   1.139   4.117  12.777 -1.0566 -0.7488  1.5902
13025TIP3    H260567   1.040   4.222  12.822 -0.3064  0.4819  0.4149
13026TIP3   OH260568   5.666   6.259   0.384 -0.3650  0.1992 -0.3210
13026TIP3    H160569   5.751   6.246   0.342 -0.1191 -1.5837  0.6900
13026TIP3    H260570   5.668   6.349   0.416  2.3141 -0.7219  2.2879
13027TIP3   OH260571   6.414   1.461  12.058  0.3353 -0.1550 -0.1656
13027TIP3    H160572   6.498   1.447  12.014 -0.0287 -1.1208 -0.5744
13027TIP3    H260573   6.418   1.407  12.137  1.0267  1.6588  1.0647
13028TIP3   OH260574   5.623   4.918  10.986 -0.1480  0.2607 -0.2317
13028TIP3    H160575   5.529   4.937  10.994 -0.3196 -0.1707 -1.1210
13028TIP3    H260576   5.659   4.995  10.942 -0.2612 -0.0004 -0.7876
13029TIP3   OH260577   2.260   5.604   0.506  0.6316  0.1095  0.4273
13029TIP3    H160578   2.297   5.537   0.448 -0.4351 -1.4053  1.4389
13029TIP3    H260579   2.166   5.604   0.485  0.8809  2.6363 -0.8603
13030TIP3   OH260580   3.456   6.248  11.693 -0.5669  0.1432  0.3916
13030TIP3    H160581   3.383   6.190  11.712 -0.7250 -0.2682 -1.4253
13030TIP3    H260582   3.468   6.243  11.599  0.5851  1.6778  0.4236
13031TIP3   OH260583   0.248   3.223  11.579  0.3093 -0.2774 -0.3952
13031TIP3    H160584   0.184   3.294  11.578  1.2356  0.5689 -0.7010
13031TIP3    H260585   0.245   3.190  11.669 -0.5581 -0.2577 -0.4095
13032TIP3   OH260586   1.722   3.913   4.949 -0.4668  0.2755  0.3601
13032TIP3    H160587   1.729   3.967   4.870 -0.2295 -0.8698 -0.4176
13032TIP3    H260588   1.773   3.960   5.015  0.4387  0.5842 -0.5495
13033TIP3   OH260589   0.044   2.982   1.593 -0.0974 -0.3814  0.0810
13033TIP3    H160590   0.052   2.956   1.685  0.3045 -1.5338 -0.2685
13033TIP3    H260591   0.001   3.067   1.596  0.1367 -0.2920  1.3527
13034TIP3   OH260592   4.082   1.346   4.023  0.3150  0.5052  0.2675
13034TIP3    H160593   4.165   1.386   4.049 -0.1062  0.3648  1.8711
13034TIP3    H260594   4.016   1.411   4.047 -0.2650 -0.5689  1.5941
13035TIP3   OH260595   4.318   6.388   5.534 -0.7746 -0.1716 -0.2417
13035TIP3    H160596   4.262   6.437   5.473 -0.0713  0.7399 -0.1585
13035TIP3    H260597   4.348   6.453   5.597  1.2566 -0.4369 -0.9212
13036TIP3   OH260598   5.422   0.912  13.014  0.2268 -0.3756 -0.2516
13036TIP3    H160599   5.334   0.926  13.047 -0.5869 -1.7823 -1.7610
13036TIP3    H260600   5.412   0.904  12.919  1.8265 -1.5803 -0.3559
13037TIP3   OH260601   6.049   3.230   3.281 -0.3093  0.3855 -1.0319
13037TIP3    H160602   6.137   3.265   3.270 -0.0250 -0.1514 -0.5086
13037TIP3    H260603   6.010   3.282   3.351 -0.3004  0.4298 -1.0602
13038TIP3   OH260604   4.878   5.440   4.794  0.0299 -0.2048 -0.3933
13038TIP3    H160605   4.898   5.354   4.830 -2.0139 -0.5461  0.0026
13038TIP3    H260606   4.845   5.490   4.869  0.6774  0.7545 -0.7378
13039TIP3   OH260607   4.421   1.975   2.509 -0.1680  0.3414 -0.3535
13039TIP3    H160608   4.372   1.944   2.585  0.8758  0.2328  0.2887
13039TIP3    H260609   4.434   1.896   2.455  0.2600  0.1576  0.0178
13040TIP3   OH260610   0.579   3.761   0.830  0.3865 -0.0893  0.0146
13040TIP3    H160611   0.599   3.790   0.919 -1.6304  1.1898  0.0952
13040TIP3    H260612   0.503   3.704   0.840 -0.1462  0.4524 -0.9373
13041TIP3   OH260613   3.629   2.138  16.013  0.8679  0.2879  0.3596
13041TIP3    H160614   3.665   2.093  15.937 -0.1781  2.4770 -1.4980
13041TIP3    H260615   3.585   2.215  15.976 -1.2536  0.3985  3.0197
13042TIP3   OH260616   6.315   3.490  15.737 -0.0288 -0.4960 -0.0077
13042TIP3    H160617   6.388   3.430  15.736 -0.0897 -0.6260  2.1095
13042TIP3    H260618   6.327   3.544  15.658  1.9650 -0.9289 -0.0129
13043TIP3   OH260619   1.535   0.525  11.737  0.2377 -0.4270  0.1487
13043TIP3    H160620   1.554   0.438  11.772  1.5407 -0.3335 -0.3088
13043TIP3    H260621   1.481   0.508  11.660  2.4890 -1.0111 -1.3642
13044TIP3   OH260622   0.630   1.924   4.992  0.7296  0.0000 -0.3455
13044TIP3    H160623   0.623   1.870   5.071 -0.7256 -0.0878 -0.5284
13044TIP3    H260624   0.609   1.865   4.920 -2.9002  1.2183 -0.3943
13045TIP3   OH260625   5.605   0.117   2.209 -0.0407  0.1048  0.0800
13045TIP3    H160626   5.635   0.129   2.118 -0.6607  0.7183 -0.0434
13045TIP3    H260627   5.686   0.114   2.260  0.2924  0.3539 -0.4238
13046TIP3   OH260628   6.593   0.837   5.809 -0.2060  1.3089 -0.1381
13046TIP3    H160629   6.664   0.899   5.828 -1.9942  3.0570  1.0817
13046TIP3    H260630   6.534   0.886   5.752 -1.2438  0.4228  0.1758
13047TIP3   OH260631   6.027   6.130   1.116  0.5845 -0.4470 -0.1595
13047TIP3    H160632   6.085   6.054   1.124 -1.2621 -1.6601  2.4742
13047TIP3    H260633   6.033   6.173   1.202 -0.1849  1.0667 -0.8440
13048TIP3   OH260634   5.957   3.844  14.493 -0.4837 -0.5179  0.8554
13048TIP3    H160635   5.988   3.887  14.573 -0.8278 -0.2223  0.8295
13048TIP3    H260636   5.871   3.881  14.477  0.0239  0.1969 -0.2454
13049TIP3   OH260637   5.302   5.193   2.773 -0.5543  0.0500  0.3931
13049TIP3    H160638   5.254   5.135   2.831  0.2448  0.2509  1.2743
13049TIP3    H260639   5.240   5.262   2.750 -0.1760  1.3110  2.9875
13050TIP3   OH260640   6.790   5.544  13.325 -0.7276 -0.2209 -0.5862
13050TIP3    H160641   6.863   5.598  13.355 -0.9804 -0.3441  0.2479
13050TIP3    H260642   6.810   5.456  13.355  0.3498 -0.8873 -3.0959
13051TIP3   OH260643   0.628   2.938  12.074 -0.0056 -0.0081  0.4816
13051TIP3    H160644   0.722   2.954  12.078 -0.0823  1.0745 -1.6065
13051TIP3    H260645   0.620   2.849  12.039  0.2429  1.0433 -2.3846
13052TIP3   OH260646   1.526   3.192   2.824 -0.5966 -0.2633 -0.1084
13052TIP3    H160647   1.580   3.243   2.764 -0.5577  0.7708  0.8005
13052TIP3    H260648   1.589   3.138   2.872 -0.4526  0.3127  0.3497
13053TIP3   OH260649   4.399   4.009   3.259 -0.4065 -0.9132 -0.5344
13053TIP3    H160650   4.459   3.974   3.325 -0.3119 -0.9491 -0.6373
13053TIP3    H260651   4.453   4.018   3.180  0.2503  1.9827  0.1969
13054TIP3   OH260652   3.435   4.066  12.481 -0.1026  0.8881  0.5036
13054TIP3    H160653   3.498   4.138  12.475  0.6625  0.1315 -0.8308
13054TIP3    H260654   3.372   4.083  12.411 -0.2629  0.5736  0.5689
13055TIP3   OH260655   4.886   4.965  14.675 -0.4272 -0.0633 -0.4573
13055TIP3    H160656   4.835   4.970  14.756  1.1765 -1.1310  0.6415
13055TIP3    H260657   4.831   4.916  14.615 -0.1780 -2.3418  1.1417
13056TIP3   OH260658   6.441   4.043   1.011 -0.3478 -0.9312  0.6021
13056TIP3    H160659   6.459   4.055   0.918  0.2578 -0.2138  0.8104
13056TIP3    H260660   6.485   3.961   1.033 -0.4748 -1.0918  0.2608
13057TIP3   OH260661   1.574   5.975   0.452 -0.3231  0.0653 -0.2658
13057TIP3    H160662   1.639   5.912   0.419 -0.7538  0.1459 -1.2695
13057TIP3    H260663   1.618   6.060   0.445 -0.2780  0.0399 -0.2849
13058TIP3   OH260664   2.530   0.030  12.892 -0.2989 -0.3128  0.4267
13058TIP3    H160665   2.513   0.094  12.823  0.4814 -0.8339 -0.2401
13058TIP3    H260666   2.624   0.013  12.887 -0.4280 -1.1786  0.8961
13059TIP3   OH260667   2.979   3.167   1.906 -0.1584  0.5208  0.5036
13059TIP3    H160668   2.929   3.090   1.881  1.3458 -0.3864  0.2514
13059TIP3    H260669   2.979   3.165   2.002  2.2125 -1.3452  0.4926
13060TIP3   OH260670   3.719   0.169   1.296  0.4034  0.1282 -0.1638
13060TIP3    H160671   3.733   0.075   1.288 -1.3672 -0.5638  3.7583
13060TIP3    H260672   3.624   0.179   1.291  0.5305  1.6143  0.2429
13061TIP3   OH260673   4.985   2.268   3.565 -0.8103  0.4020 -0.5395
13061TIP3    H160674   4.928   2.326   3.514 -1.1703  0.5640  0.0415
13061TIP3    H260675   5.074   2.297   3.543 -0.9683  0.6375 -0.8798
13062TIP3   OH260676   0.752   5.573  15.953  0.3125  0.0299  0.4784
13062TIP3    H160677   0.721   5.647  15.901 -0.3437 -0.1089  0.6645
13062TIP3    H260678   0.838   5.552  15.918 -0.4393 -0.5526 -1.0409
13063TIP3   OH260679   5.891   1.980  11.548 -0.3562 -0.1664  0.6342
13063TIP3    H160680   5.903   1.917  11.619 -3.6396 -0.9958  0.5266
13063TIP3    H260681   5.933   1.939  11.472  0.9885 -0.3947  1.4767
13064TIP3   OH260682   0.169   5.563   6.918 -0.1615  0.3214  0.3875
13064TIP3    H160683   0.225   5.614   6.859  1.0575  0.3879  1.5754
13064TIP3    H260684   0.193   5.472   6.901 -3.1183  0.0140 -2.5220
13065TIP3   OH260685   5.235   6.444  14.354  0.1461  0.6249 -0.2797
13065TIP3    H160686   5.216   6.534  14.381  2.7874  1.9407 -2.5354
13065TIP3    H260687   5.330   6.436  14.363  0.2621 -1.0740 -2.5212
13066TIP3   OH260688   0.707   1.987   2.290 -0.5770  0.3352  0.5605
13066TIP3    H160689   0.694   2.017   2.200 -2.1550  0.7615  0.9178
13066TIP3    H260690   0.748   1.901   2.281 -0.0402  0.7026 -0.5491
13067TIP3   OH260691   0.155   3.137   2.264  0.4002 -0.0167 -0.0914
13067TIP3    H160692   0.089   3.104   2.203  0.5507 -0.5543  0.0360
13067TIP3    H260693   0.237   3.099   2.233  0.3817 -0.8299  0.8327
13068TIP3   OH260694   3.525   0.570   0.765 -0.0623 -0.2671  0.1293
13068TIP3    H160695   3.488   0.570   0.853 -0.1319 -0.8433  0.1004
13068TIP3    H260696   3.503   0.484   0.730  0.5534 -0.2856 -0.2061
13069TIP3   OH260697   6.572   4.340  11.236 -0.5943 -0.2972 -0.6171
13069TIP3    H160698   6.582   4.304  11.148 -1.1080 -1.9319 -0.0218
13069TIP3    H260699   6.587   4.434  11.225  0.1843 -0.5915 -2.3022
13070TIP3   OH260700   4.876   6.161   2.431  0.1937  0.1197  0.0420
13070TIP3    H160701   4.968   6.165   2.457 -0.2052 -0.3016  1.5522
13070TIP3    H260702   4.853   6.252   2.412  0.6857  0.3379  0.4721
13071TIP3   OH260703   1.045   5.619   3.155  0.1532 -0.3692  0.6046
13071TIP3    H160704   1.119   5.602   3.096  0.5069 -0.3033  1.0313
13071TIP3    H260705   1.085   5.648   3.236 -0.3306 -0.6842  0.9574
13072TIP3   OH260706   6.368   6.679  11.380  0.2238 -0.3649  0.0482
13072TIP3    H160707   6.346   6.693  11.287  0.8862  0.6548  0.0338
13072TIP3    H260708   6.309   6.738  11.427  1.6847  1.0768  0.1079
13073TIP3   OH260709   3.642   4.678  14.996 -0.6601  0.1356  0.4398
13073TIP3    H160710   3.644   4.688  14.901 -1.4113 -0.3128  0.3694
13073TIP3    H260711   3.724   4.632  15.017 -1.1356 -1.0218 -0.1596
13074TIP3   OH260712   0.639   0.151  15.567  0.8465  0.6885 -0.3642
13074TIP3    H160713   0.708   0.109  15.618 -0.9528  0.4502  1.9565
13074TIP3    H260714   0.566   0.089  15.570 -1.1074  2.9692  1.2802
13075TIP3   OH260715   1.118   3.016  14.961 -0.4765  0.9625 -0.2018
13075TIP3    H160716   1.202   2.984  14.928 -0.0620  1.8691 -0.0430
13075TIP3    H260717   1.057   3.000  14.888 -0.3621 -0.4635 -0.0079
13076TIP3   OH260718   2.705   2.184  13.532 -0.6065 -0.0476 -0.7138
13076TIP3    H160719   2.765   2.250  13.566 -2.7419  1.5935  0.0091
13076TIP3    H260720   2.729   2.103  13.577 -0.7170  1.1998  1.6462
13077TIP3   OH260721   5.804   4.099   2.251  0.1371  0.0654 -0.1203
13077TIP3    H160722   5.749   4.134   2.322 -0.2172 -0.3496 -0.1864
13077TIP3    H260723   5.765   4.014   2.231  0.6133 -0.0880 -0.3908
13078TIP3   OH260724   5.768   3.782  16.750 -0.0988 -0.2800  0.0856
13078TIP3    H160725   5.788   3.817  16.663 -1.0235 -0.6003 -0.2601
13078TIP3    H260726   5.707   3.846  16.788  0.2309 -0.1893  0.4645
13079TIP3   OH260727   1.354   2.815   0.738 -0.0209  0.2615  0.8363
13079TIP3    H160728   1.344   2.860   0.822 -0.5633 -0.7247  1.3117
13079TIP3    H260729   1.286   2.851   0.683 -1.5738 -1.1929  1.7602
13080TIP3   OH260730   6.210   1.037  15.418  0.1018 -0.0989 -0.4362
13080TIP3    H160731   6.144   0.991  15.366 -0.5245  1.2031 -0.8149
13080TIP3    H260732   6.170   1.122  15.438  1.2863  0.3330  0.1519
13081TIP3   OH260733   4.903   0.345   3.151  0.4679 -0.2403  0.2978
13081TIP3    H160734   4.847   0.422   3.146  0.5428 -0.2142 -0.2473
13081TIP3    H260735   4.991   0.381   3.164  0.1567 -0.3427  2.9568
13082TIP3   OH260736   2.117   4.087  15.270 -0.3453  0.0467  0.4387
13082TIP3    H160737   2.040   4.067  15.323 -1.7055 -0.3369 -1.6501
13082TIP3    H260738   2.186   4.030  15.306 -0.6834  1.1673  3.0111
13083TIP3   OH260739   3.226   3.005   4.443  0.5738 -0.1769 -0.3496
13083TIP3    H160740   3.184   2.936   4.393  0.2745 -1.0960  1.1246
13083TIP3    H260741   3.312   2.970   4.465  1.4952  1.0446 -1.9596
13084TIP3   OH260742   2.522   0.535  15.453  0.1538 -0.5859 -0.6264
13084TIP3    H160743   2.589   0.598  15.477 -1.9157  0.1067  3.8442
13084TIP3    H260744   2.539   0.459  15.509 -0.6566 -1.8343 -2.0327
13085TIP3   OH260745   6.339   2.718  14.666 -0.0138  0.2295  0.0520
13085TIP3    H160746   6.320   2.767  14.586  1.7124  0.8344 -0.0093
13085TIP3    H260747   6.432   2.695  14.659 -0.5173 -2.1167  0.5993
13086TIP3   OH260748   3.840   3.544   4.124  0.1302 -0.1068  0.1549
13086TIP3    H160749   3.838   3.557   4.029  2.0655  0.0959  0.1157
13086TIP3    H260750   3.749   3.553   4.151 -0.3498  0.6122 -1.5888
13087TIP3   OH260751   4.676   1.372  17.204  0.0456  0.0294  0.2119
13087TIP3    H160752   4.663   1.451  17.151  0.5762  0.1963  0.3344
13087TIP3    H260753   4.642   1.397  17.290 -1.5449 -0.4949 -0.2362
13088TIP3   OH260754   0.190   3.263   5.548  0.0672 -0.4991  0.2043
13088TIP3    H160755   0.199   3.168   5.550  1.5548 -0.3410  1.0420
13088TIP3    H260756   0.129   3.283   5.619 -2.3313 -1.0236 -1.6206
13089TIP3   OH260757   2.458   4.514  11.135 -0.3823 -0.3130 -0.3835
13089TIP3    H160758   2.472   4.585  11.072  0.4540 -1.3407 -1.3781
13089TIP3    H260759   2.500   4.438  11.095 -2.2600 -1.6526  0.1331
13090TIP3   OH260760   3.814   3.542  12.785 -0.7260 -0.8315 -0.1506
13090TIP3    H160761   3.905   3.545  12.814 -1.3262 -1.0130  1.8781
13090TIP3    H260762   3.818   3.527  12.691  1.3440 -0.1676 -0.1748
13091TIP3   OH260763   2.960   1.278  14.397  0.1036  0.0828  0.0045
13091TIP3    H160764   2.930   1.254  14.484  0.5671 -1.1044 -0.1509
13091TIP3    H260765   2.887   1.257  14.339  0.5664 -1.1314 -0.1510
13092TIP3   OH260766   6.228   0.033  14.687  0.4986 -0.0704 -0.1012
13092TIP3    H160767   6.280   0.021  14.608  0.1218 -1.2934 -0.1645
13092TIP3    H260768   6.151   0.082  14.658  0.2553 -0.7068 -0.5314
13093TIP3   OH260769   5.975   5.738  14.517  0.5454 -0.0972 -0.4707
13093TIP3    H160770   5.901   5.700  14.470 -1.4416  1.0528  1.6460
13093TIP3    H260771   5.993   5.675  14.587 -0.1114  0.8652  0.5739
13094TIP3   OH260772   2.362   3.482  15.023  0.1885  0.1994  0.0538
13094TIP3    H160773   2.295   3.545  14.997 -0.5811 -0.7437 -0.2677
13094TIP3    H260774   2.376   3.428  14.945 -1.8912 -2.4359  1.3976
13095TIP3   OH260775   2.148   0.872   5.509  0.2704  0.7436 -0.3886
13095TIP3    H160776   2.193   0.954   5.488 -0.3081  0.8867 -1.1239
13095TIP3    H260777   2.057   0.898   5.523  0.3372  0.4093  0.7210
13096TIP3   OH260778   1.538   0.698  13.287 -0.1077  0.5119  0.7504
13096TIP3    H160779   1.617   0.667  13.241 -0.6348 -1.7080  1.2761
13096TIP3    H260780   1.565   0.707  13.378  0.4035  3.0025  0.3886
13097TIP3   OH260781   5.580   5.703  14.780 -0.2052  0.0109  0.0721
13097TIP3    H160782   5.624   5.630  14.823 -0.6442  0.9358  2.1416
13097TIP3    H260783   5.549   5.667  14.697  1.1420 -1.6590  0.2675
13098TIP3   OH260784   5.312   0.483  10.363  0.0592 -0.4187  0.1131
13098TIP3    H160785   5.328   0.571  10.398 -1.5226  0.0363 -0.2947
13098TIP3    H260786   5.305   0.428  10.441 -0.3757  0.0605  0.4138
13099TIP3   OH260787   4.696   0.086  13.780  0.0471 -0.0328 -0.0676
13099TIP3    H160788   4.729   0.005  13.820 -0.5142 -0.1944  0.0769
13099TIP3    H260789   4.730   0.083  13.691 -0.1823 -0.5655 -0.1441
13100TIP3   OH260790   1.317   1.828   4.042  0.0453 -0.0288 -0.3438
13100TIP3    H160791   1.385   1.763   4.025  1.5087  1.3289  0.2084
13100TIP3    H260792   1.361   1.898   4.090 -1.7547  0.8621  0.0877
13101TIP3   OH260793   1.011   4.970  14.148  0.1417  0.4139 -0.4312
13101TIP3    H160794   1.070   5.044  14.163  0.7654 -0.0187 -0.6952
13101TIP3    H260795   1.069   4.901  14.115 -0.6800  0.2943 -1.6312
13102TIP3   OH260796   0.918   3.903   4.089 -0.2933  0.6909 -0.1301
13102TIP3    H160797   0.974   3.952   4.030 -1.0322  1.0673 -0.5159
13102TIP3    H260798   0.830   3.934   4.071 -0.8768 -1.4216 -1.0093
13103TIP3   OH260799   5.337   3.795  12.437 -0.0096 -0.6706  0.6265
13103TIP3    H160800   5.421   3.798  12.392 -0.9915 -1.2376 -1.3398
13103TIP3    H260801   5.304   3.706  12.420 -1.9749  0.2406 -0.5425
13104TIP3   OH260802   2.022   0.483   3.003 -0.1779 -0.3382 -0.4714
13104TIP3    H160803   1.994   0.564   3.045  0.2783 -0.2657 -0.2965
13104TIP3    H260804   2.017   0.501   2.909  1.1351  0.3237 -0.4259
13105TIP3   OH260805   6.125   4.208  13.407  0.2002  0.6996  0.0517
13105TIP3    H160806   6.176   4.193  13.327  2.2278 -1.1386  1.6122
13105TIP3    H260807   6.185   4.184  13.478 -1.7405  1.7655  2.1007
13106TIP3   OH260808   1.469   0.731   2.381 -0.2740 -0.0008 -0.5724
13106TIP3    H160809   1.565   0.737   2.379 -0.3059  2.6811  1.9871
13106TIP3    H260810   1.451   0.663   2.446 -0.1246 -0.6067 -1.1585
13107TIP3   OH260811   2.416   2.121   0.805  0.0211 -0.2941  0.3623
13107TIP3    H160812   2.440   2.068   0.882  0.6312  0.8830  0.9903
13107TIP3    H260813   2.495   2.173   0.787 -0.1718 -0.4694 -0.9797
13108TIP3   OH260814   1.274   6.320   3.579 -0.2287  0.0463  0.1450
13108TIP3    H160815   1.327   6.304   3.501 -2.2240 -0.9947 -1.0723
13108TIP3    H260816   1.254   6.233   3.613  0.2949  0.4852  1.5887
13109TIP3   OH260817   5.337   5.254  11.693  0.0002  0.8475  0.0783
13109TIP3    H160818   5.421   5.268  11.735  1.0151 -0.5709 -1.4196
13109TIP3    H260819   5.283   5.213  11.761  1.3426 -0.6508  0.2756
13110TIP3   OH260820   4.279   0.442  15.488 -0.1532 -0.3315  0.8112
13110TIP3    H160821   4.367   0.428  15.455  0.1121  1.4939  0.6861
13110TIP3    H260822   4.247   0.520  15.442 -1.1224  0.1194  2.1790
13111TIP3   OH260823   6.313   3.893   3.328 -1.3567 -0.7551 -0.4614
13111TIP3    H160824   6.254   3.817   3.323  0.5463 -2.2898 -0.0529
13111TIP3    H260825   6.371   3.873   3.401  0.1809  0.3783 -1.3631
13112TIP3   OH260826   2.630   6.237  10.438 -0.0265 -0.0425  0.1770
13112TIP3    H160827   2.666   6.323  10.413  1.3854 -1.0970 -1.5832
13112TIP3    H260828   2.635   6.186  10.358 -1.1688 -1.6745  1.1394
13113TIP3   OH260829   3.776   6.481   5.067  0.1785 -0.0475 -0.3212
13113TIP3    H160830   3.810   6.528   5.142 -0.2405  1.6683 -1.1930
13113TIP3    H260831   3.803   6.532   4.991 -0.8181 -0.8544 -1.2495
13114TIP3   OH260832   0.146   2.299  14.970  0.3653 -0.4604  1.2083
13114TIP3    H160833   0.212   2.328  14.907  0.2846  0.3551  1.4971
13114TIP3    H260834   0.172   2.210  14.993  0.7521 -0.5337  0.4996
13115TIP3   OH260835   0.378   4.550  12.257 -0.3833 -0.1467 -0.2787
13115TIP3    H160836   0.323   4.622  12.227  0.3689  1.1167  1.2654
13115TIP3    H260837   0.359   4.543  12.351 -0.3785 -1.9039 -0.3937
13116TIP3   OH260838   3.815   2.718  12.161  0.1849  0.3709 -0.1212
13116TIP3    H160839   3.854   2.648  12.109 -1.7323  0.7127 -2.0710
13116TIP3    H260840   3.882   2.787  12.163  2.0735 -1.4631  1.8095
13117TIP3   OH260841   2.944   5.414  13.588  0.2185  0.7003  0.5567
13117TIP3    H160842   2.959   5.489  13.532  2.2695  0.3897  0.6489
13117TIP3    H260843   2.975   5.442  13.675 -0.0434  0.1374  0.8388
13118TIP3   OH260844   4.961   3.419   1.833  0.2239  0.0097  0.0496
13118TIP3    H160845   5.049   3.420   1.796  0.6577 -0.8119  1.0184
13118TIP3    H260846   4.925   3.506   1.814  0.5604 -0.2662 -1.9301
13119TIP3   OH260847   4.604   1.864  13.762 -0.1049  1.0132  0.0698
13119TIP3    H160848   4.519   1.908  13.770 -0.1829  0.4238  2.9562
13119TIP3    H260849   4.668   1.935  13.756 -0.6879  1.4595 -0.9957
13120TIP3   OH260850   5.348   6.494  15.775 -0.1821  0.0017  0.5678
13120TIP3    H160851   5.384   6.439  15.705  0.0818 -1.2239  1.6499
13120TIP3    H260852   5.364   6.584  15.746  0.2818 -0.4963 -0.7558
13121TIP3   OH260853   4.389   1.967   2.863 -0.3134 -0.5425  0.1581
13121TIP3    H160854   4.479   1.986   2.888 -0.3533  1.6013 -1.2083
13121TIP3    H260855   4.350   2.052   2.845 -1.9115 -1.6108 -1.6740
13122TIP3   OH260856   5.804   5.254  14.644  0.4237  0.1428 -0.2204
13122TIP3    H160857   5.854   5.313  14.586  1.7478 -2.6838 -2.0453
13122TIP3    H260858   5.729   5.226  14.591  0.3469 -0.6051  0.2763
13123TIP3   OH260859   2.593   1.409  16.233  0.2156  0.4332 -0.4917
13123TIP3    H160860   2.580   1.501  16.214  1.1877  0.4821 -0.9873
13123TIP3    H260861   2.533   1.363  16.174 -0.0783  0.7380 -0.4278
13124TIP3   OH260862   2.380   0.614   3.995  0.4416  0.0594 -0.1522
13124TIP3    H160863   2.415   0.691   4.040  1.6512  0.0176 -0.9927
13124TIP3    H260864   2.363   0.645   3.906 -0.5130 -0.2523 -0.0762
13125TIP3   OH260865   1.143   3.177   2.532 -0.5549  0.3643 -0.0465
13125TIP3    H160866   1.208   3.195   2.464 -0.7280  0.5929 -0.1546
13125TIP3    H260867   1.088   3.256   2.534 -3.0660 -1.2190 -2.4930
13126TIP3   OH260868   0.609   6.162  15.914  0.5268 -0.1060  0.0813
13126TIP3    H160869   0.563   6.086  15.878  1.4569 -1.0331  0.8160
13126TIP3    H260870   0.575   6.171  16.003 -0.0841  0.7726 -0.2316
13127TIP3   OH260871   4.427   5.418  11.505  0.2187  0.3969 -0.7062
13127TIP3    H160872   4.503   5.405  11.448  1.4678  0.3114  0.9418
13127TIP3    H260873   4.434   5.509  11.533 -0.2496  0.3711 -0.5054
13128TIP3   OH260874   3.001   2.804  17.082  0.7709  0.2694 -0.0726
13128TIP3    H160875   2.946   2.872  17.122  2.0112  1.5057 -0.4251
13128TIP3    H260876   3.062   2.779  17.151 -0.1748 -1.0550  0.2965
13129TIP3   OH260877   4.310   1.795  15.385 -0.4721 -0.7169 -0.2263
13129TIP3    H160878   4.364   1.867  15.352 -1.8079 -0.8168 -2.7769
13129TIP3    H260879   4.372   1.725  15.403  0.4028 -0.5325 -2.2917
13130TIP3   OH260880   5.383   5.742   3.396 -0.4020  0.4996 -0.2482
13130TIP3    H160881   5.479   5.738   3.394 -0.4014  0.4445 -0.0921
13130TIP3    H260882   5.363   5.832   3.420 -0.3911  0.5502 -0.4211
13131TIP3   OH260883   6.265   2.104   1.990 -0.7117 -0.2388  0.9649
13131TIP3    H160884   6.335   2.041   1.971 -0.3849  0.2632  0.4881
13131TIP3    H260885   6.310   2.179   2.029 -1.0396 -0.0871  1.0542
13132TIP3   OH260886   2.843   4.675  11.803 -0.2790  0.0722 -0.0534
13132TIP3    H160887   2.848   4.681  11.898 -1.5022 -1.5676  0.1518
13132TIP3    H260888   2.817   4.762  11.774  1.1009  0.8579  1.0195
13133TIP3   OH260889   1.560   3.566  13.177 -0.0190 -0.2740 -0.2969
13133TIP3    H160890   1.512   3.504  13.122  0.6961 -0.6656 -0.4870
13133TIP3    H260891   1.533   3.545  13.266 -3.1563  2.0437 -0.6339
13134TIP3   OH260892   3.772   0.417   1.467 -0.1973 -0.4971  0.1377
13134TIP3    H160893   3.744   0.344   1.412  2.0432 -1.2047 -0.0759
13134TIP3    H260894   3.867   0.422   1.456  0.0360  0.6683  2.3258
13135TIP3   OH260895   5.744   5.990   2.417 -0.1492  0.0002  0.7175
13135TIP3    H160896   5.772   5.906   2.381 -0.1874  0.3001 -0.0230
13135TIP3    H260897   5.749   5.978   2.512 -2.2999 -1.5703  0.6759
13136TIP3   OH260898   0.827   5.868  11.789 -0.5290  0.7383  0.1095
13136TIP3    H160899   0.802   5.801  11.853  0.7351 -0.1100 -0.2849
13136TIP3    H260900   0.889   5.924  11.837  0.1558  0.3017 -0.2654
13137TIP3   OH260901   3.913   3.830  12.678 -0.3091 -0.0635 -0.3870
13137TIP3    H160902   3.853   3.887  12.631 -2.5870 -0.5496  1.7701
13137TIP3    H260903   3.860   3.753  12.699  0.5743  0.1806  2.9813
13138TIP3   OH260904   5.510   0.702  10.722 -0.0020  0.0294 -0.4411
13138TIP3    H160905   5.450   0.777  10.725 -1.3084 -1.0623  1.7983
13138TIP3    H260906   5.596   0.740  10.745 -0.3243  1.1243 -0.9911
13139TIP3   OH260907   4.417   6.538  11.780 -0.1105 -0.3734 -0.4062
13139TIP3    H160908   4.335   6.509  11.819 -0.5089 -0.6059 -1.3883
13139TIP3    H260909   4.445   6.463  11.727 -0.3945  0.4816 -1.8093
13140TIP3   OH260910   5.407   5.732  16.166  0.3134  0.2038  0.5319
13140TIP3    H160911   5.334   5.766  16.113  2.2129 -0.1279 -2.4411
13140TIP3    H260912   5.478   5.795  16.152  1.6903 -1.3188  0.5322
13141TIP3   OH260913   3.897   3.403  13.575 -0.1873  0.3607  0.5570
13141TIP3    H160914   3.804   3.426  13.565 -0.2283  0.0142  0.1053
13141TIP3    H260915   3.913   3.407  13.669 -0.8831 -0.4424  0.7144
13142TIP3   OH260916   2.562   0.526  16.091 -0.0517 -0.0037 -0.1077
13142TIP3    H160917   2.537   0.618  16.089 -0.8861 -0.2384 -0.6124
13142TIP3    H260918   2.484   0.479  16.062  0.1731 -0.9155  0.7561
13143TIP3   OH260919   0.160   0.366  11.878  0.3433  0.2276  0.2189
13143TIP3    H160920   0.123   0.278  11.883 -1.5962  0.8823 -1.6604
13143TIP3    H260921   0.122   0.412  11.953  2.4338 -0.8662  2.0076
13144TIP3   OH260922   2.309   2.577  15.185  0.1254  0.2415 -0.7850
13144TIP3    H160923   2.233   2.580  15.127 -1.1531 -0.5155  0.8002
13144TIP3    H260924   2.280   2.622  15.265  0.7289 -1.5564  0.4927
13145TIP3   OH260925   5.995   0.567  12.011  0.3089 -0.2078 -0.0868
13145TIP3    H160926   6.043   0.498  12.057  0.6666 -1.5234 -2.2950
13145TIP3    H260927   6.046   0.647  12.026 -0.5582 -0.2192  3.2015
13146TIP3   OH260928   5.844   6.214   3.477  0.5363  0.0735  0.4798
13146TIP3    H160929   5.910   6.264   3.524  1.1609 -0.2613 -0.0374
13146TIP3    H260930   5.852   6.243   3.386 -0.3803  0.4086  0.4976
13147TIP3   OH260931   5.193   1.804  14.545 -0.1541 -0.4200  0.7957
13147TIP3    H160932   5.129   1.849  14.488  1.6771  2.1324  0.6799
13147TIP3    H260933   5.237   1.742  14.487  2.6642  3.1398 -1.0187
13148TIP3   OH260934   3.668   6.107   2.454  0.6766  0.3457 -0.2990
13148TIP3    H160935   3.738   6.128   2.393  0.4323 -0.6939 -0.9524
13148TIP3    H260936   3.677   6.012   2.468 -0.5818  0.2177 -0.3640
13149TIP3   OH260937   0.559   1.332  13.722  0.3329  0.5214 -0.4507
13149TIP3    H160938   0.609   1.340  13.803  0.1835  0.2003 -0.3243
13149TIP3    H260939   0.602   1.262  13.674  1.9640  2.4163 -1.7979
13150TIP3   OH260940   6.813   0.298  16.365  0.1432  0.3441  0.3606
13150TIP3    H160941   6.781   0.209  16.349 -2.1547  1.2498 -0.3683
13150TIP3    H260942   6.774   0.322  16.450 -1.7348  1.7065 -0.8508
13151TIP3   OH260943   0.140   4.934  17.217 -0.0675 -0.0866 -0.1921
13151TIP3    H160944   0.145   4.844  17.183  1.0540 -0.3933  0.7829
13151TIP3    H260945   0.116   4.924  17.309  0.2516  0.5975 -0.0300
13152TIP3   OH260946   3.049   3.738  12.521 -0.3028 -0.2161 -0.2367
13152TIP3    H160947   3.003   3.720  12.439 -0.2654 -1.1107 -0.0681
13152TIP3    H260948   3.070   3.831  12.517  0.2194 -0.3886 -1.5012
13153TIP3   OH260949   6.156   6.058  17.176 -0.5464  0.3867  0.1072
13153TIP3    H160950   6.099   6.110  17.232  0.4764  0.6148  0.9552
13153TIP3    H260951   6.165   5.975  17.222  1.4335  1.0806  0.9921
13154TIP3   OH260952   0.315   3.181  13.887 -0.0867 -0.0032 -0.3750
13154TIP3    H160953   0.250   3.215  13.826 -1.5625 -1.1225  0.5278
13154TIP3    H260954   0.266   3.166  13.968  1.1818 -1.3021  0.1817
13155TIP3   OH260955   0.151   3.149  14.792 -0.3410  0.1279  0.0784
13155TIP3    H160956   0.108   3.066  14.814 -1.6768  0.7660 -0.0466
13155TIP3    H260957   0.081   3.214  14.798  0.3876  1.0501 -1.1820
13156TIP3   OH260958   6.804   1.313   6.275  0.1289 -0.1585 -0.1893
13156TIP3    H160959   6.801   1.222   6.246 -2.1996 -1.5606  4.0874
13156TIP3    H260960   6.746   1.360   6.215  1.1061 -1.5219 -2.2296
13157TIP3   OH260961   1.911   5.386  17.224 -0.3641 -0.1433 -0.0053
13157TIP3    H160962   1.928   5.304  17.179  0.7975 -0.4875  1.0522
13157TIP3    H260963   1.901   5.362  17.316  0.1759  0.9132  0.3427
13158TIP3   OH260964   4.114   6.103   4.057  0.2018 -0.1543 -0.6620
13158TIP3    H160965   4.089   6.033   4.118 -0.7101  1.0283  0.3445
13158TIP3    H260966   4.114   6.061   3.971  0.2319 -1.5292 -0.0047
13159TIP3   OH260967   3.106   3.583   4.047 -0.7316  0.1690  0.1113
13159TIP3    H160968   3.118   3.587   4.142  2.8050 -0.5674 -0.2257
13159TIP3    H260969   3.095   3.490   4.028  0.9020  0.0576 -0.3908
13160TIP3   OH260970   5.390   0.767   3.197  0.4699 -0.3345 -0.3822
13160TIP3    H160971   5.465   0.756   3.255  0.9111 -0.5402 -0.9761
13160TIP3    H260972   5.317   0.787   3.255  0.9962 -0.0821  0.2027
13161TIP3   OH260973   1.518   5.747  17.267 -1.0518  0.1941 -0.2406
13161TIP3    H160974   1.482   5.782  17.349 -1.6092 -0.0103 -0.3960
13161TIP3    H260975   1.463   5.671  17.247 -0.4151 -0.2304 -0.3844
13162TIP3   OH260976   0.443   1.217   3.663  0.3895  0.7703 -0.6839
13162TIP3    H160977   0.472   1.276   3.592 -0.7141  1.8225 -0.2718
13162TIP3    H260978   0.497   1.242   3.738 -0.2558  1.4467 -0.4380
13163TIP3   OH260979   3.812   1.084   2.354  0.5919 -0.1509 -0.0357
13163TIP3    H160980   3.728   1.058   2.315  0.3659  0.5777 -0.0476
13163TIP3    H260981   3.813   1.179   2.346  1.5913 -0.1880 -0.3709
13164TIP3   OH260982   4.861   3.944   4.643 -0.3716  0.7616  0.0944
13164TIP3    H160983   4.832   3.993   4.719  1.7103  2.4918 -0.1900
13164TIP3    H260984   4.786   3.888   4.621 -2.7536  3.6368  0.5404
13165TIP3   OH260985   0.971   4.107   2.496 -0.4004  0.2000  0.0567
13165TIP3    H160986   0.877   4.116   2.487 -0.3622  0.5124 -0.0058
13165TIP3    H260987   0.990   4.135   2.586 -0.8129 -3.1210  1.2681
13166TIP3   OH260988   5.001   3.848  12.641  0.0825 -0.2491 -0.3421
13166TIP3    H160989   5.092   3.873  12.625 -0.7944  1.8601 -2.2941
13166TIP3    H260990   4.976   3.799  12.562  0.0263 -2.3891  0.9577
13167TIP3   OH260991   1.519   3.608  15.387  0.1774  0.1071  0.6993
13167TIP3    H160992   1.436   3.633  15.345 -0.6086 -2.2413  0.7945
13167TIP3    H260993   1.583   3.669  15.351 -1.5816  1.9736  0.6106
13168TIP3   OH260994   6.158   5.592   3.381 -0.4825 -0.0831 -0.2366
13168TIP3    H160995   6.196   5.582   3.294  1.2995 -1.0647  0.6289
13168TIP3    H260996   6.086   5.528   3.383 -2.8099  2.3613 -2.1697
13169TIP3   OH260997   6.028   0.138  11.278 -0.0199  0.6844 -0.1471
13169TIP3    H160998   6.067   0.162  11.363  1.4964  1.4172 -1.0254
13169TIP3    H260999   6.050   0.046  11.268  1.3298  1.0301 -0.5240
13170TIP3   OH261000   4.311   6.526   4.898  0.3076 -0.2773 -0.5546
13170TIP3    H161001   4.372   6.596   4.921  0.4929 -0.6303  0.0708
13170TIP3    H261002   4.302   6.475   4.979 -0.0279 -0.8176 -0.9238
13171TIP3   OH261003   5.033   6.542  11.197  0.3196  0.7488 -0.5576
13171TIP3    H161004   4.972   6.494  11.253  0.1320  1.5583 -0.0636
13171TIP3    H261005   5.008   6.519  11.108  0.7551 -0.7207 -0.3057
13172TIP3   OH261006   0.302   1.941   2.222 -0.3269 -0.1511 -0.1913
13172TIP3    H161007   0.353   1.939   2.303 -1.0854 -0.3028  0.2938
13172TIP3    H261008   0.327   1.860   2.177 -2.0763 -1.5609  1.2749
13173TIP3   OH261009   1.991   2.802  12.605  0.3027 -0.3125 -0.0458
13173TIP3    H161010   1.918   2.753  12.643  0.0774 -0.0958 -0.2016
13173TIP3    H261011   2.066   2.743  12.612  0.6448  0.3528  2.2911
13174TIP3   OH261012   5.904   1.894  16.639 -0.3985  0.1641 -0.1254
13174TIP3    H161013   5.881   1.805  16.613  1.0278  0.1518 -1.3834
13174TIP3    H261014   5.823   1.945  16.625 -0.6440 -0.5325 -1.2794
13175TIP3   OH261015   1.246   5.085  13.358 -0.2964 -0.1396 -0.1872
13175TIP3    H161016   1.270   5.013  13.299 -1.7790 -1.2288  0.5101
13175TIP3    H261017   1.265   5.164  13.308  0.5360 -1.0271 -1.2940
13176TIP3   OH261018   0.688   5.678  10.950 -0.1994 -0.1732 -0.5026
13176TIP3    H161019   0.717   5.617  11.017 -0.2696  0.6405  0.2790
13176TIP3    H261020   0.698   5.630  10.868 -1.2557 -1.6077  0.1835
13177TIP3   OH261021   3.379   4.334   4.564  0.2460  0.2709 -0.5234
13177TIP3    H161022   3.454   4.275   4.568 -0.3461 -0.4666 -0.0693
13177TIP3    H261023   3.322   4.297   4.497 -0.0006  0.4662 -0.4249
13178TIP3   OH261024   6.643   5.526  16.436  0.3700 -0.0961 -0.4494
13178TIP3    H161025   6.645   5.554  16.345  0.7943 -0.3155 -0.5106
13178TIP3    H261026   6.631   5.606  16.486  0.7413  0.0946 -0.6654
13179TIP3   OH261027   4.821   5.471  15.241 -0.0987 -0.1997 -0.2580
13179TIP3    H161028   4.778   5.422  15.311 -0.9918 -0.9268 -1.2851
13179TIP3    H261029   4.751   5.522  15.201 -0.9392 -4.1358 -4.3121
13180TIP3   OH261030   0.962   5.962  11.361 -0.2152  0.1424  0.1973
13180TIP3    H161031   0.983   5.910  11.283 -0.0972 -1.3722  1.2154
13180TIP3    H261032   0.872   5.936  11.383  0.6117 -1.2874  1.9852
13181TIP3   OH261033   6.804   3.581   2.012 -0.6470 -0.4324 -0.3084
13181TIP3    H161034   6.747   3.648   1.973  0.5070  0.5454 -0.3460
13181TIP3    H261035   6.779   3.580   2.104  0.7450  1.5649  0.1280
13182TIP3   OH261036   4.561   5.839   4.838  0.4132  0.1645  0.0151
13182TIP3    H161037   4.468   5.853   4.852  0.4617  0.3112  0.2016
13182TIP3    H261038   4.581   5.885   4.756  0.1163 -0.7305 -0.5659
13183TIP3   OH261039   2.372   4.793   0.927 -1.0658  0.7715 -0.1602
13183TIP3    H161040   2.288   4.835   0.943  0.0500  3.5045 -1.1771
13183TIP3    H261041   2.433   4.839   0.983 -0.0452 -0.5166 -0.1892
13184TIP3   OH261042   0.670   5.985  14.448  0.2249 -0.2035  0.3994
13184TIP3    H161043   0.620   6.066  14.442  1.2043  0.3576 -0.3338
13184TIP3    H261044   0.745   6.007  14.503 -0.0999 -0.9373  1.1638
13185TIP3   OH261045   6.546   4.833   3.180  0.0316  0.7635 -0.0833
13185TIP3    H161046   6.583   4.855   3.265  2.1869 -0.7502 -0.5896
13185TIP3    H261047   6.610   4.866   3.117 -0.2336 -0.5216 -1.0389
13186TIP3   OH261048   4.546   3.298   1.678 -0.1751  0.1096 -0.4002
13186TIP3    H161049   4.630   3.278   1.719 -0.4779  0.9261  0.6660
13186TIP3    H261050   4.487   3.229   1.708 -0.6785  1.3308  1.5004
13187TIP3   OH261051   6.581   3.245  12.660  0.1600 -0.1903  0.6221
13187TIP3    H161052   6.552   3.274  12.573 -0.9988 -0.3353  0.9433
13187TIP3    H261053   6.648   3.180  12.643  0.4032  0.2545 -0.1562
13188TIP3   OH261054   2.543   6.313   1.785 -0.3351  0.0604  0.3421
13188TIP3    H161055   2.568   6.353   1.868 -1.3030  0.9546  0.2159
13188TIP3    H261056   2.497   6.382   1.737 -0.8062 -0.7846 -0.4582
13189TIP3   OH261057   5.371   5.681   4.059  0.3769 -0.3017 -0.4152
13189TIP3    H161058   5.430   5.756   4.046  0.7384 -0.0230  2.4972
13189TIP3    H261059   5.283   5.718   4.049  0.6095 -0.4604 -3.5123
13190TIP3   OH261060   6.225   0.991  15.686 -0.2986 -0.1018 -0.1602
13190TIP3    H161061   6.231   1.086  15.693  0.0006  0.1071 -2.6027
13190TIP3    H261062   6.241   0.973  15.593 -3.6415 -2.2942 -0.3949
13191TIP3   OH261063   3.010   3.725   2.444 -1.0559 -0.0021 -0.1300
13191TIP3    H161064   2.979   3.672   2.370  0.3810 -1.3704  0.2233
13191TIP3    H261065   3.049   3.662   2.504  1.1492  1.5050  0.0774
13192TIP3   OH261066   6.020   2.213   1.058 -0.3123 -0.2135 -0.5695
13192TIP3    H161067   6.072   2.258   1.124 -0.0290  0.5646 -1.3032
13192TIP3    H261068   6.085   2.169   1.002 -0.6500 -2.9949  1.1322
13193TIP3   OH261069   4.720   0.453  11.770  0.0347  0.4181 -0.2247
13193TIP3    H161070   4.729   0.400  11.849  0.8991  0.1112 -0.5278
13193TIP3    H261071   4.703   0.542  11.802  0.0623  0.2350  0.2952
13194TIP3   OH261072   1.138   3.283  14.637  0.0238 -0.0360  0.6353
13194TIP3    H161073   1.191   3.335  14.576  0.4940 -0.2882  0.8250
13194TIP3    H261074   1.203   3.237  14.691 -0.3767  0.7238  1.7773
13195TIP3   OH261075   4.968   1.644  13.772 -0.6530 -0.0870 -0.3521
13195TIP3    H161076   4.912   1.721  13.785 -2.1491 -1.2468  0.1773
13195TIP3    H261077   4.966   1.628  13.677 -0.5258  0.3780 -0.4349
13196TIP3   OH261078   1.473   5.249  11.351  0.0796  0.1305  0.0853
13196TIP3    H161079   1.523   5.184  11.301  0.5576  0.8710 -0.4017
13196TIP3    H261080   1.421   5.295  11.285  2.2946  2.5628 -0.0698
13197TIP3   OH261081   4.278   1.404   1.565 -0.2786 -0.3491  0.2876
13197TIP3    H161082   4.231   1.327   1.533  0.4658 -1.3096  1.4292
13197TIP3    H261083   4.226   1.435   1.639  0.8871 -1.4851  1.6280
13198TIP3   OH261084   6.255   0.773  15.194  0.0385  0.5198 -0.4984
13198TIP3    H161085   6.278   0.839  15.129 -2.1449  0.6594 -1.1496
13198TIP3    H261086   6.177   0.730  15.159  0.9948 -1.9388  0.2529
13199TIP3   OH261087   4.562   1.299  15.932  0.5029 -0.1343 -0.7187
13199TIP3    H161088   4.559   1.204  15.921  0.7287 -0.1888 -0.3299
13199TIP3    H261089   4.531   1.334  15.849 -1.7443 -0.5797 -0.1096
13200TIP3   OH261090   3.539   0.862   4.436  0.1032  0.3012  0.3382
13200TIP3    H161091   3.511   0.924   4.369  0.3515 -0.4438 -0.4618
13200TIP3    H261092   3.586   0.794   4.388 -0.8339 -0.9148  1.1067
13201TIP3   OH261093   6.030   2.406   2.414 -0.3430  0.1890  0.2770
13201TIP3    H161094   6.049   2.348   2.488 -0.2222 -0.9433 -0.6312
13201TIP3    H261095   5.949   2.451   2.439 -1.8401 -2.2533 -0.1166
13202TIP3   OH261096   0.686   6.571   1.323 -0.3491  0.2000 -0.4709
13202TIP3    H161097   0.676   6.478   1.304  1.6327 -0.1661  0.1517
13202TIP3    H261098   0.684   6.576   1.419  0.8305  0.6188 -0.4568
13203TIP3   OH261099   1.781   2.263   1.305 -0.0824 -0.3218  0.4104
13203TIP3    H161100   1.872   2.277   1.279 -0.1824 -1.6464 -0.7905
13203TIP3    H261101   1.739   2.348   1.294  0.6878 -0.0476 -0.4815
13204TIP3   OH261102   5.838   0.064   1.157  0.2941  0.5034 -0.0522
13204TIP3    H161103   5.784   0.123   1.104  1.5230  0.8236 -0.9810
13204TIP3    H261104   5.841  -0.018   1.107  0.2550  0.3287  0.2331
13205TIP3   OH261105   5.697   2.694  16.379 -0.0535 -0.0671 -0.0501
13205TIP3    H161106   5.791   2.675  16.374 -0.1275 -0.5745  0.5348
13205TIP3    H261107   5.690   2.786  16.352  0.8319  0.5942  1.9244
13206TIP3   OH261108   5.962   3.015  15.648 -0.6204 -0.1919 -0.0586
13206TIP3    H161109   5.888   2.993  15.592 -0.3361 -0.3400 -0.3756
13206TIP3    H261110   5.922   3.046  15.729 -1.0633  1.5119 -0.9055
13207TIP3   OH261111   3.162   0.658  16.697 -0.1351 -0.1811  0.2194
13207TIP3    H161112   3.228   0.680  16.632 -0.3461 -0.2131 -0.0079
13207TIP3    H261113   3.193   0.576  16.737 -0.2791 -0.4531 -0.2234
13208TIP3   OH261114   3.479   5.576  10.756  0.2849  0.3777  0.1137
13208TIP3    H161115   3.569   5.598  10.731  0.3419 -0.4630 -0.4640
13208TIP3    H261116   3.442   5.534  10.678 -0.7947  1.2317  0.1609
13209TIP3   OH261117   3.252   0.106   2.905 -0.1825  0.2148  0.0740
13209TIP3    H161118   3.162   0.110   2.873 -0.3518 -2.1424  0.1996
13209TIP3    H261119   3.243   0.113   3.000 -0.0934  1.5946 -0.0073
13210TIP3   OH261120   2.299   6.355   0.400  0.9122  0.1743  0.2216
13210TIP3    H161121   2.339   6.272   0.372 -0.1128 -0.5122  0.7327
13210TIP3    H261122   2.341   6.375   0.484 -0.5497 -1.1018  1.2816
13211TIP3   OH261123   4.571   6.259   4.907 -0.0571  0.5583 -0.0220
13211TIP3    H161124   4.573   6.353   4.926  0.5252  0.3828  0.8131
13211TIP3    H261125   4.639   6.246   4.841  1.1443  0.4336  1.2277
13212TIP3   OH261126   1.405   4.026   6.678 -0.0317  0.2804  0.4449
13212TIP3    H161127   1.369   4.024   6.589  0.3095  1.2494  0.2816
13212TIP3    H261128   1.395   3.936   6.709 -0.3281 -0.0274 -0.5026
13213TIP3   OH261129   1.490   0.465   4.422  0.4547 -0.2741 -0.5214
13213TIP3    H161130   1.427   0.413   4.373  0.4738 -0.5167 -0.2897
13213TIP3    H261131   1.436   0.522   4.477  0.4351 -0.9567  0.1778
13214TIP3   OH261132   2.034   6.298   3.462  0.2768  0.5811  0.4327
13214TIP3    H161133   2.092   6.357   3.510  1.5395 -0.8274  0.6613
13214TIP3    H261134   2.009   6.231   3.525  0.4689 -0.2580 -0.3734
13215TIP3   OH261135   4.541   6.106   3.064 -0.3649  0.1320  0.5548
13215TIP3    H161136   4.534   6.026   3.116 -1.1271  1.5111  2.6406
13215TIP3    H261137   4.467   6.102   3.004  0.5925 -1.5433 -0.5583
13216TIP3   OH261138   3.382   3.143   4.808 -0.3170 -0.2994 -1.3262
13216TIP3    H161139   3.445   3.211   4.786 -0.3685 -0.3779 -1.7221
13216TIP3    H261140   3.418   3.100   4.886  0.0613 -0.2773 -1.4901
13217TIP3   OH261141   4.852   5.804   3.106 -0.8789 -0.3275  0.4123
13217TIP3    H161142   4.782   5.823   3.043 -1.5849 -1.2169  0.9183
13217TIP3    H261143   4.928   5.850   3.072 -1.2381 -0.8513 -1.1441
13218TIP3   OH261144   4.835   3.257   6.433  0.1987  0.2004  0.1924
13218TIP3    H161145   4.810   3.167   6.413 -0.0904  0.3459 -0.1039
13218TIP3    H261146   4.802   3.308   6.359 -0.1743  0.6301  0.6521
13219TIP3   OH261147   4.715   3.627   6.087 -0.3200  0.0560  0.2230
13219TIP3    H161148   4.628   3.601   6.054 -0.4911 -1.2052  1.6259
13219TIP3    H261149   4.702   3.640   6.181  1.3301 -1.5455  0.6847
13220TIP3   OH261150   3.072   1.772   5.566  0.5119  0.4325  0.2281
13220TIP3    H161151   3.155   1.726   5.581  0.9230  0.9819 -0.3649
13220TIP3    H261152   3.094   1.843   5.506 -0.2385  1.0653  0.7025
13221TIP3   OH261153   2.408   4.778  14.866 -0.7529 -0.8816  0.0221
13221TIP3    H161154   2.495   4.751  14.839  0.5125  2.5898  0.3291
13221TIP3    H261155   2.355   4.773  14.786  0.6842  0.5446 -1.0550
13222TIP3   OH261156   2.507   3.393   4.970  0.1349 -0.5349  0.2467
13222TIP3    H161157   2.548   3.319   4.924  0.0811 -0.5501  0.2244
13222TIP3    H261158   2.551   3.470   4.935  1.2568 -0.6525  1.3572
13223TIP3   OH261159   2.518   4.513   4.658  0.0709  0.0537 -0.0482
13223TIP3    H161160   2.573   4.500   4.735  0.3404  0.0208 -0.2461
13223TIP3    H261161   2.545   4.598   4.623  0.2315 -0.1197 -0.3413
13224TIP3   OH261162   3.913   0.389   4.896  0.0553 -0.1194  0.1284
13224TIP3    H161163   3.989   0.447   4.892 -1.6654  2.2406  0.6924
13224TIP3    H261164   3.904   0.368   4.989 -1.5588  1.8212  0.4450
13225TIP3   OH261165   4.719   4.134  13.702  0.4390  0.2342 -0.1201
13225TIP3    H161166   4.704   4.221  13.739 -0.5425  0.3461 -0.7759
13225TIP3    H261167   4.691   4.074  13.771 -1.1212  0.4427 -0.5626
13226TIP3   OH261168   0.209   0.451   4.119  1.0945 -0.0261 -0.4901
13226TIP3    H161169   0.151   0.494   4.057  1.4697  0.6764 -0.3596
13226TIP3    H261170   0.261   0.390   4.066 -0.5333 -1.4910 -0.4381
13227TIP3   OH261171   1.739   3.919   0.197  0.5791  0.1417 -0.0698
13227TIP3    H161172   1.709   4.008   0.182  1.9638  1.0000  2.1648
13227TIP3    H261173   1.659   3.868   0.210 -0.0786  1.6387  1.7459
13228TIP3   OH261174   6.076   3.758   1.198  0.4046  0.0673 -0.4003
13228TIP3    H161175   5.984   3.735   1.180  0.5127 -1.3066  0.6912
13228TIP3    H261176   6.077   3.853   1.202 -1.0903  0.0717  0.1168
13229TIP3   OH261177   2.889   5.841   4.435 -0.4353  0.2803  0.2841
13229TIP3    H161178   2.847   5.766   4.476  1.6690  0.5028  2.9932
13229TIP3    H261179   2.826   5.913   4.444 -0.3408  0.1164  2.4768
13230TIP3   OH261180   3.210   0.586  14.346  0.4035 -0.1814  0.6678
13230TIP3    H161181   3.266   0.663  14.348  1.2919 -0.8116  3.8899
13230TIP3    H261182   3.263   0.517  14.384 -0.8744 -2.0552 -0.8528
13231TIP3   OH261183   2.690   2.056   4.093 -0.3105 -0.1590  0.4254
13231TIP3    H161184   2.732   1.997   4.156 -2.2789 -2.5045 -0.3550
13231TIP3    H261185   2.597   2.052   4.116 -0.9233 -0.2259 -1.9210
13232TIP3   OH261186   1.424   3.811   0.692 -0.0476  0.2773  0.2473
13232TIP3    H161187   1.340   3.845   0.660  1.4817  3.3346 -0.7086
13232TIP3    H261188   1.407   3.789   0.784 -1.7037  1.5225  0.2714
13233TIP3   OH261189   1.219   4.040   1.251 -0.4984  0.2828  0.2507
13233TIP3    H161190   1.295   4.081   1.211 -0.7760  0.9907  0.4345
13233TIP3    H261191   1.237   3.947   1.247  0.8990  0.4946  1.3311
13234TIP3   OH261192   0.345   0.403  15.233 -0.1231  0.3865  0.2729
13234TIP3    H161193   0.323   0.360  15.316 -1.8195 -0.1754 -0.4328
13234TIP3    H261194   0.304   0.489  15.239 -0.6815  0.1596 -0.1602
13235TIP3   OH261195   4.747   3.569  11.189  0.3145  0.0899  0.0797
13235TIP3    H161196   4.742   3.664  11.179 -2.6303 -0.2214 -2.0823
13235TIP3    H261197   4.790   3.538  11.109 -0.4481 -0.5278 -0.1028
13236TIP3   OH261198   0.949   4.252   3.784 -0.0830 -0.1498 -0.5471
13236TIP3    H161199   0.890   4.302   3.840 -0.3098  0.5124 -1.3600
13236TIP3    H261200   0.896   4.227   3.708 -0.1803 -2.3002  0.1977
13237TIP3   OH261201   2.761   0.692   2.008 -0.1830 -0.1317 -0.0422
13237TIP3    H161202   2.744   0.616   1.952 -0.7785 -0.5326  0.6775
13237TIP3    H261203   2.834   0.665   2.064 -1.0298 -0.5211  0.8734
13238TIP3   OH261204   0.596   1.575  15.546  0.3294 -0.3085 -0.2769
13238TIP3    H161205   0.664   1.618  15.494  2.7783 -3.3282  0.2390
13238TIP3    H261206   0.612   1.605  15.635  0.6779 -0.6032 -0.2369
13239TIP3   OH261207   4.286   6.734  10.591  1.0237  0.1918  0.1815
13239TIP3    H161208   4.361   6.677  10.575  0.1493 -1.3087  1.2852
13239TIP3    H261209   4.219   6.704  10.530 -0.0358 -1.1589  1.9435
13240TIP3   OH261210   2.741   3.874   1.073 -0.1057 -0.0328  0.5135
13240TIP3    H161211   2.688   3.799   1.099  1.0431 -0.4606  1.7103
13240TIP3    H261212   2.768   3.855   0.983 -1.8274  0.1267 -0.0597
13241TIP3   OH261213   3.742   5.764  15.499 -0.5276 -0.0597  0.3983
13241TIP3    H161214   3.703   5.845  15.468 -1.4380 -0.0523  1.5355
13241TIP3    H261215   3.780   5.786  15.584 -0.4465 -0.7340  0.5427
13242TIP3   OH261216   0.313   2.734  15.383 -0.1256 -0.4688 -0.1293
13242TIP3    H161217   0.402   2.767  15.388  0.5888 -2.4747  1.0621
13242TIP3    H261218   0.263   2.786  15.446  0.1107  0.9017 -1.0646
13243TIP3   OH261219   5.515   0.964   1.001  0.0286 -0.0928  0.9740
13243TIP3    H161220   5.474   0.980   1.086 -0.0074 -0.4545  1.0274
13243TIP3    H261221   5.448   0.990   0.938 -0.2637 -0.6194  1.0615
13244TIP3   OH261222   5.461   6.129  14.608 -0.1173  0.1093  0.1963
13244TIP3    H161223   5.445   6.034  14.607 -0.0991  0.1040  0.4638
13244TIP3    H261224   5.545   6.139  14.653  0.2503  0.1963 -0.4980
13245TIP3   OH261225   1.591   1.108   4.564  0.1525  0.2380  0.3893
13245TIP3    H161226   1.597   1.054   4.643  0.2572  0.8154  0.7852
13245TIP3    H261227   1.679   1.104   4.526  0.1792  0.1885  0.4558
13246TIP3   OH261228   1.032   0.116   2.832 -0.5537  0.1612  0.2145
13246TIP3    H161229   1.054   0.036   2.880 -0.6396 -0.9770 -1.6003
13246TIP3    H261230   0.938   0.128   2.848 -0.7054 -0.5353 -0.1104
13247TIP3   OH261231   4.878   5.364   5.930  0.3265 -0.4522  0.2420
13247TIP3    H161232   4.878   5.272   5.959 -0.2885 -0.4746  0.1775
13247TIP3    H261233   4.967   5.394   5.947  0.3133 -0.8317  1.0028
13248TIP3   OH261234   2.163   4.977  13.039  0.4878 -0.0136 -0.5067
13248TIP3    H161235   2.134   4.997  12.950 -2.4645 -0.0841  0.3942
13248TIP3    H261236   2.187   5.062  13.076  1.3693  0.0628 -1.2326
13249TIP3   OH261237   6.106   2.138   6.065 -0.0023  0.1257 -0.1165
13249TIP3    H161238   6.159   2.087   6.004 -2.6325 -0.3662 -2.0660
13249TIP3    H261239   6.107   2.086   6.146  1.9095 -0.1806 -0.2960
13250TIP3   OH261240   6.013   6.035  13.584  0.2626 -0.1822 -0.4872
13250TIP3    H161241   5.980   5.946  13.598  1.5640 -0.7908 -1.2842
13250TIP3    H261242   5.972   6.063  13.503  1.0685 -0.6455 -1.0610
13251TIP3   OH261243   3.037   6.503  15.885 -0.2967 -0.5944 -0.1714
13251TIP3    H161244   3.001   6.464  15.806  0.7255  0.0519 -0.9682
13251TIP3    H261245   3.003   6.448  15.956 -1.8850 -0.6988 -0.9749
13252TIP3   OH261246   1.624   2.355  11.528 -0.1656 -0.5191  0.2034
13252TIP3    H161247   1.684   2.330  11.598  0.9877  0.9195 -0.2475
13252TIP3    H261248   1.654   2.441  11.500 -0.1029 -1.3983 -2.6142
13253TIP3   OH261249   4.337   1.913  15.651 -0.0647 -0.3154 -0.1538
13253TIP3    H161250   4.257   1.888  15.697 -0.0990 -0.2278 -0.1673
13253TIP3    H261251   4.326   1.877  15.563  0.9962 -2.5244  0.5692
13254TIP3   OH261252   3.824   1.059   3.767  0.2757 -0.5018 -0.1367
13254TIP3    H161253   3.880   1.137   3.765 -0.6788  0.1776 -0.4132
13254TIP3    H261254   3.744   1.086   3.722  0.6895 -2.2332 -1.9752
13255TIP3   OH261255   4.984   0.712  16.685 -0.0389 -0.1448 -0.2602
13255TIP3    H161256   4.968   0.741  16.595 -0.7916  1.9154  0.5114
13255TIP3    H261257   4.899   0.717  16.728  0.4483 -0.4372  0.7602
13256TIP3   OH261258   4.281   0.155   5.801  0.1336  0.4800 -0.3910
13256TIP3    H161259   4.275   0.144   5.896 -1.2808  0.4535 -0.4686
13256TIP3    H261260   4.282   0.066   5.766 -1.8388  0.4736 -0.5129
13257TIP3   OH261261   4.510   0.462  10.955  0.2749 -0.9465 -0.2270
13257TIP3    H161262   4.570   0.441  10.884 -0.5907  1.2867 -1.6848
13257TIP3    H261263   4.566   0.493  11.026  1.0240 -1.6333 -0.5058
13258TIP3   OH261264   3.572   0.994   0.959 -0.8567  0.1211  0.0067
13258TIP3    H161265   3.546   1.078   0.996 -0.0690  0.8137 -1.0058
13258TIP3    H261266   3.641   0.963   1.017 -2.1702 -0.5603  1.2579
13259TIP3   OH261267   5.836   3.648   0.021  0.2132 -0.7156  0.1665
13259TIP3    H161268   5.922   3.662  -0.018 -0.1907  1.0556 -0.1402
13259TIP3    H261269   5.784   3.608  -0.049  0.7529 -1.7058  0.3259
13260TIP3   OH261270   1.024   3.100   4.652 -0.5564  0.3347  0.4783
13260TIP3    H161271   1.052   3.080   4.563  0.1274  3.2024  0.0272
13260TIP3    H261272   0.994   3.190   4.649 -0.8248  0.3840  3.0915
13261TIP3   OH261273   0.325   6.663   4.984  0.0788 -0.3637 -0.7112
13261TIP3    H161274   0.325   6.587   4.926  1.6437 -0.9300 -0.0049
13261TIP3    H261275   0.399   6.716   4.955 -0.5548  0.5275 -0.7264
13262TIP3   OH261276   4.646   6.340   0.717 -0.3118  0.2090  0.2634
13262TIP3    H161277   4.675   6.378   0.634 -0.3966 -0.5767 -0.1360
13262TIP3    H261278   4.675   6.249   0.713 -0.6753  0.0567  0.9242
13263TIP3   OH261279   2.027   0.476   1.054  0.2110  0.2194  0.0554
13263TIP3    H161280   1.981   0.450   1.134 -1.2173 -0.3383 -0.9370
13263TIP3    H261281   2.003   0.409   0.990  3.7799 -1.0865 -0.0229
13264TIP3   OH261282   5.814   0.582   1.158  0.6724  0.3014  0.1403
13264TIP3    H161283   5.763   0.563   1.237 -0.0331 -0.6766 -0.5438
13264TIP3    H261284   5.760   0.645   1.110  0.2580 -0.4754 -0.4215
13265TIP3   OH261285   6.091   1.086  17.123 -0.0523  0.1636  0.4550
13265TIP3    H161286   6.114   1.023  17.055  0.5241  1.1823 -0.3027
13265TIP3    H261287   6.014   1.131  17.089 -0.0740  0.3125  0.7006
13266TIP3   OH261288   2.030   2.909  11.177  0.2588 -0.2941  0.0461
13266TIP3    H161289   2.057   2.889  11.087 -1.7258 -1.9409 -0.2329
13266TIP3    H261290   1.937   2.885  11.179 -0.4753  2.4488  1.7324
13267TIP3   OH261291   5.063   1.492  11.880 -0.4623  0.1521  0.4787
13267TIP3    H161292   5.068   1.536  11.965  1.6414  2.2294 -0.6635
13267TIP3    H261293   4.976   1.515  11.846 -1.0189 -0.0752  1.7118
13268TIP3   OH261294   2.670   0.830  16.660 -0.1479  0.1237  0.4315
13268TIP3    H161295   2.614   0.771  16.710 -0.7051 -0.5844 -0.9964
13268TIP3    H261296   2.754   0.784  16.654 -0.4467 -0.3277 -0.2994
13269TIP3   OH261297   2.906   5.949   1.818  0.2376 -0.9401  0.2652
13269TIP3    H161298   2.886   5.855   1.820 -0.5532 -0.7835 -0.2406
13269TIP3    H261299   2.886   5.976   1.729 -0.3374 -0.1186  0.6359
13270TIP3   OH261300   3.820   1.111  14.437  0.0370 -0.4188  0.5014
13270TIP3    H161301   3.915   1.097  14.440 -0.0049 -0.7878  0.1270
13270TIP3    H261302   3.799   1.121  14.344 -0.2116  0.2587  0.6277
13271TIP3   OH261303   4.277   1.012  11.161  0.0659 -0.1959  0.3066
13271TIP3    H161304   4.302   1.041  11.249  0.7025 -0.9144  0.3658
13271TIP3    H261305   4.323   1.070  11.102  0.4590 -0.3691  0.4402
13272TIP3   OH261306   1.455   3.092   2.001 -0.3347 -0.0611 -0.5041
13272TIP3    H161307   1.481   3.037   2.075 -0.6725  1.2342  0.5840
13272TIP3    H261308   1.391   3.040   1.954  0.6026 -1.2987 -0.4501
13273TIP3   OH261309   0.133   0.879   2.207  0.3324 -0.1159 -0.2507
13273TIP3    H161310   0.040   0.884   2.185  0.3912  0.8868 -0.2807
13273TIP3    H261311   0.166   0.967   2.191  1.4795 -0.6853 -1.0683
13274TIP3   OH261312   0.449   6.647   3.835  0.7864 -0.5336 -0.0391
13274TIP3    H161313   0.390   6.579   3.867  1.0522 -0.5975  0.3290
13274TIP3    H261314   0.467   6.701   3.912  1.3995 -0.6602 -0.0893
13275TIP3   OH261315   2.865   1.860  12.795 -0.3032 -0.0160  0.0403
13275TIP3    H161316   2.862   1.902  12.882  0.7510  0.2810 -0.0586
13275TIP3    H261317   2.951   1.885  12.760 -0.5853 -0.4306 -0.9450
13276TIP3   OH261318   5.954   3.579   0.248  0.4115 -0.2694 -0.0895
13276TIP3    H161319   5.892   3.628   0.195  0.3998 -1.1643 -0.9288
13276TIP3    H261320   5.956   3.625   0.332 -0.4982  0.4505 -0.4519
13277TIP3   OH261321   2.251   0.743   0.808 -0.5910 -0.7508 -0.2522
13277TIP3    H161322   2.300   0.768   0.887 -1.6615 -0.6065  0.3889
13277TIP3    H261323   2.247   0.823   0.756 -0.6726 -0.5990 -0.0166
13278TIP3   OH261324   2.710   5.960  13.347  0.1865 -0.4014  0.2398
13278TIP3    H161325   2.712   5.911  13.430 -1.3402 -0.7472  0.0913
13278TIP3    H261326   2.620   5.991  13.341  0.3565 -0.1901 -1.1965
13279TIP3   OH261327   3.666   6.380   5.411  0.3308  0.3464 -0.4447
13279TIP3    H161328   3.674   6.449   5.346  0.7854 -0.7852 -1.6027
13279TIP3    H261329   3.632   6.304   5.363 -2.2926  0.3874  1.2465
13280TIP3   OH261330   3.499   0.355  13.447 -0.6689 -0.2297 -0.1157
13280TIP3    H161331   3.467   0.422  13.508 -1.5805  0.0905 -0.9367
13280TIP3    H261332   3.591   0.343  13.471 -0.2538  1.9470 -0.5346
13281TIP3   OH261333   4.089   5.741  14.277  0.0895 -0.3199  0.3112
13281TIP3    H161334   4.141   5.674  14.232  1.8563  0.1589  1.6074
13281TIP3    H261335   4.151   5.812  14.294 -1.3491  0.8908  0.5710
13282TIP3   OH261336   6.656   1.505   3.771 -0.2188  0.0451 -1.4406
13282TIP3    H161337   6.684   1.507   3.862  0.0486 -1.8755 -1.4583
13282TIP3    H261338   6.560   1.498   3.775 -0.2424  0.4334 -1.3140
13283TIP3   OH261339   1.016   1.514  13.626 -0.0336 -0.2133  0.2403
13283TIP3    H161340   1.026   1.485  13.716  0.0510  1.2933  0.7386
13283TIP3    H261341   0.930   1.556  13.625 -1.0537 -2.2585 -0.9658
13284TIP3   OH261342   4.458   2.411  15.508 -0.5878 -0.4944  1.2136
13284TIP3    H161343   4.422   2.331  15.544 -0.3266 -1.4461 -0.5570
13284TIP3    H261344   4.504   2.383  15.428 -0.6173  1.4170  0.4894
13285TIP3   OH261345   0.560   3.696   4.858 -0.4259 -0.7825  0.0274
13285TIP3    H161346   0.616   3.771   4.840 -0.2116 -0.9061  0.1846
13285TIP3    H261347   0.521   3.675   4.773 -1.0516 -0.0360  0.1246
13286TIP3   OH261348   0.452   3.048  11.905 -0.2926 -0.4400 -0.0985
13286TIP3    H161349   0.519   3.036  11.972  0.1965  1.4018 -0.2349
13286TIP3    H261350   0.383   2.985  11.929  0.9751 -1.5863  0.6616
13287TIP3   OH261351   1.985   4.897   5.138  0.1768  0.1006 -0.6637
13287TIP3    H161352   2.003   4.863   5.050 -1.3384  1.9942 -1.7243
13287TIP3    H261353   1.966   4.818   5.190  2.6644 -1.1804 -1.5883
13288TIP3   OH261354   1.384   3.218   2.387 -1.0731 -0.5861  0.0404
13288TIP3    H161355   1.436   3.298   2.387 -2.4442  0.3344 -0.1998
13288TIP3    H261356   1.426   3.161   2.451  0.4560 -0.0433 -0.4544
13289TIP3   OH261357   6.515   1.108  17.274  0.0815 -0.3753  0.4544
13289TIP3    H161358   6.461   1.185  17.255  1.2233  0.4771  0.6006
13289TIP3    H261359   6.513   1.101  17.369  1.8888  0.8955  0.6008
13290TIP3   OH261360   5.545   1.387   2.331 -0.2931 -0.8857 -0.1362
13290TIP3    H161361   5.577   1.472   2.301  0.6224 -1.4306 -0.7601
13290TIP3    H261362   5.521   1.400   2.422 -2.8775  0.7556 -0.9997
13291TIP3   OH261363   0.901   1.034  13.089  0.4649 -0.0272 -0.4707
13291TIP3    H161364   0.825   0.985  13.121 -0.9888  1.5012 -1.5203
13291TIP3    H261365   0.864   1.114  13.052  2.6162  0.8243 -0.8263
13292TIP3   OH261366   4.433   4.702   0.085 -0.0976  0.4634  0.2156
13292TIP3    H161367   4.517   4.661   0.065 -0.0450  0.6587  0.0350
13292TIP3    H261368   4.387   4.706   0.001 -0.1042  0.7684  0.2309
13293TIP3   OH261369   0.595   5.839  16.374  0.0234  0.4418  0.2286
13293TIP3    H161370   0.611   5.760  16.425  1.4654  1.0446  0.7264
13293TIP3    H261371   0.636   5.910  16.424  2.2237  0.9218 -2.1598
13294TIP3   OH261372   5.529   2.168  15.865 -0.1545  0.5771  0.0573
13294TIP3    H161373   5.463   2.112  15.825  1.0593 -0.7209 -0.1727
13294TIP3    H261374   5.592   2.184  15.795  1.1339 -0.3686  0.9634
13295TIP3   OH261375   3.965   0.485  16.051  0.3322  0.1348  0.2956
13295TIP3    H161376   3.914   0.541  15.993 -1.2197 -2.2828 -0.7429
13295TIP3    H261377   3.930   0.503  16.138 -0.3628  0.5497 -0.0621
13296TIP3   OH261378   6.210   6.448  11.784  0.3525  0.2620 -0.4876
13296TIP3    H161379   6.146   6.516  11.807  0.2265  0.1469 -0.4962
13296TIP3    H261380   6.202   6.384  11.854  0.6789  0.3973 -0.3282
13297TIP3   OH261381   3.215   3.883   1.576  0.3005  0.2884 -0.3517
13297TIP3    H161382   3.273   3.817   1.539 -0.2060  1.3810 -3.2161
13297TIP3    H261383   3.136   3.835   1.601  0.5695 -0.4376 -0.8947
13298TIP3   OH261384   3.518   5.427  15.866 -0.3564  0.2728 -0.0767
13298TIP3    H161385   3.473   5.344  15.850  0.7783 -0.6630  1.3871
13298TIP3    H261386   3.557   5.417  15.953 -0.6792  2.5670  0.3794
13299TIP3   OH261387   2.972   5.355   3.775  0.5694  0.2311  0.8148
13299TIP3    H161388   2.917   5.431   3.754  1.2772  0.6320  0.3753
13299TIP3    H261389   2.923   5.280   3.742 -0.6757  0.3858  2.3093
13300TIP3   OH261390   1.386   4.095   1.963  0.4669  0.1742  0.5334
13300TIP3    H161391   1.295   4.113   1.985  0.2669  0.7649 -0.7419
13300TIP3    H261392   1.436   4.166   2.004  0.3637 -0.1413  1.2165
13301TIP3   OH261393   0.637   4.828   3.352 -0.0282 -0.2829 -0.3430
13301TIP3    H161394   0.609   4.752   3.301 -0.1278  1.5139 -3.0217
13301TIP3    H261395   0.609   4.904   3.301  2.7521  1.5764  0.7405
13302TIP3   OH261396   5.568   4.466   0.628 -0.0467  0.3732 -0.1280
13302TIP3    H161397   5.493   4.504   0.675 -3.3661 -1.0832 -3.9605
13302TIP3    H261398   5.566   4.374   0.652  1.4851  0.5998  0.9115
13303TIP3   OH261399   5.324   3.636  10.998  0.0977 -0.4547  0.2173
13303TIP3    H161400   5.284   3.580  11.064  1.0602  0.4098  1.5549
13303TIP3    H261401   5.370   3.576  10.939  0.2844 -1.1467  1.0702
13304TIP3   OH261402   4.198   6.785  13.120  0.2197 -0.1997 -0.1498
13304TIP3    H161403   4.223   6.803  13.029 -0.0393 -0.0997 -0.2026
13304TIP3    H261404   4.255   6.841  13.172  2.1586 -2.1397 -0.1124
13305TIP3   OH261405   3.039   1.135   2.326 -0.1090  0.2583  0.4186
13305TIP3    H161406   3.119   1.161   2.281 -0.8805  2.3011  0.1642
13305TIP3    H261407   3.051   1.042   2.345  2.0711  0.4018 -0.1239
13306TIP3   OH261408   5.283   6.161   4.822 -0.3301 -0.1677 -0.2499
13306TIP3    H161409   5.226   6.177   4.746 -0.8861  1.1262  0.4264
13306TIP3    H261410   5.336   6.240   4.829 -1.3935  0.4231  1.6568
13307TIP3   OH261411   3.493   0.957  11.281  0.1229  0.4907 -0.4162
13307TIP3    H161412   3.507   1.050  11.301  2.6675  1.3848 -5.4097
13307TIP3    H261413   3.398   0.948  11.273 -0.2372  2.3312  1.4912
13308TIP3   OH261414   4.083   3.572   6.223 -0.1156 -0.5287 -0.0921
13308TIP3    H161415   4.008   3.565   6.164 -1.9127  0.1209  2.0451
13308TIP3    H261416   4.074   3.498   6.283  2.3361 -1.8515 -1.2742
13309TIP3   OH261417   6.766   5.068  17.015  0.5420 -0.0964  0.8120
13309TIP3    H161418   6.790   5.097  16.927 -1.8493  0.0331  0.1798
13309TIP3    H261419   6.836   5.007  17.040  2.7784  2.0969  0.0173
13310TIP3   OH261420   3.075   2.130  16.035 -0.1342 -0.1215 -0.1025
13310TIP3    H161421   3.000   2.082  15.999 -0.6019 -0.0356  0.7418
13310TIP3    H261422   3.150   2.100  15.983 -0.7696 -0.1039 -1.0502
13311TIP3   OH261423   2.379   5.981   4.193  0.3315 -0.4352  0.1813
13311TIP3    H161424   2.438   5.906   4.193  1.9065  0.7647 -0.4614
13311TIP3    H261425   2.425   6.048   4.243 -0.1481  0.7505 -0.9194
13312TIP3   OH261426   4.568   1.391  16.193  0.1960 -0.0698 -0.6874
13312TIP3    H161427   4.572   1.369  16.100 -0.2416 -1.8331 -0.3076
13312TIP3    H261428   4.488   1.348  16.224  1.3790 -1.1801  0.9146
13313TIP3   OH261429   6.340   3.662  13.113 -0.5846  0.0228 -0.4449
13313TIP3    H161430   6.434   3.678  13.110 -0.4120 -1.0122 -0.7003
13313TIP3    H261431   6.300   3.748  13.103  0.3286  0.3990 -0.8260
13314TIP3   OH261432   5.622   3.744   3.779 -0.8933  0.2289 -0.1929
13314TIP3    H161433   5.633   3.781   3.867 -2.9727 -1.3062  0.7328
13314TIP3    H261434   5.638   3.650   3.790 -0.3746  0.1333 -1.6268
13315TIP3   OH261435   0.064   3.424  11.566 -0.4429  0.1751  0.2742
13315TIP3    H161436   0.057   3.490  11.496 -2.1866  1.1613  1.3418
13315TIP3    H261437   0.084   3.475  11.644  1.2244 -0.9022  0.5876
13316TIP3   OH261438   3.427   4.237   5.365  0.4661 -0.3876 -0.2789
13316TIP3    H161439   3.489   4.167   5.385  0.0100 -0.5272  0.6605
13316TIP3    H261440   3.452   4.267   5.277 -0.0573 -2.5036 -1.1902
13317TIP3   OH261441   5.473   4.379  11.276 -0.0567 -0.1738 -0.1530
13317TIP3    H161442   5.406   4.311  11.282  0.3685 -0.6105 -0.3937
13317TIP3    H261443   5.516   4.378  11.362 -1.4871  1.2702  0.6056
13318TIP3   OH261444   5.034   2.421   3.211  0.5490  0.1331 -0.1537
13318TIP3    H161445   4.940   2.412   3.195  0.5140  1.2956 -0.7019
13318TIP3    H261446   5.061   2.337   3.248 -0.4544 -0.6900 -1.2342
13319TIP3   OH261447   6.449   3.867   2.807  0.0527 -0.0284 -0.5755
13319TIP3    H161448   6.481   3.848   2.895  2.0204 -1.1930 -1.5201
13319TIP3    H261449   6.446   3.962   2.802 -0.3506  0.0491  0.8258
13320TIP3   OH261450   1.623   3.794  16.160  0.4242  0.0894 -0.7436
13320TIP3    H161451   1.558   3.738  16.117 -0.3791 -0.1279  0.6944
13320TIP3    H261452   1.689   3.734  16.192 -0.8131 -0.1753  1.4530
13321TIP3   OH261453   2.685   3.945   1.993 -0.2009  0.1849 -0.2531
13321TIP3    H161454   2.629   3.905   1.927  0.9176 -0.8947 -0.5800
13321TIP3    H261455   2.628   4.005   2.040 -1.1677  0.5209 -1.8054
13322TIP3   OH261456   6.729   1.057   4.952  0.4492  0.2994 -0.3114
13322TIP3    H161457   6.637   1.082   4.948  0.4235  0.1224 -0.8602
13322TIP3    H261458   6.732   0.986   5.016 -0.1324 -1.1580 -1.8874
13323TIP3   OH261459   1.476   6.514  14.332  0.2420  0.4461  0.2613
13323TIP3    H161460   1.398   6.495  14.280  0.6810 -2.8497  0.6835
13323TIP3    H261461   1.442   6.528  14.421  0.0964 -0.8642  0.4219
13324TIP3   OH261462   5.844   1.111  16.000 -0.4057 -0.6213  0.0231
13324TIP3    H161463   5.770   1.133  15.943  2.5115 -0.1854 -3.8301
13324TIP3    H261464   5.852   1.186  16.059  0.4064  2.0537 -3.3304
13325TIP3   OH261465   1.060   3.415   6.621  0.1634  0.0636  0.3461
13325TIP3    H161466   1.061   3.507   6.645 -1.2544  0.0131  0.6078
13325TIP3    H261467   1.124   3.374   6.680  1.0710  0.9282 -0.0220
13326TIP3   OH261468   3.185   5.251  14.245 -0.0551  0.2060  0.4054
13326TIP3    H161469   3.161   5.324  14.302 -1.4443  0.7100 -0.7905
13326TIP3    H261470   3.164   5.282  14.157  0.9806 -0.9886 -0.2816
13327TIP3   OH261471   0.392   6.199  14.139  0.3867 -0.4500 -0.3701
13327TIP3    H161472   0.316   6.257  14.140  1.4067  0.9180 -0.8455
13327TIP3    H261473   0.418   6.192  14.231  0.6998  0.4559 -0.3832
13328TIP3   OH261474   5.553   3.641  13.188 -0.2160  0.2706  0.3765
13328TIP3    H161475   5.577   3.549  13.178 -1.7519 -0.1740  0.6089
13328TIP3    H261476   5.522   3.648  13.278  0.3162  1.1232  0.5013
13329TIP3   OH261477   0.370   5.446   6.728 -0.4608  1.7608 -0.3883
13329TIP3    H161478   0.410   5.509   6.789  0.7607  1.2089 -0.6100
13329TIP3    H261479   0.444   5.404   6.685 -1.2969  0.9603 -1.0618
13330TIP3   OH261480   6.169   1.899   2.803  0.1359 -0.3741 -0.3214
13330TIP3    H161481   6.144   1.896   2.896  1.5961  1.4330  0.1658
13330TIP3    H261482   6.118   1.830   2.762 -1.0871 -0.7137  1.7080
13331TIP3   OH261483   2.863   0.695   0.003  0.4011 -0.1008 -0.5865
13331TIP3    H161484   2.779   0.670  -0.034  0.6235 -0.3865 -0.9053
13331TIP3    H261485   2.875   0.786  -0.023 -1.1694  0.8817  1.9720
13332TIP3   OH261486   2.758   5.387  11.625 -0.2217 -0.8132  0.1473
13332TIP3    H161487   2.717   5.337  11.695 -0.2866  0.1856  0.8366
13332TIP3    H261488   2.851   5.386  11.646 -0.2449 -0.4876  0.2766
13333TIP3   OH261489   0.430   6.024   3.605 -0.4876  0.3340  0.2878
13333TIP3    H161490   0.492   6.028   3.533 -1.3382 -0.9680 -0.5354
13333TIP3    H261491   0.483   6.038   3.684  0.6946  0.1412 -0.4703
13334TIP3   OH261492   4.193   5.657   3.679 -0.2531 -1.4008  0.0099
13334TIP3    H161493   4.286   5.671   3.691 -0.5985  1.5593 -0.4084
13334TIP3    H261494   4.180   5.660   3.584 -1.4741  3.8140  0.1985
13335TIP3   OH261495   3.595   3.642   5.003  0.3117  0.0874  0.2672
13335TIP3    H161496   3.561   3.616   5.088  2.3948 -0.6049  0.9259
13335TIP3    H261497   3.689   3.653   5.017  0.8137 -0.7971 -2.1198
13336TIP3   OH261498   1.731   5.748   4.168  0.0915  0.4601 -0.4823
13336TIP3    H161499   1.807   5.735   4.112  0.3588  1.5089 -0.3687
13336TIP3    H261500   1.765   5.750   4.257 -0.2650 -0.6474 -0.3190
13337TIP3   OH261501   2.471   1.053   2.100 -0.0920  0.0482 -0.1373
13337TIP3    H161502   2.451   1.145   2.116 -0.8431  0.0243 -0.8969
13337TIP3    H261503   2.566   1.049   2.094 -0.0761  0.8243 -0.4320
13338TIP3   OH261504   0.987   1.467   1.223 -0.6414  0.9015  0.3284
13338TIP3    H161505   1.018   1.399   1.164 -0.6449 -1.0513  2.4925
13338TIP3    H261506   1.028   1.548   1.191  0.2310 -0.2979 -1.6237
13339TIP3   OH261507   2.343   0.361   5.352 -0.1711  0.2573  0.2796
13339TIP3    H161508   2.427   0.316   5.346 -0.0801  0.5445 -0.6353
13339TIP3    H261509   2.295   0.315   5.421  1.2669  0.9495  1.7699
13340TIP3   OH261510   6.129   5.682   6.281  0.5527  0.2579  0.1280
13340TIP3    H161511   6.058   5.745   6.271  0.7685  0.3070 -1.2356
13340TIP3    H261512   6.087   5.597   6.271  0.6321  0.2738 -0.3400
13341TIP3   OH261513   5.170   3.812   3.329  0.1111 -0.2928  0.0257
13341TIP3    H161514   5.100   3.873   3.353 -0.6502  0.6639 -4.0869
13341TIP3    H261515   5.125   3.728   3.315  0.1854 -0.2983 -0.1833
13342TIP3   OH261516   4.540   1.045  14.491  0.5856  0.3180 -0.6616
13342TIP3    H161517   4.619   1.086  14.527 -0.1747 -0.2219  1.6670
13342TIP3    H261518   4.573   0.992  14.418  2.1205  1.5300 -0.9042
13343TIP3   OH261519   6.379   6.082  13.632 -0.1733 -0.3516 -0.4109
13343TIP3    H161520   6.339   6.068  13.547  0.3509  0.3015 -0.7635
13343TIP3    H261521   6.428   6.163  13.623  1.1316 -1.0648  0.0465
13344TIP3   OH261522   2.942   2.981  16.854  0.7272  0.3579 -0.3158
13344TIP3    H161523   2.960   2.924  16.928  1.2144 -0.2055 -0.8630
13344TIP3    H261524   2.850   2.966  16.834  0.2394  1.4802  0.9932
13345TIP3   OH261525   4.543   4.691   6.315 -0.1179 -0.4418  0.1380
13345TIP3    H161526   4.470   4.752   6.311 -0.8614 -1.2837  0.7271
13345TIP3    H261527   4.592   4.717   6.392 -0.6127 -0.7775  0.5706
13346TIP3   OH261528   3.710   1.926   5.463  0.3044  0.3168 -0.0306
13346TIP3    H161529   3.726   2.020   5.473  0.0407  0.3166  0.4319
13346TIP3    H261530   3.797   1.887   5.464  0.4319  0.5928 -0.5949
13347TIP3   OH261531   3.048   1.938  12.319 -0.0105  0.1702  0.1708
13347TIP3    H161532   3.119   1.937  12.383  1.5310 -0.3636 -1.5201
13347TIP3    H261533   3.046   2.029  12.288  0.1795  0.1094 -0.0254
13348TIP3   OH261534   2.129   0.817   5.853  0.5167  0.7807 -0.5503
13348TIP3    H161535   2.170   0.804   5.939 -1.0856 -0.6394  0.0440
13348TIP3    H261536   2.109   0.729   5.822 -4.2997  1.3949  0.3603
13349TIP3   OH261537   0.890   3.633  16.875  0.0910  0.1502 -0.3416
13349TIP3    H161538   0.906   3.594  16.789 -0.5634 -1.4341  0.2261
13349TIP3    H261539   0.975   3.630  16.919  0.2532  0.2395 -0.6515
13350TIP3   OH261540   0.626   6.254  14.887  0.1991  0.3219  0.4999
13350TIP3    H161541   0.583   6.267  14.971 -0.9376  0.8263 -0.1407
13350TIP3    H261542   0.667   6.338  14.867 -0.7225  0.6483 -0.0876
13351TIP3   OH261543   4.882   0.657   6.388  0.1401  1.0130  0.2501
13351TIP3    H161544   4.912   0.569   6.411 -1.9043  0.3158  0.3043
13351TIP3    H261545   4.843   0.647   6.301  0.1133  1.9218  0.1506
13352TIP3   OH261546   3.174   1.995   4.992  0.1687 -0.6586  0.2979
13352TIP3    H161547   3.107   1.996   5.060  0.8926  1.5013  1.0252
13352TIP3    H261548   3.245   1.942   5.028 -1.1920 -3.1592 -0.5725
13353TIP3   OH261549   0.688   0.296  15.927  0.4512  0.2928  0.2408
13353TIP3    H161550   0.778   0.307  15.895  0.4132  0.9318  0.3383
13353TIP3    H261551   0.633   0.332  15.857  0.3068  0.4979  0.4567
13354TIP3   OH261552   3.301   1.098   3.220 -0.0969 -0.8056 -0.3334
13354TIP3    H161553   3.345   1.119   3.302  0.2883  0.1561 -0.7850
13354TIP3    H261554   3.299   1.002   3.218  0.7660 -0.8415  0.3252
13355TIP3   OH261555   2.372   0.315   1.588  0.3393  0.8702 -0.2217
13355TIP3    H161556   2.294   0.285   1.633  1.5898  0.0901  1.4854
13355TIP3    H261557   2.341   0.383   1.528 -1.6165  0.5868  0.4379
13356TIP3   OH261558   3.396   6.778   5.351 -0.2862 -0.0544 -0.5102
13356TIP3    H161559   3.318   6.812   5.307 -1.1043 -0.0199  0.9177
13356TIP3    H261560   3.376   6.686   5.367 -0.4804  0.2075  0.7929
13357TIP3   OH261561   5.081   2.449   5.159 -0.5176 -0.0607  0.3548
13357TIP3    H161562   5.037   2.432   5.075  1.2052 -0.9067 -0.3972
13357TIP3    H261563   5.025   2.513   5.203 -1.3417  0.5376 -1.5244
13358TIP3   OH261564   1.637   4.129   4.059  0.1103 -0.1313 -0.4382
13358TIP3    H161565   1.565   4.116   3.997  0.4849 -0.9830 -0.7075
13358TIP3    H261566   1.635   4.050   4.114 -0.7465  0.9783  1.1980
13359TIP3   OH261567   4.363   5.746   4.506  0.8841 -0.2070 -0.9015
13359TIP3    H161568   4.395   5.836   4.505  1.4805 -0.4184 -0.7075
13359TIP3    H261569   4.398   5.706   4.427  0.8936 -0.3644 -0.8181
13360TIP3   OH261570   0.609   1.371  16.649  0.5697  0.6900 -0.5600
13360TIP3    H161571   0.567   1.378  16.736  0.5002 -2.3087 -0.3058
13360TIP3    H261572   0.694   1.412  16.661  0.2470  1.0388  0.7124
13361TIP3   OH261573   4.580   3.652   3.839  0.0460 -0.0864 -0.1146
13361TIP3    H161574   4.653   3.595   3.862  0.8887  0.6539 -0.8746
13361TIP3    H261575   4.508   3.592   3.818  0.4350 -0.8221  0.6152
13362TIP3   OH261576   2.043   2.253   1.190 -0.5777 -0.1492  0.0724
13362TIP3    H161577   2.130   2.222   1.218 -0.6144  1.4151  2.0152
13362TIP3    H261578   2.035   2.222   1.100  2.4133  0.4881 -0.4786
13363TIP3   OH261579   1.840   5.066   1.823  0.3061  0.2814 -0.1532
13363TIP3    H161580   1.900   5.049   1.896  0.2808 -0.1781 -0.2368
13363TIP3    H261581   1.756   5.085   1.866  0.7525  1.9348 -0.0086
13364TIP3   OH261582   5.682   0.507   1.399  0.1064 -0.2021 -0.3561
13364TIP3    H161583   5.729   0.522   1.481 -0.1478  0.3448 -0.3067
13364TIP3    H261584   5.662   0.413   1.399 -1.3879  0.0859  1.0199
13365TIP3   OH261585   3.410   2.730  11.635  0.4740  0.0046  0.5602
13365TIP3    H161586   3.369   2.646  11.657  1.2947 -0.3631  0.7342
13365TIP3    H261587   3.370   2.793  11.695 -0.2016 -0.2533  0.3788
13366TIP3   OH261588   5.316   6.586  11.306 -0.2065  0.0306 -0.0408
13366TIP3    H161589   5.393   6.554  11.259 -0.4354 -2.0375  0.9367
13366TIP3    H261590   5.246   6.584  11.242  0.1365  0.1332 -0.4206
13367TIP3   OH261591   2.455   3.227   6.674 -0.2787 -0.0914 -0.2082
13367TIP3    H161592   2.369   3.189   6.690 -0.5927  0.8158  0.3034
13367TIP3    H261593   2.437   3.307   6.624  0.2796  0.0153 -0.2489
13368TIP3   OH261594   6.640   3.255   3.190 -0.5259 -0.2254  0.6347
13368TIP3    H161595   6.693   3.179   3.164 -1.7034 -1.1621  0.8921
13368TIP3    H261596   6.610   3.234   3.279  0.1670  1.1184  1.1832
13369TIP3   OH261597   1.124   4.207   2.108 -0.1925  0.2870 -0.0248
13369TIP3    H161598   1.136   4.296   2.141 -0.6946 -0.2642  1.6787
13369TIP3    H261599   1.049   4.214   2.048  1.0020  1.3713 -1.4610
13370TIP3   OH261600   1.475   2.712  13.972  0.0861  0.2552  0.3031
13370TIP3    H161601   1.459   2.651  14.045 -1.2973 -0.2119 -0.3792
13370TIP3    H261602   1.411   2.782  13.985 -0.9936 -0.4482 -1.1449
13371TIP3   OH261603   0.387   2.478   5.296  0.1499  0.1763  0.4890
13371TIP3    H161604   0.294   2.504   5.295  0.2451  0.5021 -0.2778
13371TIP3    H261605   0.407   2.464   5.389 -1.0393 -1.2732  0.5459
13372TIP3   OH261606   3.100   2.074   5.774  0.4497  0.4391  0.5786
13372TIP3    H161607   3.036   2.029   5.829  1.0034 -0.0201  0.8516
13372TIP3    H261608   3.063   2.072   5.686 -1.2740  2.7018  1.2224
13373TIP3   OH261609   6.779   2.614  13.526  0.2384  0.6029  0.5376
13373TIP3    H161610   6.863   2.648  13.556  0.1400  0.7180  0.6828
13373TIP3    H261611   6.759   2.667  13.449  0.3375  0.5195  0.4558
13374TIP3   OH261612   3.695   5.411   2.174  0.5718 -0.3468 -0.5738
13374TIP3    H161613   3.625   5.467   2.141  1.9641  1.1595 -1.0755
13374TIP3    H261614   3.660   5.322   2.168 -1.7789  0.4804  0.4871
13375TIP3   OH261615   3.274   3.895   2.104  0.1130 -0.0393  0.5062
13375TIP3    H161616   3.212   3.827   2.076 -0.3767  1.1268 -1.3280
13375TIP3    H261617   3.309   3.930   2.022  0.3466  1.9236  1.4278
13376TIP3   OH261618   6.573   5.097   2.971 -0.2826  0.1279 -0.0902
13376TIP3    H161619   6.592   5.188   2.948 -0.6703  0.0630 -0.6670
13376TIP3    H261620   6.659   5.057   2.984 -0.1196  1.6476  4.4245
13377TIP3   OH261621   0.342   5.181   6.338 -0.5948  0.0420 -0.1379
13377TIP3    H161622   0.433   5.211   6.329 -1.1571  1.4757 -1.1292
13377TIP3    H261623   0.311   5.224   6.418 -0.3583 -0.6183  0.3223
13378TIP3   OH261624   0.984   6.040   5.297  0.0772  0.2884  0.1176
13378TIP3    H161625   0.893   6.062   5.277 -0.1524 -2.0056 -1.6403
13378TIP3    H261626   0.981   6.001   5.384 -0.6805  0.0168 -0.0244
13379TIP3   OH261627   5.118   2.612   1.952 -0.1450 -0.4014  0.6701
13379TIP3    H161628   5.202   2.630   1.911  0.2615 -1.0664  1.1964
13379TIP3    H261629   5.075   2.697   1.959  1.0360  0.1259  1.5907
13380TIP3   OH261630   5.891   0.518  17.059 -0.6485  0.5506  0.2048
13380TIP3    H161631   5.833   0.498  16.985  0.3473 -0.4253 -0.3209
13380TIP3    H261632   5.895   0.614  17.061 -2.1366  0.6291  0.1475
13381TIP3   OH261633   0.011   5.037  15.800 -0.0697  0.5783 -0.3906
13381TIP3    H161634   0.022   4.968  15.735 -0.8375  0.9576 -0.9445
13381TIP3    H261635   0.095   5.043  15.845  0.7291  0.8553 -1.9048
13382TIP3   OH261636   4.235   5.030   5.082  0.3772  0.0218 -0.2437
13382TIP3    H161637   4.327   5.023   5.057  0.7902  0.5088  1.0851
13382TIP3    H261638   4.236   5.021   5.177 -0.9140  0.3665 -0.1926
13383TIP3   OH261639   2.777   1.000   2.709 -0.0996 -0.7019 -0.4908
13383TIP3    H161640   2.708   1.054   2.748  0.9825 -1.2962  2.3763
13383TIP3    H261641   2.821   1.059   2.647 -0.9394  0.7304  0.2346
13384TIP3   OH261642   0.111   3.136   4.351 -0.3026 -0.8008 -0.0402
13384TIP3    H161643   0.082   3.211   4.298  3.2823  1.7037  1.3195
13384TIP3    H261644   0.079   3.156   4.439  1.1701 -0.5462  0.4464
13385TIP3   OH261645   1.972   6.537   5.512 -0.4438  0.0460 -0.2025
13385TIP3    H161646   2.050   6.571   5.556 -1.0087 -0.1175  0.9505
13385TIP3    H261647   2.004   6.466   5.457  0.3463  0.5882 -0.4560
13386TIP3   OH261648   0.011   5.532   6.460  0.1264  0.3938 -0.0616
13386TIP3    H161649  -0.027   5.618   6.443  0.5139  0.8139  1.1459
13386TIP3    H261650  -0.063   5.472   6.461 -0.1407  0.7028 -0.9494
13387TIP3   OH261651   1.147   4.923  16.526 -0.4689 -0.3609  0.3010
13387TIP3    H161652   1.069   4.882  16.564  0.3756 -0.6768  1.7202
13387TIP3    H261653   1.212   4.853  16.523 -1.0525 -0.8584 -3.5021
13388TIP3   OH261654   3.389   3.540  15.596 -0.0808 -0.1145  0.3164
13388TIP3    H161655   3.444   3.529  15.519 -0.9489  1.8834 -0.6331
13388TIP3    H261656   3.305   3.499  15.572 -0.7751  1.6491 -0.3009
13389TIP3   OH261657   6.741   5.833  14.458  0.2186 -0.2230  0.6304
13389TIP3    H161658   6.649   5.861  14.456 -0.8128 -3.4124  0.1556
13389TIP3    H261659   6.784   5.896  14.514 -2.2804  1.3711  0.8374
13390TIP3   OH261660   0.578   6.115   0.804 -0.5687 -0.2265  0.0507
13390TIP3    H161661   0.638   6.095   0.732  0.1329 -0.3341  0.6565
13390TIP3    H261662   0.597   6.049   0.870  1.6611  2.2643  1.9982
13391TIP3   OH261663   4.097   4.420   2.887 -0.2318  0.0193 -0.1934
13391TIP3    H161664   4.028   4.356   2.868 -0.2655  0.5881 -2.1020
13391TIP3    H261665   4.177   4.369   2.892 -0.3009 -0.2140 -1.4167
13392TIP3   OH261666   3.837   3.948   3.898  0.7818  0.3797  0.2783
13392TIP3    H161667   3.832   3.898   3.816  0.8192 -0.5450  0.8448
13392TIP3    H261668   3.760   3.922   3.947  0.8700  0.7871  0.6355
13393TIP3   OH261669   4.817   6.349   1.110  0.0444 -0.8464  0.2557
13393TIP3    H161670   4.724   6.359   1.094  0.3177 -0.0911 -0.9804
13393TIP3    H261671   4.847   6.287   1.043  0.9912  1.4133 -1.5152
13394TIP3   OH261672   5.811   0.034   1.821 -0.1991 -0.3913  0.2293
13394TIP3    H161673   5.828   0.123   1.791 -0.5446 -0.6403 -0.7349
13394TIP3    H261674   5.738   0.004   1.766 -0.2444 -1.1791  0.7118
13395TIP3   OH261675   2.181   4.119   4.881  0.4193 -0.3670  0.0560
13395TIP3    H161676   2.111   4.072   4.927  0.0880 -1.2365 -1.3242
13395TIP3    H261677   2.262   4.084   4.918  0.1542  1.0205  2.0463
13396TIP3   OH261678   1.159   1.116  11.386  0.0073  0.3582  0.3293
13396TIP3    H161679   1.072   1.077  11.396 -2.4433  4.8281 -1.6886
13396TIP3    H261680   1.176   1.158  11.470 -1.1795  1.9234 -0.1831
13397TIP3   OH261681   2.685   2.226  14.888  0.4725 -0.5696  0.7255
13397TIP3    H161682   2.724   2.141  14.909 -0.2007 -1.6178 -2.0606
13397TIP3    H261683   2.593   2.206  14.870  1.1478 -0.0190 -4.0399
13398TIP3   OH261684   2.725   5.344   1.942 -0.1740 -0.0616 -0.1766
13398TIP3    H161685   2.770   5.340   2.027 -0.7687  1.4856  0.2265
13398TIP3    H261686   2.721   5.253   1.914  2.3268 -0.3565  0.2270
13399TIP3   OH261687   6.405   5.178   4.212 -0.3897  0.4891  0.1697
13399TIP3    H161688   6.385   5.100   4.160  1.8945  1.0515 -1.6538
13399TIP3    H261689   6.339   5.243   4.185 -0.3635  0.1768 -0.6571
13400TIP3   OH261690   1.260   5.782  14.935  0.4083  0.3098  0.3010
13400TIP3    H161691   1.258   5.726  15.013  2.4450 -3.1060 -1.9630
13400TIP3    H261692   1.173   5.772  14.896 -0.6816  2.1794  2.1721
13401TIP3   OH261693   3.112   1.951   5.294  0.1267  0.4269 -0.2304
13401TIP3    H161694   3.129   2.036   5.336  0.7227 -0.3432  1.1175
13401TIP3    H261695   3.197   1.924   5.260  0.6260 -1.0767  2.1061
13402TIP3   OH261696   1.488   0.226   1.719  0.1458  0.1898 -0.0087
13402TIP3    H161697   1.435   0.283   1.776  1.0146  2.2960 -1.2692
13402TIP3    H261698   1.469   0.256   1.630 -0.3675 -2.3718 -0.8024
13403TIP3   OH261699   3.141   4.708  15.497 -0.6343 -0.3968 -0.4517
13403TIP3    H161700   3.190   4.742  15.572 -2.4071  0.9198  0.1416
13403TIP3    H261701   3.146   4.778  15.431  0.2604 -1.2319 -1.2910
13404TIP3   OH261702   6.154   3.211  10.850  0.3840 -0.0531 -0.0192
13404TIP3    H161703   6.126   3.276  10.914 -2.3815 -0.1268 -1.0958
13404TIP3    H261704   6.073   3.165  10.825  2.0655 -2.9922 -0.2818
13405TIP3   OH261705   0.252   1.170   3.267 -0.6864 -0.5276 -0.4697
13405TIP3    H161706   0.286   1.096   3.317 -1.1518  0.0069  0.6536
13405TIP3    H261707   0.330   1.222   3.246 -0.5988 -0.1673  0.6869
13406TIP3   OH261708   1.726   6.106   6.315 -0.3376 -0.5289 -0.3645
13406TIP3    H161709   1.657   6.172   6.318 -0.2295 -0.4589  0.9570
13406TIP3    H261710   1.790   6.140   6.252 -0.4451  0.4562  0.0517
13407TIP3   OH261711   0.890   4.703  11.638  0.2449 -0.0834  0.3297
13407TIP3    H161712   0.920   4.788  11.607 -0.1125  0.3456  1.1752
13407TIP3    H261713   0.928   4.693  11.725  0.1740 -0.7313  0.2949
13408TIP3   OH261714   2.669   5.238   3.505  0.6529 -0.7213 -0.0025
13408TIP3    H161715   2.577   5.218   3.485  0.4085 -0.7362  1.1018
13408TIP3    H261716   2.714   5.154   3.498  0.6714 -0.6394 -0.9824
13409TIP3   OH261717   2.556   4.328   1.673 -0.5595 -0.1149 -0.3465
13409TIP3    H161718   2.620   4.327   1.744 -1.9285 -0.8252  0.8859
13409TIP3    H261719   2.591   4.265   1.609 -0.5976 -1.3697  0.8416
13410TIP3   OH261720   3.127   3.523   2.606  0.4305 -0.0168  0.4849
13410TIP3    H161721   3.220   3.535   2.587  0.5320  0.6015  1.3135
13410TIP3    H261722   3.111   3.430   2.593  0.9787  0.0166 -0.4517
13411TIP3   OH261723   6.742   2.968   4.063 -0.2504 -0.4413  0.0842
13411TIP3    H161724   6.781   2.929   3.985  0.7932  0.9618 -0.1344
13411TIP3    H261725   6.817   2.991   4.118 -0.7884  1.3127  0.1453
13412TIP3   OH261726   0.463   5.570   6.137 -0.3671 -0.1875 -0.6005
13412TIP3    H161727   0.522   5.495   6.144  0.9653  0.8269 -0.7981
13412TIP3    H261728   0.502   5.625   6.069 -2.3717 -0.2324 -1.8114
13413TIP3   OH261729   6.433   5.487  14.344  0.6302  0.9100 -0.3643
13413TIP3    H161730   6.365   5.490  14.277  0.9764  2.8423 -0.6517
13413TIP3    H261731   6.511   5.456  14.298  1.1102  3.1379 -1.1036
13414TIP3   OH261732   2.514   6.618  11.973 -0.4440 -0.4349  0.2855
13414TIP3    H161733   2.509   6.634  11.879  0.6084 -2.3277 -0.1190
13414TIP3    H261734   2.607   6.605  11.990 -0.6833 -0.6049  1.5186
13415TIP3   OH261735   6.384   1.240  12.302  0.3809 -0.1360  0.5216
13415TIP3    H161736   6.412   1.239  12.393  0.4010  2.7424  0.5958
13415TIP3    H261737   6.454   1.196  12.254  0.9701 -0.5495  1.7531
13416TIP3   OH261738   2.406   0.847   5.754 -0.0447 -0.2078 -0.5487
13416TIP3    H161739   2.466   0.893   5.813 -0.3847 -2.1965  1.4353
13416TIP3    H261740   2.319   0.860   5.792 -0.3169 -1.1970 -0.8053
13417TIP3   OH261741   6.699   1.793  10.922  1.0130 -0.1697 -0.0034
13417TIP3    H161742   6.679   1.702  10.901  1.3205 -0.1629 -0.3336
13417TIP3    H261743   6.785   1.790  10.964 -0.7416 -0.4750  3.7086
13418TIP3   OH261744   4.709   1.022  11.853 -0.2755  0.2992  0.3979
13418TIP3    H161745   4.760   1.098  11.880 -0.8645  0.2811  1.5958
13418TIP3    H261746   4.727   1.013  11.759 -1.9035  3.2112 -0.2318
13419TIP3   OH261747   2.450   5.849   1.621 -0.9091 -0.0539  0.1112
13419TIP3    H161748   2.373   5.853   1.677 -1.2960  2.8189 -0.5201
13419TIP3    H261749   2.511   5.912   1.660 -0.2793  0.2820 -1.3869
13420TIP3   OH261750   5.857   3.698  10.846 -0.4641 -0.8473  0.2016
13420TIP3    H161751   5.854   3.615  10.894 -2.0122 -0.9583 -0.0703
13420TIP3    H261752   5.767   3.730  10.847 -0.0226  0.4532 -0.3682
13421TIP3   OH261753   1.017   3.351   7.073 -0.1168  0.0209 -0.5986
13421TIP3    H161754   1.044   3.378   7.161  1.6017  0.7115 -1.3099
13421TIP3    H261755   1.019   3.255   7.076 -1.8995 -0.0058  0.6354
13422TIP3   OH261756   4.224   1.967  16.870 -0.2165 -0.0993 -0.6274
13422TIP3    H161757   4.147   1.982  16.925  1.2977 -0.3329  1.6047
13422TIP3    H261758   4.228   1.872  16.861 -0.2929 -0.0768 -0.9022
13423TIP3   OH261759   2.468   4.100   2.149  0.3009 -0.2561 -0.4359
13423TIP3    H161760   2.406   4.142   2.209  2.5898  1.4376  0.7849
13423TIP3    H261761   2.518   4.172   2.112  0.6617 -1.5032 -2.4596
13424TIP3   OH261762   5.414   1.186   2.508 -0.1127 -0.2590  0.5107
13424TIP3    H161763   5.340   1.126   2.524  0.8998 -1.5630  0.3865
13424TIP3    H261764   5.472   1.172   2.583  0.3004  0.3316  0.2994
13425TIP3   OH261765   3.204   4.753  17.105 -0.1948  0.1920 -0.2165
13425TIP3    H161766   3.128   4.722  17.055 -1.1262  0.9752  0.6804
13425TIP3    H261767   3.168   4.777  17.191  0.5539  3.1157 -0.6543
13426TIP3   OH261768   0.583   5.634   2.174 -0.1187 -0.3500  0.2241
13426TIP3    H161769   0.564   5.617   2.082 -0.6310  0.8702  0.0941
13426TIP3    H261770   0.626   5.719   2.174 -0.2334 -0.2898  1.1226
13427TIP3   OH261771   1.212   3.628  10.789 -0.4159 -0.2495  0.2416
13427TIP3    H161772   1.255   3.699  10.836  0.0520 -0.5231  0.2282
13427TIP3    H261773   1.277   3.596  10.727 -0.2698 -1.3672  0.9582
13428TIP3   OH261774   6.661   6.761  13.084  0.1950  0.3906  0.1104
13428TIP3    H161775   6.659   6.686  13.143 -1.4038  0.4679  0.1812
13428TIP3    H261776   6.753   6.771  13.061  0.3773 -1.8552 -0.2430
13429TIP3   OH261777   2.619   2.394   0.212  0.1758  0.5897 -0.1983
13429TIP3    H161778   2.591   2.391   0.120 -1.0961 -2.5268  0.2249
13429TIP3    H261779   2.547   2.437   0.257  0.0171  0.5442 -0.4047
13430TIP3   OH261780   4.592   2.481   2.444  0.5165 -0.4527  0.3046
13430TIP3    H161781   4.506   2.463   2.482  0.0793 -0.0418 -0.4811
13430TIP3    H261782   4.654   2.443   2.506 -0.1869  0.1754  1.4092
13431TIP3   OH261783   5.709   3.311   1.689 -0.1774  0.2028  0.6508
13431TIP3    H161784   5.790   3.318   1.639 -0.7234  3.1450  0.1157
13431TIP3    H261785   5.695   3.216   1.697  0.2611 -0.4383 -4.2202
13432TIP3   OH261786   2.920   2.946   2.663  0.4251  0.1380  0.3298
13432TIP3    H161787   3.001   2.977   2.703  0.5095  3.5060 -2.2924
13432TIP3    H261788   2.855   2.950   2.734  2.3708 -2.2932  2.3590
13433TIP3   OH261789   3.437   3.227  14.178  0.3022  0.0777 -0.5384
13433TIP3    H161790   3.453   3.174  14.256 -1.5599  0.6186  0.2559
13433TIP3    H261791   3.427   3.163  14.108  0.5780 -0.4977 -0.0599
13434TIP3   OH261792   1.049   0.454   2.702  0.3453  0.1559 -0.8149
13434TIP3    H161793   0.975   0.394   2.712  0.9917 -0.4274  0.6106
13434TIP3    H261794   1.009   0.541   2.698 -0.5906 -0.3335 -2.8186
13435TIP3   OH261795   1.293   5.141   1.659 -0.5083 -0.0510  0.0603
13435TIP3    H161796   1.329   5.053   1.649 -0.3897  0.0199 -0.1237
13435TIP3    H261797   1.258   5.142   1.748  0.5494  0.1021  0.4840
13436TIP3   OH261798   4.397   4.720  16.435  0.1131 -0.4250  0.0473
13436TIP3    H161799   4.465   4.705  16.501 -0.0541 -0.6070  0.1800
13436TIP3    H261800   4.361   4.633  16.417 -0.8398 -0.1990  0.7985
13437TIP3   OH261801   4.001   2.484   1.850  0.7109  0.1254 -0.2673
13437TIP3    H161802   3.908   2.484   1.827  1.0114 -0.6552 -1.5467
13437TIP3    H261803   4.003   2.502   1.944 -0.7845 -0.7917 -0.0500
13438TIP3   OH261804   3.324   6.552  15.179  0.2706  0.0382  0.3824
13438TIP3    H161805   3.348   6.633  15.135 -0.2597 -0.4515 -0.8294
13438TIP3    H261806   3.397   6.493  15.163  0.7614  0.3456  1.4613
13439TIP3   OH261807   1.340   1.082   6.069  0.3742 -0.7951 -0.0374
13439TIP3    H161808   1.316   1.119   5.983 -0.2159 -0.9237  0.0656
13439TIP3    H261809   1.321   0.989   6.060  0.8375 -0.8941  0.0532
13440TIP3   OH261810   5.292   5.039   5.630 -0.2607  0.9693  0.2191
13440TIP3    H161811   5.332   4.953   5.614  0.7039  1.6678 -1.1503
13440TIP3    H261812   5.359   5.088   5.677 -1.7796  0.1238  3.4530
13441TIP3   OH261813   1.384   5.450   3.516  0.1680  0.0007 -0.6453
13441TIP3    H161814   1.411   5.521   3.575 -0.2163  0.7637 -1.3731
13441TIP3    H261815   1.432   5.467   3.435  0.5921 -0.9667 -0.5980
13442TIP3   OH261816   4.801   5.839  14.107  0.0789  0.8081  0.6003
13442TIP3    H161817   4.895   5.858  14.114  0.2290 -0.3917  2.3944
13442TIP3    H261818   4.788   5.765  14.166 -2.5551  2.9647  2.8557
13443TIP3   OH261819   6.203   0.960   5.853 -0.3388  0.3481 -0.2066
13443TIP3    H161820   6.204   0.975   5.759 -1.1446  2.5300  0.0932
13443TIP3    H261821   6.111   0.967   5.877 -0.2582 -1.2233  0.6025
13444TIP3   OH261822   2.302   0.505  15.961  0.5514  0.0153  0.2136
13444TIP3    H161823   2.256   0.450  15.898  0.4436  0.2659  0.0730
13444TIP3    H261824   2.247   0.502  16.040  0.8224 -0.5091  0.3831
13445TIP3   OH261825   2.383   5.730  16.992  0.1481 -0.4664  0.1163
13445TIP3    H161826   2.342   5.804  16.948 -0.1691  0.0221  1.2321
13445TIP3    H261827   2.364   5.743  17.084  1.4246 -1.1128  0.4771
13446TIP3   OH261828   5.560   1.514  12.349  0.3900  0.2008 -0.0616
13446TIP3    H161829   5.604   1.598  12.357  1.3801 -0.3373  0.2681
13446TIP3    H261830   5.515   1.502  12.433 -1.2232  1.1982 -0.7537
13447TIP3   OH261831   6.218   2.490   5.836  0.1673  0.6146 -0.3992
13447TIP3    H161832   6.167   2.437   5.775  0.4712 -0.4507  0.2650
13447TIP3    H261833   6.298   2.512   5.788  1.6033 -2.4229  0.4871
13448TIP3   OH261834   1.671   1.443   2.028  0.1611  0.1517 -0.1486
13448TIP3    H161835   1.609   1.440   1.955 -0.5972  1.6106  0.4186
13448TIP3    H261836   1.721   1.362   2.020  0.1952  0.3380 -2.3958
13449TIP3   OH261837   2.023   6.489  13.258  0.3692  0.5640  0.5393
13449TIP3    H161838   2.071   6.552  13.311 -0.1051  0.9663  0.4956
13449TIP3    H261839   2.056   6.404  13.286  0.5410  0.8018  1.0668
13450TIP3   OH261840   0.772   4.887  14.973  0.4553  0.3761  0.0453
13450TIP3    H161841   0.800   4.951  15.037 -2.5135  1.1311  0.6908
13450TIP3    H261842   0.716   4.826  15.022  1.3049 -1.3109 -1.0388
13451TIP3   OH261843   2.556   1.711  14.492  0.0521  0.2440 -0.0039
13451TIP3    H161844   2.570   1.800  14.525  1.1194 -0.3333  1.1835
13451TIP3    H261845   2.479   1.680  14.538 -0.2416  0.5097 -0.3184
13452TIP3   OH261846   5.978   6.366  16.254 -0.5127  0.0807 -0.0597
13452TIP3    H161847   5.912   6.432  16.275  1.4497  1.0693  3.5854
13452TIP3    H261848   6.058   6.416  16.240  0.1045 -1.2693 -1.4162
13453TIP3   OH261849   4.572   4.788   2.467 -0.0791  0.3292 -0.4304
13453TIP3    H161850   4.522   4.715   2.430 -0.9770  0.7546 -0.0510
13453TIP3    H261851   4.638   4.746   2.523 -0.5398 -0.1918 -0.2805
13454TIP3   OH261852   1.994   3.230   3.059  0.5980  0.1814  0.2316
13454TIP3    H161853   2.059   3.161   3.075  1.3259  1.1196  1.3997
13454TIP3    H261854   2.044   3.311   3.062 -0.1137  0.7186 -2.0543
13455TIP3   OH261855   0.220   1.108  16.102 -0.0749  0.4731  0.3528
13455TIP3    H161856   0.253   1.188  16.062 -0.2896 -0.1895 -1.1612
13455TIP3    H261857   0.244   1.038  16.041  0.7537 -0.7162  2.0082
13456TIP3   OH261858   4.329   5.250   5.503  0.7695 -0.4811  0.1866
13456TIP3    H161859   4.268   5.323   5.487 -1.0107 -2.0449 -0.4294
13456TIP3    H261860   4.308   5.220   5.591  1.2508 -0.4857  0.3016
13457TIP3   OH261861   5.514   2.961   0.374  0.0368  0.0606  0.0980
13457TIP3    H161862   5.425   2.996   0.366 -0.0995 -0.5759 -1.1522
13457TIP3    H261863   5.537   2.933   0.286  1.6271  0.5482  0.3486
13458TIP3   OH261864   3.820   1.929   0.671  0.5529 -0.1921 -0.0394
13458TIP3    H161865   3.743   1.940   0.615  0.1694  0.1062  0.5376
13458TIP3    H261866   3.840   2.018   0.701  0.9729 -0.3034  0.0209
13459TIP3   OH261867   5.499   2.887  15.452 -0.4618  0.2766 -0.1833
13459TIP3    H161868   5.508   2.954  15.520 -1.5665 -0.8404  1.1133
13459TIP3    H261869   5.492   2.805  15.501 -0.4340 -0.6462 -1.6900
13460TIP3   OH261870   3.126   2.153   3.408 -0.5157 -0.1406 -0.1261
13460TIP3    H161871   3.182   2.077   3.392 -0.4343 -0.4308  1.5194
13460TIP3    H261872   3.049   2.137   3.354  0.2164 -0.5760 -1.0765
13461TIP3   OH261873   3.785   4.644  15.554 -0.1762 -0.0194  0.0304
13461TIP3    H161874   3.759   4.622  15.643 -0.4237 -1.6053 -0.4228
13461TIP3    H261875   3.870   4.687  15.564  0.3839 -1.3007  0.9380
13462TIP3   OH261876   2.886   6.640   2.190  0.1776  1.1704  0.1189
13462TIP3    H161877   2.858   6.617   2.101 -0.6820 -0.0381  0.6817
13462TIP3    H261878   2.976   6.670   2.180  0.2982  0.4296 -1.0831
13463TIP3   OH261879   4.605   6.700  12.603 -0.0398  0.5128  0.5354
13463TIP3    H161880   4.514   6.726  12.591 -0.3405 -1.9048 -3.3301
13463TIP3    H261881   4.601   6.620  12.655 -0.0734  0.5776  0.6342
13464TIP3   OH261882   5.800   4.148  11.097 -0.5223  0.7814 -0.4407
13464TIP3    H161883   5.845   4.064  11.102 -1.2224  0.3452 -1.3748
13464TIP3    H261884   5.738   4.138  11.024 -1.2090  1.8119 -0.0064
13465TIP3   OH261885   6.742   3.201  13.077  0.2733 -0.3611  0.5270
13465TIP3    H161886   6.817   3.245  13.116 -0.7649  0.2168  1.9445
13465TIP3    H261887   6.668   3.259  13.095 -0.6391 -1.2666 -0.1947
13466TIP3   OH261888   1.790   4.178  13.382 -0.0923 -0.5734 -0.3178
13466TIP3    H161889   1.811   4.218  13.466 -1.3846  0.0213 -0.2558
13466TIP3    H261890   1.866   4.124  13.361  0.1904 -0.8434  1.2956
13467TIP3   OH261891   3.000   5.228  14.759  0.7716 -0.2216 -0.3764
13467TIP3    H161892   3.018   5.190  14.673  1.3818 -0.5612 -0.0937
13467TIP3    H261893   3.033   5.164  14.822 -1.4439 -0.8995  0.1600
13468TIP3   OH261894   5.474   3.464  13.852  0.2585  0.0865  0.2618
13468TIP3    H161895   5.478   3.385  13.799 -0.1417  0.0847  0.2301
13468TIP3    H261896   5.473   3.536  13.789  1.6330  0.1594  0.3145
13469TIP3   OH261897   2.583   4.579   2.201 -0.5406 -0.4478 -0.3454
13469TIP3    H161898   2.544   4.589   2.114  0.4529 -1.1346 -0.8709
13469TIP3    H261899   2.576   4.485   2.220  0.0298 -0.4358 -0.0623
13470TIP3   OH261900   6.404   4.027  14.678 -0.1659 -0.2335 -0.0126
13470TIP3    H161901   6.340   4.087  14.716  0.5365  1.0872 -0.8590
13470TIP3    H261902   6.487   4.055  14.715  0.4496  0.7116 -2.0318
13471TIP3   OH261903   1.185   5.293   3.368  0.1405 -0.5229 -0.5061
13471TIP3    H161904   1.246   5.365   3.386  0.1084 -0.3036 -1.2372
13471TIP3    H261905   1.235   5.233   3.313 -0.0884 -0.6792 -0.5427
13472TIP3   OH261906   0.378   5.328   0.589 -0.6326  0.0732 -0.6839
13472TIP3    H161907   0.411   5.291   0.670  2.1281  1.5999 -1.0608
13472TIP3    H261908   0.456   5.344   0.536 -2.2914  0.1028 -3.2086
13473TIP3   OH261909   4.144   1.951   1.829  0.4234  0.0393  0.1864
13473TIP3    H161910   4.142   1.960   1.734  1.5417  0.3865  0.1851
13473TIP3    H261911   4.135   2.040   1.862 -2.0248 -0.2825  0.4612
13474TIP3   OH261912   6.172   3.631   0.762  0.0613  0.1674 -0.0368
13474TIP3    H161913   6.242   3.614   0.825  0.4168  1.8995  0.0629
13474TIP3    H261914   6.115   3.554   0.768  1.4756 -0.8482  0.5210
13475TIP3   OH261915   0.352   6.190  11.466  0.0468  0.1663  0.0843
13475TIP3    H161916   0.433   6.140  11.476  0.6974  1.0247 -0.8027
13475TIP3    H261917   0.381   6.277  11.438 -0.9894  1.4199  2.7213
13476TIP3   OH261918   1.880   5.688   3.902 -0.1880 -0.1545 -0.2905
13476TIP3    H161919   1.966   5.727   3.884 -0.7224  0.2216 -2.2366
13476TIP3    H261920   1.895   5.594   3.896  0.3164 -0.1361  0.5476
13477TIP3   OH261921   0.595   1.326  13.100 -0.7505  0.2385 -0.0823
13477TIP3    H161922   0.608   1.363  13.187 -0.1575 -0.2934  0.0544
13477TIP3    H261923   0.683   1.311  13.067 -0.8952  3.1036 -1.9110
13478TIP3   OH261924   4.797   0.563  12.421  1.0814 -0.4549  0.2419
13478TIP3    H161925   4.885   0.564  12.384  0.4096  0.7109 -1.4030
13478TIP3    H261926   4.741   0.528  12.352  0.0680  0.0169  0.7944
13479TIP3   OH261927   5.593   0.622   3.891  0.1462  0.3226 -0.8016
13479TIP3    H161928   5.583   0.630   3.796 -0.1801  1.7062 -0.6520
13479TIP3    H261929   5.645   0.542   3.902  1.2568  0.8204 -2.2073
13480TIP3   OH261930   0.863   6.674   0.123  0.5485  0.2581 -0.0934
13480TIP3    H161931   0.858   6.584   0.154 -0.3930  0.4894  0.4434
13480TIP3    H261932   0.774   6.695   0.096  1.0989  0.4721 -1.8143
13481TIP3   OH261933   2.179   2.459  14.563  0.4055 -0.2201 -0.6224
13481TIP3    H161934   2.137   2.397  14.503 -0.5156 -1.5980  1.3787
13481TIP3    H261935   2.262   2.481  14.521  0.0601 -1.6215 -2.0920
13482TIP3   OH261936   4.754   0.839   3.545 -0.1135 -0.0368  0.5652
13482TIP3    H161937   4.730   0.898   3.616  0.5002 -2.3477  2.7546
13482TIP3    H261938   4.776   0.898   3.472 -1.8855  2.3483  1.8795
13483TIP3   OH261939   5.331   6.400  11.521 -0.7640 -0.2825 -0.0442
13483TIP3    H161940   5.235   6.394  11.517 -0.7149 -0.8398 -0.5883
13483TIP3    H261941   5.354   6.461  11.451 -0.7926  0.7681  0.8521
13484TIP3   OH261942   4.114   4.133  12.642 -0.0673 -0.5364 -0.3416
13484TIP3    H161943   4.182   4.200  12.646 -0.1306 -0.4006 -1.3071
13484TIP3    H261944   4.135   4.082  12.564 -1.2162 -0.3254 -0.8026
13485TIP3   OH261945   3.699   4.376  12.068  0.2229 -0.1727  0.5039
13485TIP3    H161946   3.717   4.285  12.090  0.3587 -0.1070  0.6681
13485TIP3    H261947   3.785   4.415  12.052  0.0505 -0.5162 -1.3702
13486TIP3   OH261948   2.068   1.678  14.843 -0.0183 -0.4706 -0.8638
13486TIP3    H161949   2.051   1.725  14.924  0.4379 -1.3001 -0.2785
13486TIP3    H261950   2.041   1.739  14.774  1.0042  0.8344 -0.1426
13487TIP3   OH261951   5.470   4.323   6.713 -0.7190  0.1058  0.1330
13487TIP3    H161952   5.546   4.327   6.770  0.2481  0.7866 -1.1810
13487TIP3    H261953   5.437   4.413   6.710 -0.8882  0.0367 -0.2117
13488TIP3   OH261954   2.112   1.184   4.776 -0.1688 -0.5305  0.3601
13488TIP3    H161955   2.098   1.194   4.870 -0.8631  1.4187  0.0726
13488TIP3    H261956   2.051   1.246   4.736  1.0139 -0.4217 -1.3263
13489TIP3   OH261957   2.554   6.260  16.020  0.7525 -0.1510  0.0559
13489TIP3    H161958   2.603   6.215  16.088 -0.0662 -1.6322 -0.3131
13489TIP3    H261959   2.599   6.238  15.938  0.0923 -0.6908 -0.1711
13490TIP3   OH261960   4.378   3.878  13.760  0.6837 -0.0537  0.0100
13490TIP3    H161961   4.428   3.832  13.827  0.1802  1.1840  1.2410
13490TIP3    H261962   4.303   3.821  13.742  0.9085 -0.4655  0.3628
13491TIP3   OH261963   4.401   2.719   0.946 -0.1745 -0.1106 -0.0781
13491TIP3    H161964   4.403   2.813   0.931 -0.8454 -0.2236 -0.9950
13491TIP3    H261965   4.468   2.703   1.012 -1.8731  1.3400  2.0738
13492TIP3   OH261966   2.804   3.017   3.566 -0.3744  0.3524 -0.1311
13492TIP3    H161967   2.879   3.049   3.616  0.1340 -1.9741  0.6730
13492TIP3    H261968   2.733   3.013   3.630 -0.1332 -1.1679  0.0497
13493TIP3   OH261969   2.596   3.435  12.087  0.1053 -0.6901 -0.8144
13493TIP3    H161970   2.593   3.416  12.181 -0.6613  0.1792 -0.6525
13493TIP3    H261971   2.564   3.355  12.046  0.5293 -1.1097 -0.3393
13494TIP3   OH261972   3.000   0.768   5.746  0.2525 -0.2596  0.4865
13494TIP3    H161973   3.085   0.730   5.765  0.9790  0.4043 -1.3164
13494TIP3    H261974   2.971   0.806   5.829  2.0699  0.2150  0.9094
13495TIP3   OH261975   3.624   5.899   1.637  0.0886 -0.5436 -0.0425
13495TIP3    H161976   3.665   5.923   1.720  0.5935 -2.1195  0.1625
13495TIP3    H261977   3.562   5.830   1.660  0.8188 -1.5546 -1.1073
13496TIP3   OH261978   3.966   0.005   5.431 -1.0153  0.5784 -0.2900
13496TIP3    H161979   3.883  -0.005   5.477 -1.1670  1.4269 -0.3719
13496TIP3    H261980   3.988   0.098   5.441  0.5775  0.0864  0.8523
13497TIP3   OH261981   3.938   1.261   0.287  0.2949 -0.4099 -0.1544
13497TIP3    H161982   3.888   1.342   0.299 -0.3879 -1.0970  1.8045
13497TIP3    H261983   3.874   1.191   0.302  1.6653 -1.2999  1.7160
13498TIP3   OH261984   0.744   1.018   1.873  0.0241 -0.5806 -0.0435
13498TIP3    H161985   0.774   1.036   1.962  0.1853  1.0179 -0.4123
13498TIP3    H261986   0.650   1.004   1.881 -0.3148  1.6546  0.0968
13499TIP3   OH261987   4.375   5.597   5.619  0.4739  0.2141 -0.2452
13499TIP3    H161988   4.294   5.607   5.570 -0.6426 -1.0466  1.2996
13499TIP3    H261989   4.434   5.550   5.560  0.6663  2.5528 -1.9804
13500TIP3   OH261990   3.476   3.253   5.703 -0.2997 -0.1563 -0.6010
13500TIP3    H161991   3.438   3.286   5.785  1.0925  0.8262 -0.3374
13500TIP3    H261992   3.400   3.233   5.648 -1.2172  1.7716 -0.0778
13501TIP3   OH261993   1.166   4.696   3.340 -0.4069 -0.1987  0.6020
13501TIP3    H161994   1.085   4.647   3.353  0.2115 -1.1694  0.9064
13501TIP3    H261995   1.228   4.631   3.304 -0.9009  1.4483 -3.5413
13502TIP3   OH261996   2.364   1.981   3.383 -0.1387 -1.0115  0.1129
13502TIP3    H161997   2.291   1.919   3.394 -1.0659 -0.1100 -0.9559
13502TIP3    H261998   2.442   1.927   3.395 -0.9426 -2.3501 -0.5145
13503TIP3   OH261999   2.341   1.314  14.606 -0.1206  0.0281 -0.0866
13503TIP3    H162000   2.259   1.362  14.606 -1.5369 -2.3398  0.0016
13503TIP3    H262001   2.395   1.359  14.672 -0.5547  2.8019 -1.5350
13504TIP3   OH262002   1.283   3.642  17.273 -0.6034 -0.1606 -0.2874
13504TIP3    H162003   1.287   3.699  17.350  1.8742 -0.1647 -0.4007
13504TIP3    H262004   1.192   3.648  17.244 -1.1320  1.2373  1.5823
13505TIP3   OH262005   4.839   6.375  11.279 -0.5616 -0.0377 -0.0512
13505TIP3    H162006   4.776   6.406  11.345  1.6469 -0.3484  2.2765
13505TIP3    H262007   4.815   6.283  11.264 -1.2997  0.1368  0.0641
13506TIP3   OH262008   1.073   5.769  13.741  0.1542 -0.3227  0.1611
13506TIP3    H162009   0.983   5.776  13.772 -0.3285  1.7468 -1.5270
13506TIP3    H262010   1.073   5.819  13.659  3.0664  0.5805  0.6654
13507TIP3   OH262011   6.155   2.138  14.511 -0.6209 -0.2118  0.8110
13507TIP3    H162012   6.224   2.199  14.537 -0.0617  0.0827 -1.2810
13507TIP3    H262013   6.075   2.191  14.511 -0.2983  0.2819 -0.0127
13508TIP3   OH262014   1.317   1.810  16.661  0.6048  0.5116  0.2221
13508TIP3    H162015   1.316   1.845  16.572  1.1153  1.0603  0.4288
13508TIP3    H262016   1.243   1.749  16.663 -0.0457  1.2732 -0.2618
13509TIP3   OH262017   1.979   3.150   2.368  0.5303 -0.2089 -0.4310
13509TIP3    H162018   2.073   3.169   2.371  0.8715 -1.9736  0.1870
13509TIP3    H262019   1.952   3.181   2.281  1.9328 -0.7730 -1.0923
13510TIP3   OH262020   1.063   2.570   3.414 -0.7764 -0.1625 -0.0476
13510TIP3    H162021   1.038   2.630   3.344  0.9782  1.8624  1.0218
13510TIP3    H262022   1.019   2.603   3.492 -1.7159 -1.6817  0.0841
13511TIP3   OH262023   1.982   1.880  14.680  0.1973 -0.1618  0.2755
13511TIP3    H162024   1.970   1.973  14.661 -0.9406 -0.7372 -1.9190
13511TIP3    H262025   1.894   1.846  14.693  0.5207 -1.1897 -0.1540
13512TIP3   OH262026   5.760   0.762   2.887  0.3512  0.1711  0.1787
13512TIP3    H162027   5.829   0.826   2.871  0.5527 -0.5168 -1.7820
13512TIP3    H262028   5.798   0.700   2.949  1.0322  0.5208  0.1062
13513TIP3   OH262029   0.091   4.573   2.802  0.1394 -0.3903 -0.1685
13513TIP3    H162030  -0.002   4.585   2.819  0.4685  2.2546  0.0046
13513TIP3    H262031   0.132   4.584   2.888  0.6202 -1.6681 -0.2213
13514TIP3   OH262032   2.155   2.360  17.061  0.2153 -0.3483  0.2193
13514TIP3    H162033   2.240   2.402  17.047  0.0790  0.8052  2.7128
13514TIP3    H262034   2.176   2.278  17.106  0.1456 -1.0935 -1.0688
13515TIP3   OH262035   4.724   0.887   6.012  0.1388  0.1345 -0.0305
13515TIP3    H162036   4.667   0.815   5.987 -0.0863  0.4072 -0.3077
13515TIP3    H262037   4.665   0.954   6.047  0.2927  0.3923 -0.2630
13516TIP3   OH262038   2.376   2.871   0.741  0.4884 -0.0704  0.3211
13516TIP3    H162039   2.376   2.814   0.818 -0.6955  1.0061  1.1418
13516TIP3    H262040   2.304   2.931   0.757  2.4970  2.4708  0.0773
13517TIP3   OH262041   5.611   0.517  11.644 -0.4285  0.5133  0.1910
13517TIP3    H162042   5.587   0.607  11.665 -0.8349  0.0629  1.7345
13517TIP3    H262043   5.528   0.471  11.634 -0.2269  0.0865  0.4535
13518TIP3   OH262044   5.320   0.245   3.867 -0.3892 -0.3847  0.1671
13518TIP3    H162045   5.398   0.195   3.893  0.0918 -0.0305 -0.5581
13518TIP3    H262046   5.301   0.301   3.942 -1.1266 -1.8824  1.1075
13519TIP3   OH262047   5.838   3.618   1.139  0.2935 -1.1528  0.1662
13519TIP3    H162048   5.815   3.552   1.205 -0.7580 -0.4889  0.4716
13519TIP3    H262049   5.790   3.591   1.060 -1.3970  0.1055  0.7381
13520TIP3   OH262050   3.541   5.797  16.664  0.4137 -0.0196  0.0150
13520TIP3    H162051   3.544   5.891  16.680 -2.3044 -0.2832  2.2476
13520TIP3    H262052   3.619   5.763  16.707  0.3410  0.9657  0.9316
13521TIP3   OH262053   6.553   5.904  12.938  0.0565  0.2133  0.2699
13521TIP3    H162054   6.565   5.851  12.860  0.4028  0.1306  0.3746
13521TIP3    H262055   6.636   5.895  12.986 -1.2967 -2.4137  2.2848
13522TIP3   OH262056   2.220   0.542   4.802  0.3730 -0.4953  0.1240
13522TIP3    H162057   2.314   0.542   4.819  0.4307  0.5819 -0.2268
13522TIP3    H262058   2.202   0.454   4.768  1.3050 -0.5770 -0.1590
13523TIP3   OH262059   4.097   5.860   2.756  0.0470 -0.1409 -0.3656
13523TIP3    H162060   4.081   5.779   2.707 -1.0833 -0.7939  1.0280
13523TIP3    H262061   4.010   5.899   2.765  0.3806  0.4463  0.2973
13524TIP3   OH262062   4.377   5.718  15.570  0.2459 -0.1413 -0.1786
13524TIP3    H162063   4.425   5.800  15.568  1.4709 -0.8456 -0.3904
13524TIP3    H262064   4.389   5.681  15.482 -2.1075  0.4635 -0.7878
13525TIP3   OH262065   4.304   1.067   0.909 -0.3962  0.1653  0.0990
13525TIP3    H162066   4.342   0.982   0.887  1.2721  0.8818  0.1976
13525TIP3    H262067   4.313   1.119   0.828  1.6989  1.3543  1.0706
13526TIP3   OH262068   3.408   1.881   1.677  0.0737  0.3041  0.4081
13526TIP3    H162069   3.360   1.868   1.595  1.8042 -0.4093 -0.5042
13526TIP3    H262070   3.358   1.832   1.742 -0.1602 -0.8531 -0.6355
13527TIP3   OH262071   6.531   5.160  14.051  0.1600  0.1955  0.1558
13527TIP3    H162072   6.587   5.202  14.116  0.2416  0.2104  0.0758
13527TIP3    H262073   6.537   5.067  14.071  2.7952 -0.1380 -1.8835
13528TIP3   OH262074   4.228   3.756  14.143  0.2689 -0.1150  0.1661
13528TIP3    H162075   4.260   3.767  14.232  2.1007  0.5012 -0.5421
13528TIP3    H262076   4.248   3.664  14.122 -0.7263 -0.4338  0.6010
13529TIP3   OH262077   3.815   0.003   0.496  0.5720  1.0539  0.2043
13529TIP3    H162078   3.883   0.051   0.543  1.2711 -0.5021  0.8169
13529TIP3    H262079   3.789  -0.067   0.557 -0.9605  1.1099 -0.3705
13530TIP3   OH262080   3.974   4.798   6.152 -0.0710  0.3498  0.5585
13530TIP3    H162081   4.068   4.793   6.134  0.0210 -0.0512  1.1283
13530TIP3    H262082   3.959   4.729   6.216 -0.6403  0.8379  0.9511
13531TIP3   OH262083   3.417   3.775  12.709  0.4853  0.1443  0.0526
13531TIP3    H162084   3.436   3.687  12.742  2.0767  0.2750 -0.4639
13531TIP3    H262085   3.417   3.765  12.614  1.8963  0.9193 -0.0414
13532TIP3   OH262086   6.614   4.390  11.618 -1.0727  0.2432 -0.3927
13532TIP3    H162087   6.609   4.446  11.541 -1.0283  1.8730  0.7439
13532TIP3    H262088   6.561   4.435  11.684  0.5356 -0.0467  1.1476
13533TIP3   OH262089   3.693   0.480   2.448 -0.4134 -0.1440  0.2622
13533TIP3    H162090   3.654   0.497   2.363 -0.5334 -0.4501  0.2529
13533TIP3    H262091   3.724   0.389   2.442 -1.5246 -0.5766  0.9590
13534TIP3   OH262092   2.508   3.587  10.764  0.1412  0.2663 -0.2851
13534TIP3    H162093   2.537   3.505  10.726  0.5063  0.3582 -0.2116
13534TIP3    H262094   2.458   3.630  10.694 -1.3841 -0.7100  0.1925
13535TIP3   OH262095   4.071   3.318   3.201  0.2989 -0.3038 -0.9606
13535TIP3    H162096   4.121   3.254   3.252  0.0626  1.0475  1.0353
13535TIP3    H262097   4.096   3.301   3.110  3.7066 -0.2981 -0.0910
13536TIP3   OH262098   2.120   1.983   3.160 -0.8386  0.8242 -0.2375
13536TIP3    H162099   2.209   1.951   3.142 -0.9392  1.4454 -1.9144
13536TIP3    H262100   2.072   1.904   3.187 -0.2754  0.1213 -1.2360
13537TIP3   OH262101   6.425   1.693   3.332  0.0851 -0.9290 -0.2351
13537TIP3    H162102   6.503   1.661   3.378 -0.0836  0.1568  0.8197
13537TIP3    H262103   6.459   1.739   3.256  0.6336  1.5552  1.4353
13538TIP3   OH262104   2.855   2.363  16.024  0.0379  0.2580 -0.1823
13538TIP3    H162105   2.938   2.331  15.987 -0.3147  0.1305 -0.8594
13538TIP3    H262106   2.826   2.291  16.080 -0.2946 -0.2483 -0.9995
13539TIP3   OH262107   6.409   3.487  13.475 -0.1940 -0.1368  0.3458
13539TIP3    H162108   6.376   3.401  13.501  0.8861 -1.2192 -1.7214
13539TIP3    H262109   6.333   3.532  13.440 -0.9140  0.0256  2.0719
13540TIP3   OH262110   0.664   4.831  16.712 -0.2233 -0.0303  0.2072
13540TIP3    H162111   0.759   4.822  16.708 -0.1175  0.1911  2.1243
13540TIP3    H262112   0.632   4.741  16.710  0.0678 -0.1435  0.6831
13541TIP3   OH262113   2.313   4.719   4.785 -0.2575  0.3178 -0.3707
13541TIP3    H162114   2.310   4.638   4.837 -0.5331  1.3162  1.2098
13541TIP3    H262115   2.343   4.691   4.699 -1.0119 -1.5723 -0.0439
13542TIP3   OH262116   4.174   2.364   1.233  0.1774  0.2943  0.0923
13542TIP3    H162117   4.191   2.432   1.168 -0.4048 -0.3553 -0.7471
13542TIP3    H262118   4.098   2.396   1.282 -0.2144  0.1643 -0.4250
13543TIP3   OH262119   2.575   1.884  14.246 -0.2985  0.2690 -0.6089
13543TIP3    H162120   2.571   1.800  14.291 -0.3674 -0.6932 -2.3517
13543TIP3    H262121   2.523   1.871  14.166  0.7477  1.5710 -1.5327
13544TIP3   OH262122   1.239   4.329  14.585 -0.6441 -0.0549  0.3910
13544TIP3    H162123   1.295   4.289  14.519 -0.6271 -0.0739  0.4161
13544TIP3    H262124   1.274   4.297  14.668  0.4973  1.4454  0.5053
13545TIP3   OH262125   4.635   3.659  10.802 -0.0996  0.1429  0.2035
13545TIP3    H162126   4.669   3.707  10.726  0.5025  0.1051  0.4488
13545TIP3    H262127   4.676   3.573  10.798  0.8745  0.5490  1.2468
13546TIP3   OH262128   2.300   0.517   1.167  0.2772  0.3253 -0.1918
13546TIP3    H162129   2.336   0.431   1.188  2.5974  0.9930 -1.3075
13546TIP3    H262130   2.268   0.508   1.077 -2.0019 -0.1215  0.6214
13547TIP3   OH262131   4.745   1.988   2.115  0.2990 -0.9519 -0.0355
13547TIP3    H162132   4.765   2.080   2.133 -0.1886 -1.1451  1.5175
13547TIP3    H262133   4.766   1.977   2.022  0.6154  0.6570 -0.1667
13548TIP3   OH262134   0.308   0.091  17.160  0.1557 -0.1296 -0.3460
13548TIP3    H162135   0.251   0.132  17.095 -0.5746 -0.0833  0.3114
13548TIP3    H262136   0.394   0.087  17.118 -0.2139  0.2816 -1.1504
13549TIP3   OH262137   0.156   4.190  13.841 -0.0115  0.3702 -0.1390
13549TIP3    H162138   0.147   4.109  13.791  1.1119 -0.2713  0.6689
13549TIP3    H262139   0.242   4.224  13.817 -0.1352  0.8916  0.1517
13550TIP3   OH262140   3.918   5.526  13.029 -0.9252  0.3627 -0.1697
13550TIP3    H162141   3.916   5.473  13.108 -1.1262  1.4999  0.5872
13550TIP3    H262142   3.835   5.508  12.985 -0.2241 -1.3543 -0.8593
13551TIP3   OH262143   0.018   1.972  13.836  0.1457 -0.3844  0.3339
13551TIP3    H162144   0.069   1.937  13.910 -2.5311  1.9555  3.4677
13551TIP3    H262145   0.048   2.063  13.828 -0.0537 -0.4332 -1.0353
13552TIP3   OH262146   4.803   5.701   0.634 -0.0369  0.3811  0.2542
13552TIP3    H162147   4.742   5.628   0.632  0.2715  0.1268 -0.0510
13552TIP3    H262148   4.889   5.660   0.639  0.0237  0.7575  3.2354
13553TIP3   OH262149   4.717   5.085   4.161 -0.1462  0.4349 -0.0030
13553TIP3    H162150   4.690   5.152   4.098 -2.7202 -1.1257 -0.6575
13553TIP3    H262151   4.719   5.004   4.110 -0.3388 -0.5268  1.4792
13554TIP3   OH262152   5.642   6.576   0.249  0.2568  0.6961 -0.2854
13554TIP3    H162153   5.567   6.633   0.267 -0.7388 -0.0561 -1.9206
13554TIP3    H262154   5.666   6.595   0.158 -1.4036 -2.8869 -1.5921
13555TIP3   OH262155   4.787   1.366   3.128 -0.4691  0.3130 -0.5790
13555TIP3    H162156   4.873   1.340   3.095 -0.9367 -0.8728 -0.8585
13555TIP3    H262157   4.792   1.462   3.131  0.8542  0.2640 -0.6018
13556TIP3   OH262158   4.425   0.529   1.539  0.2982  0.3118 -0.1970
13556TIP3    H162159   4.405   0.482   1.458  0.6597 -0.6646  0.2739
13556TIP3    H262160   4.474   0.466   1.592 -2.2064  0.0270  1.8631
13557TIP3   OH262161   5.758   6.225   2.006  0.2323  0.5983  0.0003
13557TIP3    H162162   5.675   6.189   1.975 -1.2967  1.1609  3.2009
13557TIP3    H262163   5.766   6.308   1.960 -0.7191  0.3066 -0.7186
13558TIP3   OH262164   4.193   6.641   5.233  0.3260 -0.0309  0.1567
13558TIP3    H162165   4.267   6.659   5.290  0.0209  0.9906  0.2320
13558TIP3    H262166   4.217   6.560   5.186  1.8713  0.7981 -0.4994
13559TIP3   OH262167   3.984   6.754  14.045 -0.2620 -0.1553  0.0317
13559TIP3    H162168   4.039   6.771  13.969 -0.6964  0.1517 -0.2202
13559TIP3    H262169   4.043   6.760  14.120  0.1334 -0.2825 -0.2671
13560TIP3   OH262170   1.152   0.184  14.097  0.6244 -0.1366 -0.4005
13560TIP3    H162171   1.165   0.233  14.178  1.4837 -0.6049 -0.2568
13560TIP3    H262172   1.062   0.150  14.104  0.2469  0.8764 -0.2242
13561TIP3   OH262173   2.848   5.944  14.165  0.0903 -0.0163 -0.3126
13561TIP3    H162174   2.902   5.989  14.100 -0.6735 -2.4394 -2.7247
13561TIP3    H262175   2.890   5.859  14.177 -1.4072 -0.7048  0.1574
13562TIP3   OH262176   1.427   5.247   5.276  0.2538 -0.1104 -0.0685
13562TIP3    H162177   1.518   5.222   5.263  0.1766 -0.7826  0.6734
13562TIP3    H262178   1.396   5.191   5.347 -0.3633  1.0273  0.5732
13563TIP3   OH262179   0.070   0.552  15.187  0.4512 -0.8570  0.4963
13563TIP3    H162180   0.023   0.601  15.120 -0.6582 -3.8523 -0.9938
13563TIP3    H262181   0.025   0.573  15.269 -1.5596 -1.3047 -0.4818
13564TIP3   OH262182   1.990   4.437  14.652  0.1529  0.2443  0.3498
13564TIP3    H162183   2.000   4.439  14.556 -0.6738  2.2161  0.2901
13564TIP3    H262184   2.072   4.398  14.683  1.5140  1.9436 -1.0087
13565TIP3   OH262185   1.144   0.250   5.220  0.4740  0.2290  0.9983
13565TIP3    H162186   1.212   0.183   5.232 -0.5001 -1.3011 -1.6330
13565TIP3    H262187   1.189   0.321   5.174  0.6459 -0.1549  0.5697
13566TIP3   OH262188   2.687   6.223   3.685 -0.3632  0.0971  0.0176
13566TIP3    H162189   2.596   6.197   3.699  0.1049 -0.6937  1.6887
13566TIP3    H262190   2.699   6.218   3.590 -1.7827 -0.6904 -0.1324
13567TIP3   OH262191   0.054   3.934   0.412  0.1903 -0.1543  0.8382
13567TIP3    H162192   0.025   4.019   0.379 -0.5499 -0.5171  0.5573
13567TIP3    H262193   0.142   3.924   0.375  0.7208  0.9705  1.7661
13568TIP3   OH262194   4.493   1.051  15.842 -0.3617 -0.4389 -0.2689
13568TIP3    H162195   4.438   1.044  15.764  0.6495  0.5472 -1.0888
13568TIP3    H262196   4.577   1.012  15.815  0.0019 -0.0565  0.3046
13569TIP3   OH262197   1.624   1.757   4.654 -0.7653  0.0547 -0.1182
13569TIP3    H162198   1.569   1.743   4.731 -1.5333  0.4902 -0.5795
13569TIP3    H262199   1.687   1.824   4.682  0.4067 -1.3908  0.8307
13570TIP3   OH262200   5.193   6.687   5.582 -0.4518 -0.1812  0.4036
13570TIP3    H162201   5.202   6.627   5.657 -1.4559  0.7527  1.2921
13570TIP3    H262202   5.263   6.661   5.522 -1.1215 -2.4997  0.5833
13571TIP3   OH262203   6.122   3.505  13.608 -0.8986 -0.1286  0.0868
13571TIP3    H162204   6.113   3.573  13.541  1.8871 -1.3868 -1.6633
13571TIP3    H262205   6.201   3.530  13.657 -1.8996 -0.1921  1.7790
13572TIP3   OH262206   3.817   0.849  14.225  0.5376  0.4980 -0.0781
13572TIP3    H162207   3.834   0.775  14.166  0.9709  0.1391  0.4927
13572TIP3    H262208   3.890   0.908  14.209  0.2262  0.7755 -0.4867
13573TIP3   OH262209   4.983   2.078  17.099 -0.3165 -0.6010 -0.2508
13573TIP3    H162210   4.990   2.171  17.123  1.6174 -1.1240  1.3192
13573TIP3    H262211   5.007   2.075  17.006  1.9702  0.1940  0.2804
13574TIP3   OH262212   5.196   3.562   5.621  0.6824  0.5309  0.9044
13574TIP3    H162213   5.141   3.568   5.543  1.0021 -3.2819  0.2741
13574TIP3    H262214   5.139   3.592   5.692 -0.9991  0.1516 -0.2377
13575TIP3   OH262215   2.084   3.643   1.011  0.4292  0.0484 -0.2304
13575TIP3    H162216   2.048   3.558   0.983  0.2215  0.5518 -1.5133
13575TIP3    H262217   2.096   3.692   0.930  2.5846  0.4591  0.3015
13576TIP3   OH262218   4.383   0.923  13.319  0.5109  0.5674  0.0614
13576TIP3    H162219   4.375   1.018  13.331 -0.5055  0.6570 -1.2362
13576TIP3    H262220   4.294   0.890  13.333  0.4867  0.0119 -1.3742
13577TIP3   OH262221   5.336   3.418   2.028  0.4465  0.3315  0.1994
13577TIP3    H162222   5.259   3.475   2.019  1.4252  1.5121 -0.6757
13577TIP3    H262223   5.408   3.477   2.049  1.4634 -0.5894 -0.6437
13578TIP3   OH262224   3.710   1.477  12.788 -0.0100 -0.1298  0.0928
13578TIP3    H162225   3.709   1.480  12.884  0.6772 -1.3499  0.1486
13578TIP3    H262226   3.618   1.485  12.763 -0.1228  1.0279  0.8104
13579TIP3   OH262227   4.987   6.549   3.821 -0.0594  0.1098 -0.4347
13579TIP3    H162228   4.972   6.597   3.740  0.5043 -0.5547 -0.9332
13579TIP3    H262229   4.899   6.538   3.859 -0.6036 -1.5796 -2.1033
13580TIP3   OH262230   0.093   1.410  13.153 -0.6252  0.5197 -0.2991
13580TIP3    H162231   0.029   1.395  13.223 -0.8631  1.8886 -0.2055
13580TIP3    H262232   0.174   1.431  13.199 -0.2346 -0.6292 -0.4279
13581TIP3   OH262233   2.253   4.668  15.861  0.3150 -0.0548 -0.3131
13581TIP3    H162234   2.179   4.706  15.812  0.4899  1.1097  0.2930
13581TIP3    H262235   2.223   4.581  15.885 -0.7489  0.2841 -0.3560
13582TIP3   OH262236   5.682   6.581  16.226  0.2900  0.3868  0.2372
13582TIP3    H162237   5.622   6.649  16.195  0.3638  0.9740  1.3550
13582TIP3    H262238   5.768   6.609  16.194  0.0167 -0.3213 -1.1503
13583TIP3   OH262239   5.195   2.893  16.037 -0.8170 -0.0765 -0.2497
13583TIP3    H162240   5.220   2.824  15.975  2.0858  0.0897  0.6240
13583TIP3    H262241   5.156   2.962  15.983  0.8952 -0.2897 -1.8126
13584TIP3   OH262242   3.293   2.483  11.746  0.5616 -0.7180  0.2600
13584TIP3    H162243   3.325   2.434  11.822  0.0739  0.2185  1.0823
13584TIP3    H262244   3.198   2.485  11.757  0.4008 -1.4238 -0.9050
13585TIP3   OH262245   2.004   6.275   5.764  0.1030 -0.2323 -0.0020
13585TIP3    H162246   2.039   6.334   5.830  0.4198  0.3067 -0.6446
13585TIP3    H262247   2.044   6.304   5.682 -0.2459 -0.9243 -0.4224
13586TIP3   OH262248   6.002   5.379   3.461  0.5057 -0.2358 -0.5444
13586TIP3    H162249   5.939   5.374   3.532 -0.3515  2.7877 -1.0046
13586TIP3    H262250   5.953   5.354   3.383  0.5431 -0.2937 -0.5498
13587TIP3   OH262251   5.343   3.808   0.139  0.0547 -0.6795  0.0673
13587TIP3    H162252   5.324   3.892   0.098 -0.1752 -0.2404  1.0675
13587TIP3    H262253   5.321   3.743   0.072  0.8822  0.0675 -0.9614
13588TIP3   OH262254   6.323   0.015  10.837 -0.3207  0.0915 -0.9269
13588TIP3    H162255   6.284   0.102  10.837  0.2719  0.3554 -0.6464
13588TIP3    H262256   6.383   0.015  10.763 -0.6332 -0.2207 -1.1833
13589TIP3   OH262257   1.881   4.442   2.827  0.8119 -0.6359  0.4720
13589TIP3    H162258   1.901   4.352   2.852  1.1976 -0.0584  2.3361
13589TIP3    H262259   1.787   4.441   2.808  0.2204 -0.8730  3.1976
13590TIP3   OH262260   2.489   5.994  15.028  0.2787 -0.2338 -0.0960
13590TIP3    H162261   2.430   6.042  15.087 -0.6647 -1.6521  0.1503
13590TIP3    H262262   2.448   6.001  14.942 -0.6090 -1.7263  0.1782
13591TIP3   OH262263   5.238   0.325  12.857 -0.3307 -0.0286  0.0483
13591TIP3    H162264   5.308   0.260  12.856 -0.5456 -0.2577 -1.0046
13591TIP3    H262265   5.186   0.305  12.779 -1.2634  0.4696  0.5321
13592TIP3   OH262266   4.060   0.721   2.981  0.1606 -0.0123  0.5678
13592TIP3    H162267   4.082   0.778   3.055  0.6805 -0.2130  0.5729
13592TIP3    H262268   3.992   0.768   2.933  0.3686  0.4698  0.7459
13593TIP3   OH262269   2.732   3.541   5.650  0.1022  0.2823 -0.5622
13593TIP3    H162270   2.804   3.494   5.693 -0.7263  0.4814  1.0877
13593TIP3    H262271   2.760   3.549   5.559  1.2363 -1.4880 -0.4048
13594TIP3   OH262272   5.353   5.332   3.760  0.4712  0.4916 -0.1565
13594TIP3    H162273   5.262   5.301   3.754  1.0520 -1.1789 -0.5954
13594TIP3    H262274   5.346   5.427   3.758 -1.4444  0.4501  2.3605
13595TIP3   OH262275   6.089   4.534  14.895  0.9281  0.1804  0.6124
13595TIP3    H162276   6.079   4.626  14.870  1.6185 -0.1590 -0.9433
13595TIP3    H262277   6.112   4.538  14.988  2.3496  1.6525  0.2211
13596TIP3   OH262278   1.489   4.351   5.352  0.1804  0.2616 -0.2529
13596TIP3    H162279   1.460   4.295   5.424 -0.4285  0.1240 -0.6023
13596TIP3    H262280   1.434   4.429   5.359  0.7956  0.6691  0.0275
13597TIP3   OH262281   3.304   2.547   1.995 -0.2638 -0.5942 -0.1791
13597TIP3    H162282   3.301   2.545   1.900 -0.4559 -0.7924 -0.1703
13597TIP3    H262283   3.349   2.628   2.017 -1.7605  0.3014 -0.4082
13598TIP3   OH262284   6.341   3.056  11.231 -0.5971 -0.5647 -0.4593
13598TIP3    H162285   6.357   2.981  11.288 -2.2935 -0.1394  0.6331
13598TIP3    H262286   6.421   3.067  11.181 -0.4291 -3.2534 -0.7977
13599TIP3   OH262287   5.638   0.328  17.212 -0.1733 -0.2340  0.4363
13599TIP3    H162288   5.572   0.287  17.267  0.0962 -1.3042 -0.0218
13599TIP3    H262289   5.634   0.278  17.130  0.0007  0.8050 -0.2058
13600TIP3   OH262290   2.502   3.811   5.439 -0.5849 -0.5014 -0.0053
13600TIP3    H162291   2.590   3.797   5.474  0.0298 -0.6147 -1.5852
13600TIP3    H262292   2.472   3.892   5.482 -0.2731 -1.2230  1.5912
13601TIP3   OH262293   2.471   4.008  12.898 -0.6104  0.6208 -0.4233
13601TIP3    H162294   2.439   4.007  12.808 -1.2891 -0.5161 -0.1769
13601TIP3    H262295   2.429   3.933  12.940  0.0436  0.8770  0.7233
13602TIP3   OH262296   4.225   6.425  14.733  0.3890 -0.1079 -0.2295
13602TIP3    H162297   4.300   6.414  14.792  0.2409  0.5275  0.0820
13602TIP3    H262298   4.236   6.512  14.695 -0.1037 -0.0751 -0.3036
13603TIP3   OH262299   1.441   4.453   1.930  0.6966  0.3394 -0.2993
13603TIP3    H162300   1.531   4.477   1.906  0.5219 -0.1470 -1.4514
13603TIP3    H262301   1.450   4.402   2.009  1.4492  0.2043 -0.4693
13604TIP3   OH262302   1.945   0.101  13.070  0.7892  0.6142  0.0594
13604TIP3    H162303   1.971   0.081  13.160 -0.0489 -0.9217 -0.0217
13604TIP3    H262304   1.858   0.062  13.061  0.5463  1.4180 -1.1860
13605TIP3   OH262305   6.465   2.978   1.370 -0.0272  0.0751  0.0653
13605TIP3    H162306   6.543   3.028   1.395  0.5147 -0.5865 -0.2923
13605TIP3    H262307   6.417   3.036   1.311  0.5927  0.1806 -0.3418
13606TIP3   OH262308   3.617   0.153   2.036 -0.1604 -0.2056  0.0241
13606TIP3    H162309   3.567   0.081   2.075  2.0494 -1.4612  0.6781
13606TIP3    H262310   3.676   0.110   1.974  1.7733  0.9340  1.0330
13607TIP3   OH262311   1.519   1.729   5.333  0.2227  0.2336  0.4316
13607TIP3    H162312   1.479   1.711   5.248 -2.8038  1.3928  1.5369
13607TIP3    H262313   1.568   1.810   5.320 -0.4630  0.5612 -0.1722
13608TIP3   OH262314   4.587   0.361  16.789  0.2861 -0.8553 -0.0444
13608TIP3    H162315   4.527   0.340  16.718 -0.6059 -0.6092  0.6221
13608TIP3    H262316   4.653   0.292  16.786  0.1290 -0.9678 -0.9642
13609TIP3   OH262317   1.054   3.673   0.927  0.5462 -0.5528  0.4031
13609TIP3    H162318   1.043   3.683   1.022 -0.5740  0.2981  0.1907
13609TIP3    H262319   0.972   3.637   0.896  0.6395 -0.1405 -0.3457
13610TIP3   OH262320   0.932   0.847  15.876 -0.6535 -0.3744 -0.2893
13610TIP3    H162321   0.961   0.785  15.809  0.0566  1.6644 -1.9386
13610TIP3    H262322   0.856   0.890  15.838 -0.6663  0.3077  0.4946
13611TIP3   OH262323   0.501   0.784   1.542 -0.1945 -0.6806  0.2592
13611TIP3    H162324   0.425   0.791   1.599 -0.5473 -1.2299 -0.1414
13611TIP3    H262325   0.504   0.691   1.516  2.1309 -1.2589  2.3718
13612TIP3   OH262326   6.470   5.813  16.444  0.2633 -0.4678  0.0429
13612TIP3    H162327   6.430   5.899  16.458  0.2105 -0.3968 -0.5233
13612TIP3    H262328   6.443   5.789  16.355  3.0528  0.4350 -1.0804
13613TIP3   OH262329   1.797   5.241  15.639  0.0347  0.0035  0.9339
13613TIP3    H162330   1.860   5.313  15.634  1.1713 -1.0195  0.3622
13613TIP3    H262331   1.784   5.227  15.732  1.3198 -0.3431  1.0697
13614TIP3   OH262332   2.680   3.907   4.963  0.1788  0.1919 -0.1731
13614TIP3    H162333   2.752   3.955   4.920  1.1205  0.4153  1.6141
13614TIP3    H262334   2.689   3.818   4.929  0.6960  0.4383 -0.7146
13615TIP3   OH262335   6.028   5.063  11.037  0.3302  0.3190  0.2092
13615TIP3    H162336   5.951   5.017  11.004  0.2862  2.4731 -2.9410
13615TIP3    H262337   6.004   5.155  11.034  2.7743  0.9759 -0.1110
13616TIP3   OH262338   0.557   6.055   2.970 -0.6089  0.2166  0.0680
13616TIP3    H162339   0.589   5.999   3.041 -0.0519  0.9952  0.4464
13616TIP3    H262340   0.635   6.075   2.919 -1.0623 -0.5851 -0.9451
13617TIP3   OH262341   2.880   3.203   4.290  0.3682  0.7224  0.0733
13617TIP3    H162342   2.908   3.135   4.228  1.7914 -0.9680  2.4787
13617TIP3    H262343   2.962   3.240   4.323 -0.3886  2.1827  0.3322
13618TIP3   OH262344   2.113   3.037  15.554  0.4623 -0.2228  0.1340
13618TIP3    H162345   2.173   3.086  15.610  1.3015 -0.4770 -0.5404
13618TIP3    H262346   2.137   3.063  15.465 -2.0419  1.5912 -0.0796
13619TIP3   OH262347   0.840   0.233   5.880  0.3162 -0.2402  0.6475
13619TIP3    H162348   0.803   0.294   5.944  0.3733 -1.3460  1.7702
13619TIP3    H262349   0.878   0.163   5.934  0.0721 -1.3603 -0.6111
13620TIP3   OH262350   5.486   1.063  16.275  0.0658 -0.1859 -0.1562
13620TIP3    H162351   5.488   1.159  16.278  0.6430 -0.1155 -1.9421
13620TIP3    H262352   5.393   1.042  16.268 -0.2488  0.1175  2.5497
13621TIP3   OH262353   1.459   6.531   5.312 -0.6819 -0.2004  0.2703
13621TIP3    H162354   1.459   6.528   5.407 -1.1136 -1.7060  0.2437
13621TIP3    H262355   1.452   6.439   5.285 -0.0353  0.1593 -1.2113
13622TIP3   OH262356   4.421   6.141  13.321 -0.5428 -0.2382  0.4669
13622TIP3    H162357   4.388   6.149  13.410  1.7084  1.4327  1.1962
13622TIP3    H262358   4.489   6.073  13.326  0.3670  0.6407  0.2855
13623TIP3   OH262359   6.669   4.998  12.678 -0.1975  0.1926 -0.2806
13623TIP3    H162360   6.582   5.038  12.671  0.0578  0.3932 -2.8138
13623TIP3    H262361   6.722   5.064  12.723 -1.1040  0.4600  0.4274
13624TIP3   OH262362   5.931   0.760  11.639  0.2793 -0.5283 -0.1716
13624TIP3    H162363   5.979   0.680  11.659  0.8900 -0.2552 -0.5171
13624TIP3    H262364   5.876   0.775  11.715  0.9067 -0.7355  0.3286
13625TIP3   OH262365   5.570   2.407   1.536  0.4871  0.9422 -0.2861
13625TIP3    H162366   5.481   2.399   1.503  0.6605  0.9869 -0.7755
13625TIP3    H262367   5.612   2.324   1.513  0.4661  0.7794  0.2679
13626TIP3   OH262368   4.606   1.426  15.661  0.1772  0.6149  0.4021
13626TIP3    H162369   4.643   1.478  15.732  0.6057  0.2931  0.4138
13626TIP3    H262370   4.671   1.431  15.591  0.4173 -0.2619  0.5613
13627TIP3   OH262371   2.991   4.216  13.142  0.2341  0.0967 -0.4096
13627TIP3    H162372   2.975   4.198  13.050  0.3919  1.1787 -0.6515
13627TIP3    H262373   3.084   4.238  13.147  0.2184  0.0752 -0.0083
13628TIP3   OH262374   0.068   2.552  13.830  0.2589  0.5150  0.1772
13628TIP3    H162375   0.129   2.603  13.883 -0.3562  0.4283  0.9865
13628TIP3    H262376   0.098   2.564  13.740  1.0469  1.0346  0.5059
13629TIP3   OH262377   5.548   4.276  12.926 -0.1488 -0.1182 -0.4331
13629TIP3    H162378   5.622   4.289  12.986 -1.9769  2.4489  1.3550
13629TIP3    H262379   5.492   4.213  12.972 -2.1806  2.8124  1.2656
13630TIP3   OH262380   4.848   0.832  14.416 -0.2619  0.3412  0.2105
13630TIP3    H162381   4.912   0.805  14.482 -0.8363 -1.8002 -0.0877
13630TIP3    H262382   4.777   0.768  14.423 -1.0301  0.9736 -1.4660
13631TIP3   OH262383   2.587   0.018   3.401 -0.2002 -0.4466  0.0174
13631TIP3    H162384   2.646  -0.037   3.350  0.0248  1.0704 -1.4091
13631TIP3    H262385   2.646   0.072   3.455 -0.3421 -0.2630 -0.0099
13632TIP3   OH262386   5.351   0.857  14.252 -0.0566  0.3544  0.1860
13632TIP3    H162387   5.258   0.843  14.268 -0.6575  1.8165 -1.7971
13632TIP3    H262388   5.355   0.892  14.163  2.4783 -0.5627 -0.1075
13633TIP3   OH262389   3.259   6.377   0.308 -0.0723 -0.4708 -0.0381
13633TIP3    H162390   3.210   6.459   0.307  1.1116  0.2454 -0.3882
13633TIP3    H262391   3.224   6.329   0.383 -0.8240  0.3175  0.1246
13634TIP3   OH262392   1.372   6.412  11.041 -0.3204  0.2871 -0.1579
13634TIP3    H162393   1.357   6.346  10.974 -0.6342 -0.0091  0.2038
13634TIP3    H262394   1.453   6.456  11.014  1.0242 -1.6007  0.7114
13635TIP3   OH262395   3.000   5.331   5.425  0.0962 -0.2598 -0.2470
13635TIP3    H162396   3.075   5.381   5.455 -0.6419 -0.6959  2.4555
13635TIP3    H262397   2.924   5.382   5.452 -0.5976 -0.9427 -0.8703
13636TIP3   OH262398   4.557   1.861  10.792 -0.0483  0.4818  0.0079
13636TIP3    H162399   4.576   1.835  10.882 -0.4641  0.6110  0.1361
13636TIP3    H262400   4.582   1.953  10.788 -1.1340  0.7945  0.3248
13637TIP3   OH262401   2.294   4.477   3.684  0.1625 -0.1291 -0.2067
13637TIP3    H162402   2.242   4.470   3.764 -0.5563 -1.8447 -0.8120
13637TIP3    H262403   2.374   4.522   3.712 -1.5894  2.5445  0.7378
13638TIP3   OH262404   4.033   6.454   2.121 -0.2147 -0.2946 -0.9509
13638TIP3    H162405   3.950   6.492   2.149  0.1514  0.0238 -0.2923
13638TIP3    H262406   4.035   6.468   2.026 -0.8391 -0.1732 -0.9478
13639TIP3   OH262407   6.513   0.214  11.042 -0.4896  0.4136 -0.2955
13639TIP3    H162408   6.503   0.245  11.132  4.1542  0.2490  0.4115
13639TIP3    H262409   6.545   0.290  10.994  0.0727 -0.3159 -1.0944
13640TIP3   OH262410   1.692   6.617   1.249 -0.3328  0.0956 -0.3250
13640TIP3    H162411   1.715   6.629   1.341  0.2664 -1.3483 -0.2630
13640TIP3    H262412   1.759   6.664   1.200 -0.6528  0.8612 -0.0179
13641TIP3   OH262413   4.752   6.170   3.770  0.2873  0.5042  0.0875
13641TIP3    H162414   4.784   6.245   3.720  2.6235  0.3159  1.2499
13641TIP3    H262415   4.829   6.116   3.785 -0.9545 -1.0055  1.2161
13642TIP3   OH262416   2.339   1.853   1.256  0.0593 -0.0884  0.0181
13642TIP3    H162417   2.311   1.778   1.204  0.9773 -0.0740 -0.5152
13642TIP3    H262418   2.424   1.827   1.293 -0.0842  0.3043  0.6452
13643TIP3   OH262419   0.859   0.890   0.513  0.5268  0.3394 -0.0968
13643TIP3    H162420   0.819   0.805   0.531 -0.3982  0.3832 -1.8701
13643TIP3    H262421   0.952   0.870   0.499  0.5228 -0.2211  0.6543
13644TIP3   OH262422   1.319   1.510   6.123  0.5315 -0.3686  0.0827
13644TIP3    H162423   1.273   1.538   6.202 -1.6911 -1.0652 -0.9032
13644TIP3    H262424   1.319   1.586   6.065 -0.3092 -0.6531 -0.3060
13645TIP3   OH262425   4.149   1.107   4.797  0.2750 -0.3646  0.3521
13645TIP3    H162426   4.058   1.121   4.768  0.1071 -0.0977  0.9975
13645TIP3    H262427   4.196   1.083   4.717  0.3919  3.0071 -0.6606
13646TIP3   OH262428   3.091   2.919  15.157 -0.1363  0.3603 -0.1153
13646TIP3    H162429   3.070   2.906  15.249 -1.6517 -1.5449 -0.6888
13646TIP3    H262430   3.068   3.011  15.140  1.5390  1.1629  1.7129
13647TIP3   OH262431   5.605   5.062  12.347 -0.1172 -0.0753  0.0706
13647TIP3    H162432   5.608   5.021  12.260 -0.3079 -2.3162  1.0991
13647TIP3    H262433   5.523   5.031  12.385  0.4641  0.0814  1.4518
13648TIP3   OH262434   6.586   4.798   2.475 -0.0680  0.2165 -0.2018
13648TIP3    H162435   6.682   4.790   2.476  0.0289  1.3477  0.5942
13648TIP3    H262436   6.564   4.804   2.382  0.8372  2.0377 -0.3272
13649TIP3   OH262437   5.164   4.166  14.296  0.1739  0.2701  0.1789
13649TIP3    H162438   5.086   4.170  14.351  0.5896 -0.8100  0.8541
13649TIP3    H262439   5.223   4.231  14.335 -0.1162  0.6045  0.0727
13650TIP3   OH262440   2.337   6.244   0.085 -0.2516  0.0789 -0.2322
13650TIP3    H162441   2.254   6.219   0.045 -1.3557  2.0612  0.7480
13650TIP3    H262442   2.363   6.323   0.038  0.6777 -0.0788  0.0059
13651TIP3   OH262443   5.076   6.627  16.482 -0.2037 -0.1302  0.2362
13651TIP3    H162444   5.094   6.680  16.560  0.3837  0.9446 -0.6074
13651TIP3    H262445   4.998   6.577  16.504  1.7406 -2.2082  2.6654
13652TIP3   OH262446   4.767   3.382  17.143 -0.0941 -0.0963  0.1044
13652TIP3    H162447   4.853   3.420  17.124 -0.4200  0.3542 -0.5250
13652TIP3    H262448   4.752   3.321  17.071 -1.4272  1.7585 -1.2231
13653TIP3   OH262449   1.092   2.902  13.562 -0.8203  0.4615  0.0020
13653TIP3    H162450   1.077   2.833  13.627 -0.1641  2.0988  1.9290
13653TIP3    H262451   1.180   2.883  13.528 -0.6905  0.2736  0.4385
13654TIP3   OH262452   2.427   6.451   2.382  0.0886 -0.2361  0.1977
13654TIP3    H162453   2.456   6.496   2.302 -1.1943 -1.2736 -0.8666
13654TIP3    H262454   2.462   6.362   2.373 -1.0907 -0.7030  0.2172
13655TIP3   OH262455   1.283   3.310  12.175  0.7062  0.5244  0.1292
13655TIP3    H162456   1.244   3.397  12.171 -0.0217  0.2088  0.2325
13655TIP3    H262457   1.242   3.262  12.103  0.2199 -0.0869  0.8110
13656TIP3   OH262458   0.447   0.389   1.701 -0.2385 -0.2876  0.8340
13656TIP3    H162459   0.440   0.415   1.793  3.4499  0.3324  1.0321
13656TIP3    H262460   0.537   0.412   1.676 -0.6489 -1.9007 -2.4766
13657TIP3   OH262461   3.306   0.166   4.170  1.3097  0.1030 -0.8338
13657TIP3    H162462   3.214   0.155   4.145  0.2192  1.4306  2.3028
13657TIP3    H262463   3.338   0.077   4.182 -0.3618 -0.3334  0.6390
13658TIP3   OH262464   1.746   1.140  12.134  0.0877  0.1530  0.3642
13658TIP3    H162465   1.778   1.079  12.200 -0.2292 -0.4762 -0.0582
13658TIP3    H262466   1.802   1.217  12.142  0.2541 -0.0501  1.1480
13659TIP3   OH262467   6.627   5.944  10.934  0.9643  0.2796  0.0675
13659TIP3    H162468   6.600   5.852  10.940 -0.4165  0.8074  2.9753
13659TIP3    H262469   6.721   5.940  10.918  1.3208 -1.7047  2.3081
13660TIP3   OH262470   4.953   6.401  15.522 -0.1839  0.0497  0.2874
13660TIP3    H162471   4.980   6.477  15.469 -2.5741 -0.0447 -1.1308
13660TIP3    H262472   4.978   6.325  15.469  0.0487 -0.1132  0.6279
13661TIP3   OH262473   6.182   0.845   3.347  0.0224  0.1365  0.0126
13661TIP3    H162474   6.107   0.888   3.388  1.6620  0.7882  2.4133
13661TIP3    H262475   6.234   0.916   3.311  0.5776 -0.1426  0.2590
13662TIP3   OH262476   0.610   4.063  16.119 -0.5992  0.0017 -0.3640
13662TIP3    H162477   0.539   4.005  16.092  0.3634 -1.8563  0.9321
13662TIP3    H262478   0.690   4.015  16.095  0.2245  0.2083  1.8201
13663TIP3   OH262479   0.622   0.545  13.062  0.3613 -0.3829 -0.1379
13663TIP3    H162480   0.604   0.614  12.998 -1.1760  1.3973  2.1358
13663TIP3    H262481   0.602   0.464  13.016  0.4948  0.7790 -2.3058
13664TIP3   OH262482   4.540   4.785  10.696 -0.1594  0.1287  0.6763
13664TIP3    H162483   4.501   4.730  10.629  1.1347 -1.6016  1.3267
13664TIP3    H262484   4.585   4.854  10.648 -1.2876  0.2931 -0.1548
13665TIP3   OH262485   0.670   0.062   0.479 -0.3348  0.3515 -0.0726
13665TIP3    H162486   0.657   0.075   0.385 -0.2351  1.2677  0.0336
13665TIP3    H262487   0.593   0.104   0.519 -1.7698 -2.3864  0.1397
13666TIP3   OH262488   0.643   3.185   5.480  0.7644  0.6318  0.5226
13666TIP3    H162489   0.584   3.193   5.555 -0.1501 -0.8133 -0.0049
13666TIP3    H262490   0.612   3.251   5.418  0.1942  0.4128  0.5701
13667TIP3   OH262491   6.627   4.380   0.086 -0.2675  0.4349  0.4597
13667TIP3    H162492   6.684   4.457   0.078  0.9493 -0.6881 -2.5981
13667TIP3    H262493   6.646   4.345   0.173  0.6694  2.4256  1.0965
13668TIP3   OH262494   0.785   4.469   3.948  0.1958 -0.3633  0.1821
13668TIP3    H162495   0.744   4.471   3.861 -0.1971  0.9658  0.3859
13668TIP3    H262496   0.863   4.523   3.938  1.5354 -2.2863 -0.0042
13669TIP3   OH262497   2.781   6.025  15.704 -0.4275  0.1355 -0.6156
13669TIP3    H162498   2.731   6.030  15.785 -1.3875  0.9911 -1.2404
13669TIP3    H262499   2.812   5.935  15.700 -1.6818 -0.3325 -0.0665
13670TIP3   OH262500   5.337   3.494  16.305 -0.3099  1.0190  0.1866
13670TIP3    H162501   5.254   3.487  16.258 -0.4602  0.8821  0.4650
13670TIP3    H262502   5.327   3.434  16.379  0.1954  0.6915 -0.0059
13671TIP3   OH262503   4.510   3.767   0.453 -0.7785 -0.7348  0.4136
13671TIP3    H162504   4.531   3.831   0.386 -0.5404 -0.6003  0.6148
13671TIP3    H262505   4.568   3.789   0.526 -1.1166 -0.8043  0.7053
13672TIP3   OH262506   1.391   4.629   5.384 -0.5963  0.1298  0.1046
13672TIP3    H162507   1.369   4.718   5.355 -0.6811  0.4206  1.0351
13672TIP3    H262508   1.483   4.619   5.359  0.1281  1.3961  2.1673
13673TIP3   OH262509   3.686   2.546   4.203 -0.3123  0.0695 -0.0648
13673TIP3    H162510   3.756   2.488   4.233 -0.8444 -0.2770  0.5215
13673TIP3    H262511   3.729   2.631   4.190  0.4123 -0.3771 -0.6606
13674TIP3   OH262512   6.743   4.669  16.837  0.4683 -0.4195  0.3829
13674TIP3    H162513   6.747   4.574  16.822 -0.4517 -0.0873 -2.2150
13674TIP3    H262514   6.727   4.706  16.751 -1.9461  1.9348  1.7622
13675TIP3   OH262515   1.849   4.972   1.492 -0.3635 -0.7155  0.4854
13675TIP3    H162516   1.771   5.020   1.519  0.1111 -1.2944  2.9826
13675TIP3    H262517   1.859   4.903   1.557  0.2950 -2.7898 -1.7456
13676TIP3   OH262518   6.655   0.833   4.723 -0.0534 -0.0739  0.0502
13676TIP3    H162519   6.682   0.860   4.811  2.3802  1.1676 -1.0129
13676TIP3    H262520   6.624   0.913   4.682  2.3847  0.1719 -1.4281
13677TIP3   OH262521   4.382   6.652  17.151 -0.5246 -0.9105  0.4250
13677TIP3    H162522   4.361   6.570  17.107  3.4678 -1.4546 -0.6633
13677TIP3    H262523   4.351   6.720  17.091 -0.8338 -1.6451 -0.2541
13678TIP3   OH262524   0.734   4.161   2.359 -0.5455  0.1007  0.2779
13678TIP3    H162525   0.712   4.243   2.403  0.0029  0.8552 -0.8219
13678TIP3    H262526   0.760   4.188   2.270 -1.2595 -1.3379 -0.3864
13679TIP3   OH262527   4.287   0.553  12.761 -0.0857 -0.0747 -0.3491
13679TIP3    H162528   4.361   0.614  12.768  0.1633 -0.2890 -1.0454
13679TIP3    H262529   4.213   0.607  12.735 -0.1242  0.1042  0.1232
13680TIP3   OH262530   2.176   5.791  10.730 -0.1697  0.1880  0.2094
13680TIP3    H162531   2.230   5.780  10.652 -3.1232 -1.1333 -1.7293
13680TIP3    H262532   2.165   5.886  10.738  1.3715  0.4013 -0.0867
13681TIP3   OH262533   5.614   6.499  16.947 -0.4333 -0.4914  0.1104
13681TIP3    H162534   5.580   6.546  16.871  0.8258  0.7595  0.2946
13681TIP3    H262535   5.687   6.447  16.912  0.9398  1.0304  0.6517
13682TIP3   OH262536   1.197   3.364  15.713 -0.1556  0.2658 -0.5296
13682TIP3    H162537   1.111   3.360  15.673  0.1240  0.9929 -1.2071
13682TIP3    H262538   1.257   3.382  15.641  0.3114  1.8904  0.2277
13683TIP3   OH262539   1.517   6.375  13.313  0.1375  0.0080 -0.9836
13683TIP3    H162540   1.475   6.302  13.268  1.2262 -0.7384 -0.8152
13683TIP3    H262541   1.543   6.435  13.244  1.2616 -0.8474 -1.3154
13684TIP3   OH262542   3.150   4.375   3.618  0.8754 -0.1179  0.2897
13684TIP3    H162543   3.137   4.346   3.708  1.8595 -1.4327  0.0329
13684TIP3    H262544   3.066   4.411   3.592  0.3488 -0.4625  1.4744
13685TIP3   OH262545   6.448   3.058  13.213  0.6089  0.0840  0.5654
13685TIP3    H162546   6.385   3.126  13.239  1.0666  0.5572  0.4463
13685TIP3    H262547   6.513   3.057  13.283  1.7997  1.3040 -0.4869
13686TIP3   OH262548   0.577   3.491  13.494  0.2409  0.5321  0.5957
13686TIP3    H162549   0.542   3.402  13.496  1.2272  0.1380  0.5858
13686TIP3    H262550   0.605   3.508  13.584  0.3503  0.7063  0.5308
13687TIP3   OH262551   3.865   2.502   3.254  0.1444  0.3786  0.4718
13687TIP3    H162552   3.802   2.450   3.304  0.2938 -0.0129  0.2577
13687TIP3    H262553   3.943   2.507   3.310 -1.0305  3.2122  1.9376
13688TIP3   OH262554   3.506   5.462  15.296 -0.6103  0.2565  0.0852
13688TIP3    H162555   3.439   5.462  15.365 -1.1669 -1.4226 -0.4314
13688TIP3    H262556   3.457   5.443  15.216 -0.0214  2.4950 -0.8619
13689TIP3   OH262557   4.551   4.664  11.377  0.2530  0.2340  0.1786
13689TIP3    H162558   4.515   4.723  11.310  0.3097 -0.4923 -0.4916
13689TIP3    H262559   4.577   4.586  11.328 -0.2406 -0.5305  1.1469
13690TIP3   OH262560   6.141   1.441   5.715  0.1764  0.1899  0.1655
13690TIP3    H162561   6.156   1.365   5.771 -0.3640  0.0890  0.1753
13690TIP3    H262562   6.165   1.516   5.769  0.5744  0.0359  0.2026
13691TIP3   OH262563   2.842   3.844  15.917  0.4836 -0.2310 -0.1646
13691TIP3    H162564   2.765   3.895  15.944  0.9210  0.9414 -1.1155
13691TIP3    H262565   2.916   3.888  15.959  0.7187 -1.0342  0.2948
13692TIP3   OH262566   3.564   1.437  16.225 -0.5605  0.3502  0.2732
13692TIP3    H162567   3.562   1.431  16.321  0.1267  1.9757  0.4050
13692TIP3    H262568   3.605   1.355  16.197 -0.0910  0.1829  1.4074
13693TIP3   OH262569   6.357   5.762   5.335  0.4800 -0.3769  1.0493
13693TIP3    H162570   6.435   5.741   5.385  1.5109  0.5278 -0.1409
13693TIP3    H262571   6.381   5.839   5.283 -0.7404 -0.8994 -0.3467
13694TIP3   OH262572   0.383   3.222   1.059 -0.3150 -0.7901 -0.3073
13694TIP3    H162573   0.447   3.266   1.003 -1.3700  1.2818  0.0437
13694TIP3    H262574   0.434   3.162   1.112  1.2391  0.2298 -0.6221
13695TIP3   OH262575   1.012   5.086   5.538  0.0637 -0.4838 -0.2813
13695TIP3    H162576   1.011   5.002   5.492 -0.2727  0.5779 -2.2511
13695TIP3    H262577   0.926   5.124   5.521  0.1356  0.1754  0.7837
13696TIP3   OH262578   0.304   2.813  12.836 -0.3284 -0.0334  0.2578
13696TIP3    H162579   0.232   2.751  12.847 -0.6799 -0.1340 -2.2949
13696TIP3    H262580   0.261   2.898  12.826 -0.0116  0.1566  0.5136
13697TIP3   OH262581   6.462   5.704   0.937 -0.2904 -0.0210 -0.7553
13697TIP3    H162582   6.500   5.769   0.996  0.5425 -0.8071 -0.4062
13697TIP3    H262583   6.367   5.717   0.943 -0.1192  1.2267 -0.7776
13698TIP3   OH262584   5.188   5.661  12.089 -0.2859 -0.0055 -0.2627
13698TIP3    H162585   5.279   5.633  12.095  0.0722  1.3662  0.7837
13698TIP3    H262586   5.150   5.604  12.021  0.4694 -2.9062  1.6405
13699TIP3   OH262587   3.239   0.295  12.418  0.0026  0.2778  0.1596
13699TIP3    H162588   3.176   0.227  12.392  1.6953 -1.3432  0.1782
13699TIP3    H262589   3.320   0.269  12.374  0.2559  3.2549 -1.2239
13700TIP3   OH262590   2.072   3.661  12.644 -0.5132 -0.0933  0.4905
13700TIP3    H162591   2.072   3.613  12.562  0.7455 -1.1928  1.1193
13700TIP3    H262592   2.092   3.595  12.711  1.4013  1.2849  1.3463
13701TIP3   OH262593   6.203   0.763  12.328  0.3902 -0.0970 -0.1081
13701TIP3    H162594   6.141   0.817  12.377 -0.0586 -1.7722  1.1972
13701TIP3    H262595   6.171   0.766  12.238  0.2630  1.6475 -0.0186
13702TIP3   OH262596   2.526   3.543   1.924  0.3240  0.0637 -0.0916
13702TIP3    H162597   2.524   3.491   1.843  0.8026 -0.1432  0.0275
13702TIP3    H262598   2.452   3.603   1.915 -0.9683 -1.4147  0.2870
13703TIP3   OH262599   2.340   6.577  14.732  0.3464 -0.2855 -0.6861
13703TIP3    H162600   2.253   6.609  14.756  0.3674 -0.0530 -0.9152
13703TIP3    H262601   2.400   6.621  14.792  0.4781  0.9169 -1.6896
13704TIP3   OH262602   2.517   6.711  17.221  0.0841  0.0765 -0.5858
13704TIP3    H162603   2.560   6.743  17.142  1.6680 -1.3056 -0.3145
13704TIP3    H262604   2.556   6.625  17.237 -0.9824 -0.1326  1.1055
13705TIP3   OH262605   4.151   3.593   1.863 -0.2119 -0.2853 -0.0215
13705TIP3    H162606   4.193   3.518   1.905  1.5918  1.7254  1.8728
13705TIP3    H262607   4.199   3.605   1.782  0.2981 -0.4215  0.2595
13706TIP3   OH262608   6.818   3.569   0.257  0.5669 -0.0766 -0.5604
13706TIP3    H162609   6.806   3.487   0.304  1.7097 -0.4881 -0.9655
13706TIP3    H262610   6.761   3.632   0.302  0.6295 -0.7832  0.5123
13707TIP3   OH262611   2.119   0.215  14.380 -0.4459 -0.2645  0.0020
13707TIP3    H162612   2.063   0.198  14.305 -2.0657 -0.6456  1.2695
13707TIP3    H262613   2.066   0.269  14.439  1.2584  1.1228  0.3119
13708TIP3   OH262614   6.101   4.045   1.244 -0.7374 -0.1024  0.0386
13708TIP3    H162615   6.007   4.062   1.255 -0.0937  2.5156  1.7806
13708TIP3    H262616   6.142   4.131   1.251  1.5810 -0.8153 -3.5472
13709TIP3   OH262617   6.188   4.085   1.732 -0.2447  0.1333  0.3025
13709TIP3    H162618   6.162   4.156   1.674 -1.6886 -0.5039  0.1625
13709TIP3    H262619   6.261   4.043   1.687 -0.2583  0.6877 -0.2491
13710TIP3   OH262620   3.780   4.681   4.631 -0.2107  0.9364  0.6892
13710TIP3    H162621   3.814   4.757   4.585  1.9840 -1.1584 -1.2792
13710TIP3    H262622   3.840   4.667   4.704 -0.1807  0.6568  0.6134
13711TIP3   OH262623   4.322   4.969   3.941  0.7873  0.0924 -0.3130
13711TIP3    H162624   4.231   4.947   3.959  1.5105 -1.5096  1.5294
13711TIP3    H262625   4.321   5.004   3.852 -1.6284  0.2048 -0.2734
13712TIP3   OH262626   3.469   3.537  11.946 -0.7137  0.7122 -0.4138
13712TIP3    H162627   3.556   3.513  11.914  0.0716  0.7259  1.6844
13712TIP3    H262628   3.411   3.521  11.871  0.7658 -1.3365 -1.1439
13713TIP3   OH262629   3.332   0.428  13.916  0.8908 -0.2068  0.5306
13713TIP3    H162630   3.417   0.410  13.876  1.0648 -0.2516  0.9262
13713TIP3    H262631   3.269   0.413  13.845  1.3962  2.3391 -0.5061
13714TIP3   OH262632   1.655   0.301   0.686  0.2465  0.2539  0.1184
13714TIP3    H162633   1.572   0.344   0.711 -0.6473 -0.4435 -1.5706
13714TIP3    H262634   1.698   0.283   0.770 -1.2991  0.6636  1.0373
13715TIP3   OH262635   0.638   0.442  14.438 -0.0950  0.3398  0.5237
13715TIP3    H162636   0.671   0.389  14.366  0.8595 -1.6767  2.3914
13715TIP3    H262637   0.679   0.527  14.426  1.9219 -0.6685 -0.0024
13716TIP3   OH262638   4.885   6.225   0.882 -0.1833 -0.1495  0.1803
13716TIP3    H162639   4.845   6.304   0.846 -1.3403 -0.4493  0.7672
13716TIP3    H262640   4.915   6.176   0.805 -0.7337  0.1918 -0.2555
13717TIP3   OH262641   2.891   5.679  11.554 -0.1860  0.7118  0.8048
13717TIP3    H162642   2.860   5.739  11.621 -1.6305  0.6354  0.2159
13717TIP3    H262643   2.986   5.674  11.568 -0.3332  1.5380  2.1339
13718TIP3   OH262644   0.250   3.598   4.170  0.3364  0.6586  0.2441
13718TIP3    H162645   0.274   3.547   4.094  1.1512  1.0672  0.2220
13718TIP3    H262646   0.333   3.622   4.211 -0.1003  0.0722  1.5102
13719TIP3   OH262647   6.006   4.701  16.217 -0.5904  0.0644  0.1878
13719TIP3    H162648   6.042   4.685  16.304  1.4644  0.2170 -0.6136
13719TIP3    H262649   5.942   4.631  16.204  2.5911 -2.8918 -0.1336
13720TIP3   OH262650   0.424   2.224  13.708 -0.0497 -0.0044 -0.1354
13720TIP3    H162651   0.385   2.234  13.621  0.9231  1.4432 -0.4325
13720TIP3    H262652   0.493   2.291  13.711  0.0843 -0.1951  1.6580
13721TIP3   OH262653   1.610   4.495   2.808 -0.3710  0.1108  0.0309
13721TIP3    H162654   1.567   4.424   2.855  1.6484 -0.6766  0.7323
13721TIP3    H262655   1.591   4.573   2.861  1.3340 -0.6672  1.8527
13722TIP3   OH262656   6.039   2.796   3.264 -0.1469 -0.1762  0.0843
13722TIP3    H162657   5.954   2.799   3.220  0.4896 -0.5747 -1.1979
13722TIP3    H262658   6.102   2.819   3.196  0.6517  1.8366  1.4159
13723TIP3   OH262659   1.519   1.219  15.220  0.0630  0.0429  0.0641
13723TIP3    H162660   1.427   1.230  15.195 -0.0372  2.2853  1.2236
13723TIP3    H262661   1.518   1.211  15.315  1.0713  0.1362  0.0945
13724TIP3   OH262662   3.787   4.394  14.149  0.1597  0.2491 -0.5236
13724TIP3    H162663   3.851   4.461  14.174 -1.8314  1.7605  0.6622
13724TIP3    H262664   3.734   4.380  14.228 -0.8442 -1.1526 -1.4114
13725TIP3   OH262665   6.428   1.391   3.433  0.1866 -0.4103 -0.4387
13725TIP3    H162666   6.424   1.338   3.354 -1.4930  0.6319 -1.0911
13725TIP3    H262667   6.443   1.480   3.402 -0.8943  0.0685  0.3580
13726TIP3   OH262668   5.735   2.620   6.781 -0.1294  0.2890  0.3100
13726TIP3    H162669   5.706   2.533   6.809  0.2562  0.0535 -0.0144
13726TIP3    H262670   5.787   2.652   6.854 -1.3411  0.7895  0.9721
13727TIP3   OH262671   0.055   1.798  12.589  0.1401 -0.5101 -0.2154
13727TIP3    H162672   0.044   1.786  12.495 -0.8022  0.7190 -0.2691
13727TIP3    H262673   0.027   1.888  12.606  2.3924  0.0190  0.9175
13728TIP3   OH262674   6.320   2.826   1.690 -0.3846  0.1634 -0.1990
13728TIP3    H162675   6.290   2.791   1.775 -0.9932  0.1679 -0.4054
13728TIP3    H262676   6.392   2.885   1.712 -0.3782 -0.0254  0.2952
13729TIP3   OH262677   4.790   3.941  12.232 -0.0396  0.4147 -0.0344
13729TIP3    H162678   4.789   3.899  12.318  2.8639 -1.1098 -0.6707
13729TIP3    H262679   4.833   3.877  12.175 -0.8544  1.8959 -2.3661
13730TIP3   OH262680   1.456   3.621   4.202 -0.1844 -0.6960  0.7103
13730TIP3    H162681   1.376   3.584   4.163  0.3488  0.4319 -1.5908
13730TIP3    H262682   1.526   3.561   4.176  0.4255  0.9367 -1.5848
13731TIP3   OH262683   6.740   6.755   5.882  0.7429 -0.5997  0.5860
13731TIP3    H162684   6.682   6.782   5.953 -0.2916 -0.0781 -0.4307
13731TIP3    H262685   6.681   6.721   5.815  1.5706  0.3579 -0.6453
13732TIP3   OH262686   4.253   4.654  10.525 -0.0366 -0.0933  0.3012
13732TIP3    H162687   4.215   4.566  10.525 -0.0025 -0.1080  0.6233
13732TIP3    H262688   4.338   4.643  10.484  0.0803 -0.2587  0.5880
13733TIP3   OH262689   4.707   5.733  11.615  0.4629  0.1629  0.4193
13733TIP3    H162690   4.753   5.778  11.686 -1.0097 -0.2363  1.6539
13733TIP3    H262691   4.711   5.640  11.639  1.9635 -0.2147 -1.2153
13734TIP3   OH262692   2.111   2.575   3.796 -0.1341  0.1384 -0.7486
13734TIP3    H162693   2.026   2.550   3.759  0.2198  0.6105 -1.8743
13734TIP3    H262694   2.175   2.549   3.730  0.3734  2.5206 -1.2165
13735TIP3   OH262695   1.244   5.740  17.069 -0.4088 -0.3316 -0.3600
13735TIP3    H162696   1.211   5.652  17.089  2.3450 -1.1360  0.8943
13735TIP3    H262697   1.300   5.728  16.992  0.4574  0.1967  0.1752
13736TIP3   OH262698   3.870   5.304  10.624  0.1227 -0.4862  0.1460
13736TIP3    H162699   3.950   5.276  10.579  0.1524 -0.8264  0.4129
13736TIP3    H262700   3.894   5.388  10.664  0.3059 -0.5260  0.1182
13737TIP3   OH262701   0.665   2.875  17.269 -0.2753 -0.1561 -0.1441
13737TIP3    H162702   0.756   2.846  17.262 -0.5361 -0.8105 -0.9472
13737TIP3    H262703   0.634   2.880  17.178 -0.4355  2.0733 -0.0046
13738TIP3   OH262704   2.122   4.717  15.162  0.1775  0.3898  0.2352
13738TIP3    H162705   2.141   4.665  15.084 -1.3694  0.2018 -0.0375
13738TIP3    H262706   2.130   4.656  15.235  1.0741  0.4343  0.1822
13739TIP3   OH262707   1.997   4.314  15.221  0.3071  0.8463 -0.0897
13739TIP3    H162708   2.000   4.338  15.129 -0.4779 -0.0782 -0.3593
13739TIP3    H262709   2.043   4.230  15.225  0.1137  0.7602  0.3217
13740TIP3   OH262710   4.262   5.267  11.010  0.5046  0.3348 -0.3862
13740TIP3    H162711   4.217   5.346  10.982 -1.5574 -1.1027 -1.2225
13740TIP3    H262712   4.340   5.263  10.955 -0.0868  1.0693 -1.2852
13741TIP3   OH262713   0.497   2.946  13.000  0.6838 -0.1147  0.1161
13741TIP3    H162714   0.429   2.888  12.965  0.5186  1.4314 -2.2819
13741TIP3    H262715   0.460   2.978  13.082 -0.4654 -1.1622  0.0316
13742TIP3   OH262716   1.323   2.662  13.034  0.0251  0.0712 -0.4447
13742TIP3    H162717   1.405   2.694  13.070  0.0274  0.0327 -0.4163
13742TIP3    H262718   1.323   2.568  13.053  0.3411 -0.0743 -1.1375
13743TIP3   OH262719   1.729   6.185   2.008  0.2582  0.0963  0.1087
13743TIP3    H162720   1.803   6.244   2.013 -0.5110  1.0700  0.1708
13743TIP3    H262721   1.723   6.145   2.095 -0.2787  1.2362  0.6015
13744TIP3   OH262722   4.226   6.725  14.259  0.0232  0.1872  0.1079
13744TIP3    H162723   4.147   6.713  14.310 -0.1233  0.8817  0.0484
13744TIP3    H262724   4.252   6.636  14.233 -0.3033 -0.1066  0.7660
13745TIP3   OH262725   6.304   5.301   1.650 -0.7906  0.2312 -0.0605
13745TIP3    H162726   6.379   5.341   1.606  1.1192  0.4196  3.1332
13745TIP3    H262727   6.306   5.209   1.623  0.3864  0.3286 -0.3269
13746TIP3   OH262728   1.249   3.997   0.590 -0.1700  0.5475 -0.3849
13746TIP3    H162729   1.235   4.078   0.640  0.4502  0.9966 -0.9255
13746TIP3    H262730   1.167   3.982   0.544 -0.6491  0.2916  0.5333
13747TIP3   OH262731   6.009   0.682  14.061 -0.3061 -0.9480 -0.0789
13747TIP3    H162732   5.948   0.726  14.001  1.1538  1.5212  0.1817
13747TIP3    H262733   6.095   0.715  14.036  0.7086 -2.7332  0.9859
13748TIP3   OH262734   1.298   5.193   4.693 -0.2854  0.8511 -0.4705
13748TIP3    H162735   1.206   5.170   4.703 -0.0810 -0.2526 -1.0155
13748TIP3    H262736   1.301   5.246   4.613 -0.1441 -1.0607 -1.7720
13749TIP3   OH262737   2.901   3.484  16.880 -0.1094 -0.3379 -0.1587
13749TIP3    H162738   2.868   3.573  16.866  1.2074  0.2285  0.2611
13749TIP3    H262739   2.953   3.465  16.801  0.2327 -0.4476  0.0947
13750TIP3   OH262740   1.592   4.865   1.086  0.0571 -0.2264  0.5033
13750TIP3    H162741   1.635   4.946   1.055 -0.6932 -0.4983 -1.3019
13750TIP3    H262742   1.645   4.795   1.049 -0.6799 -0.5592  0.0732
13751TIP3   OH262743   5.538   1.231   3.757 -0.1873  0.2256 -0.0605
13751TIP3    H162744   5.502   1.320   3.758  0.1890  0.3696  0.2696
13751TIP3    H262745   5.556   1.211   3.848 -0.8356 -0.4223 -0.0660
13752TIP3   OH262746   4.403   4.333  15.799 -0.1798 -0.6895 -0.6785
13752TIP3    H162747   4.477   4.366  15.748 -0.5022  0.9129 -0.1577
13752TIP3    H262748   4.328   4.345  15.742 -0.3671 -0.0484 -0.3030
13753TIP3   OH262749   1.587   4.838   1.989  0.0741 -0.8576  0.1428
13753TIP3    H162750   1.565   4.858   1.898 -0.4415 -2.5282 -0.1001
13753TIP3    H262751   1.682   4.824   1.987  0.2119  0.0554  0.0433
13754TIP3   OH262752   0.360   3.848  11.213  0.0610 -0.1780 -0.3614
13754TIP3    H162753   0.306   3.927  11.216 -0.6991 -0.6892 -0.6142
13754TIP3    H262754   0.301   3.778  11.185  1.0243 -0.5902 -1.4225
13755TIP3   OH262755   4.225   6.243  14.182 -0.2066 -0.6591  0.7845
13755TIP3    H162756   4.208   6.334  14.158  0.7211 -0.2145  1.7747
13755TIP3    H262757   4.310   6.224  14.142 -0.1783 -0.9285  0.9729
13756TIP3   OH262758   3.272   0.379   3.287  0.3858  1.0039 -0.2370
13756TIP3    H162759   3.318   0.398   3.369 -1.4073  0.5788  0.8891
13756TIP3    H262760   3.198   0.440   3.286  0.2630  0.8590 -1.4515
13757TIP3   OH262761   4.317   4.702   3.608 -0.1304 -0.1074  0.2727
13757TIP3    H162762   4.264   4.781   3.610 -0.6727 -0.4629 -0.0358
13757TIP3    H262763   4.361   4.704   3.523 -0.2748 -0.2236  0.1954
13758TIP3   OH262764   4.336   0.882  16.749  0.3935  0.1259 -0.4959
13758TIP3    H162765   4.386   0.819  16.697  1.0962  1.5130 -1.5382
13758TIP3    H262766   4.387   0.892  16.829  1.1024  0.5100 -0.9817
13759TIP3   OH262767   0.748   5.145  10.385 -0.9245  0.3837  0.0537
13759TIP3    H162768   0.725   5.058  10.352  1.6092 -0.6210  0.7706
13759TIP3    H262769   0.709   5.148  10.472 -1.9208  0.4029 -0.3814
13760TIP3   OH262770   5.145   4.881   3.601 -0.0067 -0.0938 -0.2800
13760TIP3    H162771   5.154   4.930   3.519 -1.2504  0.4362 -0.1176
13760TIP3    H262772   5.125   4.791   3.574 -1.6040  0.3248 -0.5764
13761TIP3   OH262773   5.073   6.437   3.030 -0.0447 -0.2374 -0.4736
13761TIP3    H162774   5.133   6.363   3.036 -0.3163 -0.3949  0.3327
13761TIP3    H262775   5.083   6.469   2.940  1.0079 -0.4553 -0.4357
13762TIP3   OH262776   6.753   2.217   4.884 -0.4527 -0.7403  0.1621
13762TIP3    H162777   6.771   2.245   4.974 -2.5280  2.1798 -0.2878
13762TIP3    H262778   6.666   2.177   4.889 -0.1620 -1.4462 -0.3939
13763TIP3   OH262779   6.458   3.435   2.883 -0.3566  0.0409  0.0192
13763TIP3    H162780   6.460   3.508   2.822 -0.3023 -1.7311 -2.1412
13763TIP3    H262781   6.368   3.434   2.917  0.0141  1.9484  1.1850
13764TIP3   OH262782   0.485   1.356   3.213  0.3236 -0.1636 -0.2152
13764TIP3    H162783   0.490   1.355   3.309  0.6102 -0.9480 -0.2290
13764TIP3    H262784   0.571   1.324   3.184 -0.7151 -2.6898 -0.6698
13765TIP3   OH262785   4.251   1.334   3.355 -0.3907  0.4235 -0.1462
13765TIP3    H162786   4.269   1.363   3.444 -0.1858  3.8245 -1.2049
13765TIP3    H262787   4.329   1.284   3.330  1.2709  2.6915  0.3242
13766TIP3   OH262788   2.209   1.827   5.374  0.2604  0.0978 -0.1278
13766TIP3    H162789   2.253   1.779   5.445  0.5121 -0.5575 -0.7233
13766TIP3    H262790   2.185   1.759   5.311  2.0797  0.9358 -1.7558
13767TIP3   OH262791   5.888   2.780  12.191 -0.4118 -0.0127  0.3543
13767TIP3    H162792   5.935   2.827  12.260 -0.6315 -1.2664  1.3733
13767TIP3    H262793   5.920   2.819  12.110  0.4938  0.8897  1.1241
13768TIP3   OH262794   3.694   0.022  12.387 -0.5606  0.4605  0.2297
13768TIP3    H162795   3.700  -0.073  12.393  0.8057  0.5657  0.6971
13768TIP3    H262796   3.757   0.054  12.452  0.6039  1.6577 -1.4553
13769TIP3   OH262797   0.534   0.697  15.917  0.3334 -0.3586 -0.2361
13769TIP3    H162798   0.583   0.651  15.849 -1.1139  0.8302 -2.1311
13769TIP3    H262799   0.600   0.724  15.980  1.6582 -1.7558 -0.9842
13770TIP3   OH262800   6.020   2.363   5.155 -0.5635  0.1707 -0.1787
13770TIP3    H162801   5.925   2.373   5.152 -0.4219  1.3390 -0.9341
13770TIP3    H262802   6.036   2.280   5.109 -1.2156 -0.0032 -0.0947
13771TIP3   OH262803   0.876   4.886   0.218 -0.7232 -0.4342 -0.0300
13771TIP3    H162804   0.914   4.879   0.305 -0.9455 -1.9002 -0.0486
13771TIP3    H262805   0.856   4.980   0.209  0.1528 -0.1184  1.1160
13772TIP3   OH262806   1.728   3.682  14.082 -0.4148 -0.1326 -0.2191
13772TIP3    H162807   1.676   3.762  14.071 -1.5238 -0.8538 -0.3834
13772TIP3    H262808   1.752   3.656  13.993  0.4420  0.3412 -0.1238
13773TIP3   OH262809   0.422   0.108  15.951 -0.4337  0.2324 -0.4814
13773TIP3    H162810   0.344   0.152  15.919 -0.6681  1.0112  1.1196
13773TIP3    H262811   0.472   0.176  15.995  1.1022 -0.2848 -1.3655
13774TIP3   OH262812   2.822   1.785  11.171  0.4876  0.2480 -0.1428
13774TIP3    H162813   2.783   1.758  11.254  0.8754 -1.3965 -0.4922
13774TIP3    H262814   2.753   1.836  11.128 -1.4284 -2.8556 -0.8793
13775TIP3   OH262815   5.902   6.239   5.113 -0.5614 -0.1933  0.6418
13775TIP3    H162816   5.813   6.273   5.104 -1.4823 -2.2285  1.6995
13775TIP3    H262817   5.894   6.146   5.095  1.3005 -0.4559  1.0918
13776TIP3   OH262818   2.762   5.622   2.969  0.4163  0.0680 -0.2431
13776TIP3    H162819   2.679   5.638   3.014  0.1935  1.2050 -1.0460
13776TIP3    H262820   2.744   5.546   2.913  0.1547 -0.1854  0.1799
13777TIP3   OH262821   3.477   1.035  14.673 -0.1574  0.4251 -0.2701
13777TIP3    H162822   3.452   1.042  14.580  0.9279  0.0595 -0.5925
13777TIP3    H262823   3.544   0.967  14.675 -1.3349 -0.7331  1.0314
13778TIP3   OH262824   6.382   0.567   1.325 -0.1311  0.5428  0.9098
13778TIP3    H162825   6.374   0.662   1.327  0.1255  0.6784 -2.4237
13778TIP3    H262826   6.299   0.536   1.290  0.4928 -0.3243  0.1652
13779TIP3   OH262827   0.786   5.358   4.051  0.3708  0.8157 -0.0188
13779TIP3    H162828   0.692   5.342   4.060  0.8168 -2.8463 -1.2743
13779TIP3    H262829   0.818   5.362   4.141 -0.4431 -1.4185  0.3930
13780TIP3   OH262830   3.727   6.447  15.898  0.1781 -0.3352  0.0278
13780TIP3    H162831   3.784   6.374  15.923 -0.5535 -1.2665 -0.9352
13780TIP3    H262832   3.644   6.428  15.942  0.1541  0.1935  0.2025
13781TIP3   OH262833   0.121   3.342   0.020  0.0552  0.2057  0.1362
13781TIP3    H162834   0.098   3.316  -0.069  0.8777  0.1869 -0.0740
13781TIP3    H262835   0.065   3.288   0.076  1.3955 -1.7076 -0.3093
13782TIP3   OH262836   4.351   0.401  15.055 -0.2923 -0.0047  0.1908
13782TIP3    H162837   4.385   0.347  15.127 -0.6491  0.2108  0.5249
13782TIP3    H262838   4.418   0.469  15.043  0.0368 -0.3741 -0.0612
13783TIP3   OH262839   2.908   6.537  11.241 -0.5195 -0.4422 -0.2069
13783TIP3    H162840   2.986   6.592  11.250  0.6445 -2.0832 -0.0790
13783TIP3    H262841   2.882   6.548  11.149  0.1671 -0.2831 -0.3862
13784TIP3   OH262842   5.131   1.136   3.956  0.0876 -0.5834 -0.1260
13784TIP3    H162843   5.147   1.130   4.050  0.2768  2.1149  0.0478
13784TIP3    H262844   5.206   1.185   3.922 -1.0908  0.4250 -1.3224
13785TIP3   OH262845   3.989   4.956   0.551 -0.1766  0.4589 -0.7224
13785TIP3    H162846   3.940   5.036   0.534  0.3281  0.7260 -0.9092
13785TIP3    H262847   3.998   4.953   0.646  1.3013  1.5179 -0.8167
13786TIP3   OH262848   2.280   1.295   2.494 -0.1166  0.3592  0.1716
13786TIP3    H162849   2.227   1.334   2.564  1.0007  1.0009  0.6585
13786TIP3    H262850   2.370   1.307   2.522  0.3226  0.0144 -1.0697
13787TIP3   OH262851   1.780   1.149   3.588  0.1904  0.0348 -0.1698
13787TIP3    H162852   1.768   1.133   3.494 -0.3787 -1.9093  0.2125
13787TIP3    H262853   1.870   1.119   3.606 -0.2087 -0.9764  0.1774
13788TIP3   OH262854   2.572   0.909   5.195  0.0904  0.6839 -0.2605
13788TIP3    H162855   2.630   0.833   5.188  0.5180  1.1070 -1.3045
13788TIP3    H262856   2.522   0.909   5.114 -1.9276 -0.1099  0.9557
13789TIP3   OH262857   0.276   6.574  12.292 -0.6489 -0.0249 -0.2216
13789TIP3    H162858   0.301   6.632  12.364 -2.5236 -0.2605  0.6567
13789TIP3    H262859   0.196   6.531  12.323 -1.1804 -0.5271 -2.2292
13790TIP3   OH262860   6.080   0.736   6.203 -0.0056  0.3654  0.3992
13790TIP3    H162861   6.040   0.690   6.130 -0.4957 -1.1265  1.5846
13790TIP3    H262862   6.018   0.727   6.275  0.6985  1.3614  1.1610
13791TIP3   OH262863   1.925   6.420  15.633 -0.0835 -0.7263  0.1703
13791TIP3    H162864   1.950   6.404  15.542  0.2862 -0.9051  0.3062
13791TIP3    H262865   1.992   6.478  15.667 -0.9775  0.4669 -0.0801
13792TIP3   OH262866   5.422   0.005  11.403  0.6256  0.2917  0.4823
13792TIP3    H162867   5.437   0.057  11.324  0.3177 -0.5470 -0.1398
13792TIP3    H262868   5.370  -0.069  11.373  0.5999 -0.0926  1.4592
13793TIP3   OH262869   4.452   0.272  16.530  0.0582 -0.2182  0.6099
13793TIP3    H162870   4.417   0.340  16.473 -0.3551 -0.9311  0.0104
13793TIP3    H262871   4.435   0.190  16.483  0.4471 -0.7423  1.3789
13794TIP3   OH262872   4.728   1.613  15.845 -0.5814 -0.3048  1.0640
13794TIP3    H162873   4.685   1.690  15.882 -3.1403 -1.8121  1.3902
13794TIP3    H262874   4.785   1.581  15.916  0.1076  0.9645  1.0989
13795TIP3   OH262875   3.235   2.591   0.847  0.2623  0.5374  0.1780
13795TIP3    H162876   3.326   2.576   0.820  0.0995  0.8171 -0.5119
13795TIP3    H262877   3.238   2.673   0.897 -0.0291  1.9001 -1.9850
13796TIP3   OH262878   4.089   0.139  14.459  0.1048  0.4111 -0.3932
13796TIP3    H162879   4.023   0.142  14.389 -0.6229 -0.8017  0.2230
13796TIP3    H262880   4.041   0.160  14.538  0.7437  0.8447 -0.1141
13797TIP3   OH262881   0.313   3.058   0.229 -0.0671  0.2401  0.2918
13797TIP3    H162882   0.223   3.086   0.214  1.4924  3.2211 -4.5144
13797TIP3    H262883   0.315   2.967   0.202 -1.2015  0.7912 -1.7481
13798TIP3   OH262884   4.101   5.070  12.808  0.4077 -0.0720 -0.3331
13798TIP3    H162885   4.158   4.995  12.790  0.1401 -0.0929 -1.1138
13798TIP3    H262886   4.113   5.087  12.901  1.4225 -0.3049 -0.4143
13799TIP3   OH262887   5.648   3.517  12.413  0.3449  0.0511  0.4435
13799TIP3    H162888   5.721   3.462  12.442 -2.2178 -1.9800  3.3820
13799TIP3    H262889   5.617   3.560  12.492 -1.3831  1.2200 -0.8234
13800TIP3   OH262890   0.005   5.567  14.366  0.1155 -0.7079 -0.1459
13800TIP3    H162891   0.012   5.512  14.444  1.1430 -0.3917 -0.0047
13800TIP3    H262892  -0.027   5.651  14.399  0.9543 -0.4414  0.0048
13801TIP3   OH262893   4.335   0.051   4.836 -0.2392 -0.0711 -0.3696
13801TIP3    H162894   4.261   0.104   4.866  0.4583 -0.4345  2.0550
13801TIP3    H262895   4.368   0.008   4.915  2.5700  0.0873 -1.4035
13802TIP3   OH262896   3.143   4.528  11.986  0.1405 -0.4550  0.0723
13802TIP3    H162897   3.127   4.522  11.892 -0.0186 -2.5764  0.2033
13802TIP3    H262898   3.076   4.589  12.018 -1.2646 -1.4749 -0.8719
13803TIP3   OH262899   1.975   6.133  15.214 -0.2671 -0.3038 -0.1626
13803TIP3    H162900   1.961   6.065  15.279  1.5438 -0.5250  0.0120
13803TIP3    H262901   1.979   6.214  15.265 -2.5513 -0.0118 -0.3838
13804TIP3   OH262902   5.072   4.220  16.827  0.4228  0.5142 -0.7822
13804TIP3    H162903   5.052   4.251  16.916  2.0349 -0.9884  0.1220
13804TIP3    H262904   4.986   4.204  16.788 -0.3351  2.3894  0.0500
13805TIP3   OH262905   2.978   6.373   5.807 -0.0223  0.4111 -0.4142
13805TIP3    H162906   2.890   6.408   5.792 -0.0908  0.6566  0.5581
13805TIP3    H262907   2.982   6.358   5.901 -0.0046 -2.2397 -0.7912
13806TIP3   OH262908   3.728   4.621  11.852  0.2197 -0.3317  0.3220
13806TIP3    H162909   3.703   4.713  11.867  0.6756 -0.3137  0.9949
13806TIP3    H262910   3.664   4.571  11.902 -0.1508 -0.3880 -0.2092
13807TIP3   OH262911   4.216   5.845  17.289  0.5732  0.3135  0.0390
13807TIP3    H162912   4.176   5.882  17.368  1.8518  0.1512  0.7801
13807TIP3    H262913   4.159   5.873  17.218 -0.5609  0.5217  1.0117
13808TIP3   OH262914   3.774   1.519   1.748  0.2178 -0.3765  0.0726
13808TIP3    H162915   3.716   1.484   1.680  0.7584 -0.5586 -0.2984
13808TIP3    H262916   3.811   1.598   1.709  0.5510 -0.4969  0.1472
13809TIP3   OH262917   4.558   6.076   1.288  0.2293 -0.0987  0.2304
13809TIP3    H162918   4.614   6.047   1.216  1.2518  2.2195  0.0517
13809TIP3    H262919   4.501   6.143   1.250 -0.9801 -0.6695  0.9987
13810TIP3   OH262920   0.952   3.840  14.105 -0.0050  0.6223 -0.0598
13810TIP3    H162921   0.864   3.802  14.110  0.0103  0.0956 -3.1055
13810TIP3    H262922   0.937   3.932  14.084  0.1619  0.4703 -0.8670
13811TIP3   OH262923   5.973   5.200  15.383  0.3994  0.0714 -0.4129
13811TIP3    H162924   6.043   5.221  15.445 -0.6953  0.8777  0.5866
13811TIP3    H262925   5.944   5.285  15.350 -0.0822 -0.2515 -0.8310
13812TIP3   OH262926   4.637   1.757  16.649 -0.3858 -0.3186 -0.3364
13812TIP3    H162927   4.730   1.773  16.632 -0.6368  1.1406 -0.3735
13812TIP3    H262928   4.632   1.751  16.745 -0.3990  0.5423 -0.2810
13813TIP3   OH262929   5.616   5.018  14.653  0.2446  0.1147 -0.0489
13813TIP3    H162930   5.561   4.992  14.580  0.5699 -1.8422  0.3698
13813TIP3    H262931   5.575   4.979  14.730  1.2260  0.1141  0.4889
13814TIP3   OH262932   2.217   0.457   3.633 -0.4535  0.3838 -0.0937
13814TIP3    H162933   2.251   0.433   3.547  1.8732  0.4257  0.7669
13814TIP3    H262934   2.199   0.373   3.676  2.4496  0.2022  0.8958
13815TIP3   OH262935   1.442   5.647   1.930  0.4037  0.5539  0.4652
13815TIP3    H162936   1.450   5.719   1.868  0.1857  1.9450  2.0187
13815TIP3    H262937   1.389   5.682   2.002  1.0344 -0.8650  1.6561
13816TIP3   OH262938   5.579   5.331   0.777 -0.2934  0.8079 -0.0563
13816TIP3    H162939   5.550   5.241   0.787 -1.1497  1.0128 -0.6772
13816TIP3    H262940   5.619   5.354   0.861  0.9295 -0.5091 -0.2600
13817TIP3   OH262941   6.377   6.796   5.279  0.1720  0.1011 -0.5543
13817TIP3    H162942   6.285   6.820   5.270 -0.0466 -0.5773 -0.2198
13817TIP3    H262943   6.424   6.879   5.286 -0.1865  0.5364 -2.7887
13818TIP3   OH262944   4.441   3.322  14.223 -0.3802 -0.5784 -0.1474
13818TIP3    H162945   4.462   3.284  14.137  1.2789 -1.4768  0.6266
13818TIP3    H262946   4.480   3.261  14.286 -2.9341 -0.7588  1.3027
13819TIP3   OH262947   6.067   4.844  14.255  0.1829  0.2599 -0.5934
13819TIP3    H162948   6.120   4.826  14.177 -1.4441 -1.1722 -1.4100
13819TIP3    H262949   5.986   4.882  14.221 -0.5021 -0.2818  0.3972
13820TIP3   OH262950   6.171   2.538   4.981 -0.5785  0.0279  0.1366
13820TIP3    H162951   6.107   2.588   4.930 -1.5220 -1.5847 -0.2761
13820TIP3    H262952   6.119   2.472   5.027  0.3371  0.9758  2.6224
13821TIP3   OH262953   0.854   5.931   1.330 -0.4739  0.4754  0.0407
13821TIP3    H162954   0.789   5.982   1.379 -0.8782  2.0048 -2.0246
13821TIP3    H262955   0.807   5.899   1.254  0.1113 -2.0227  0.6949
13822TIP3   OH262956   2.513   5.786  11.023 -0.2370  0.1943 -0.2319
13822TIP3    H162957   2.519   5.814  11.114 -0.3752  0.3056 -0.2564
13822TIP3    H262958   2.454   5.710  11.025 -0.6073  0.4825 -0.2927
13823TIP3   OH262959   0.014   0.704   2.689  0.1185  0.2161  0.0916
13823TIP3    H162960   0.072   0.746   2.626  2.6067  1.1250  2.8656
13823TIP3    H262961  -0.061   0.763   2.695  1.3192  1.7401  0.3021
13824TIP3   OH262962   0.883   0.385   0.645  0.3021 -0.2260 -0.2658
13824TIP3    H162963   0.867   0.360   0.736  2.0967  2.4613  0.8597
13824TIP3    H262964   0.974   0.358   0.629 -0.7501 -2.8785 -2.0973
13825TIP3   OH262965   6.216   6.214  15.647  0.2274  0.3631  0.0875
13825TIP3    H162966   6.234   6.140  15.705  2.0368 -1.1680 -2.3229
13825TIP3    H262967   6.302   6.254  15.631 -0.3889  1.3979 -0.7030
13826TIP3   OH262968   2.258   3.894  15.398 -0.3173  0.4058 -0.3047
13826TIP3    H162969   2.315   3.928  15.467 -0.5157  0.0004  0.0580
13826TIP3    H262970   2.246   3.801  15.420 -0.6914  0.3657 -0.6708
13827TIP3   OH262971   1.181   4.213   3.965  0.4957 -0.5187 -0.4713
13827TIP3    H162972   1.250   4.171   3.914 -0.1410 -2.0889 -0.0659
13827TIP3    H262973   1.108   4.221   3.903  0.1498 -1.2897 -0.1769
13828TIP3   OH262974   1.981   2.116   4.401 -0.0926  0.4669  0.2100
13828TIP3    H162975   2.049   2.155   4.346 -0.4485 -0.0795 -0.6186
13828TIP3    H262976   2.027   2.048   4.451 -0.1726 -0.4106 -0.8945
13829TIP3   OH262977   2.764   5.079  13.982  0.5271 -0.0668 -0.2743
13829TIP3    H162978   2.764   5.092  13.887  0.1389 -0.5165 -0.3386
13829TIP3    H262979   2.852   5.045  14.001 -0.0815 -1.9785 -0.7647
13830TIP3   OH262980   1.544   4.475  14.767  0.4444 -0.3046 -0.3270
13830TIP3    H162981   1.574   4.454  14.855  1.7269  4.1380  0.3844
13830TIP3    H262982   1.613   4.440  14.710  1.8706  0.7615  0.7079
13831TIP3   OH262983   1.601   4.260   4.946 -0.4772 -0.2184 -0.2793
13831TIP3    H162984   1.645   4.177   4.962 -0.9447  0.2452  4.0660
13831TIP3    H262985   1.652   4.302   4.877  5.2235 -0.2933  3.5605
13832TIP3   OH262986   3.599   1.312  13.104 -0.2913  0.4484 -0.0875
13832TIP3    H162987   3.591   1.375  13.175 -0.9690 -0.9629  1.1257
13832TIP3    H262988   3.514   1.268  13.100 -0.0093 -0.0353 -1.2472
13833TIP3   OH262989   1.169   4.728  12.350 -0.3071  0.1237  0.3918
13833TIP3    H162990   1.196   4.651  12.400  0.1944 -0.3440 -0.5778
13833TIP3    H262991   1.087   4.756  12.390 -0.6535 -1.1073  0.5620
13834TIP3   OH262992   3.038   1.495   2.417  0.6713  0.3870 -0.4625
13834TIP3    H162993   3.093   1.483   2.340  1.3911 -0.5868  0.1800
13834TIP3    H262994   3.100   1.505   2.489  0.0099  1.9747 -0.0938
13835TIP3   OH262995   4.677   6.471   3.420  0.0594  0.3493  0.3414
13835TIP3    H162996   4.671   6.434   3.332  0.1544 -1.8627  1.2181
13835TIP3    H262997   4.731   6.549   3.410 -0.9887  0.8318 -1.7580
13836TIP3   OH262998   2.571   2.726  13.141  0.7402 -0.2691 -0.5365
13836TIP3    H162999   2.627   2.745  13.065  0.8265 -1.4873 -0.7986
13836TIP3    H263000   2.534   2.810  13.165  1.5225  0.3090 -1.2974
13837TIP3   OH263001   2.627   3.519   6.294 -0.5402  0.3384 -0.4825
13837TIP3    H163002   2.713   3.479   6.308 -1.1559 -2.2094 -3.3744
13837TIP3    H263003   2.641   3.612   6.311  2.5149 -0.1792  0.1657
13838TIP3   OH263004   5.419   1.843  14.807  0.5120  0.0058  0.2776
13838TIP3    H163005   5.401   1.754  14.835 -1.3327  0.8740  2.0224
13838TIP3    H263006   5.422   1.894  14.888 -1.2857  1.9843 -0.8203
13839TIP3   OH263007   0.244   0.723  12.576 -0.1348 -0.4185 -0.0501
13839TIP3    H163008   0.263   0.675  12.657 -0.6751 -1.5956 -0.6046
13839TIP3    H263009   0.319   0.781  12.564 -0.8034  0.9182  2.1348
13840TIP3   OH263010   4.160   3.726  13.705 -0.0082 -0.3840 -0.4143
13840TIP3    H163011   4.122   3.697  13.622  1.5063 -0.6710 -1.0241
13840TIP3    H263012   4.155   3.649  13.761 -3.8084  0.6470  0.8086
13841TIP3   OH263013   6.668   1.989  14.799  1.1151 -0.4468 -1.1191
13841TIP3    H163014   6.594   1.938  14.831  1.5049 -0.7644 -0.7213
13841TIP3    H263015   6.669   2.067  14.856 -0.1062  0.5166 -2.3801
13842TIP3   OH263016   4.249   3.766  14.423 -0.2492  0.1626 -0.1166
13842TIP3    H163017   4.287   3.850  14.450 -2.6952  1.2549  0.1129
13842TIP3    H263018   4.158   3.771  14.452 -0.8033 -2.0118 -1.3743
13843TIP3   OH263019   3.914   5.630   3.441  0.2558  0.3900 -0.2400
13843TIP3    H163020   3.866   5.711   3.427  0.7243  0.5885 -0.6958
13843TIP3    H263021   4.006   5.655   3.437  0.4035 -0.2153 -0.7101
13844TIP3   OH263022   4.727   1.502   0.979 -0.1542 -0.1612  0.4686
13844TIP3    H163023   4.746   1.417   1.019  0.8352  0.5172  1.4797
13844TIP3    H263024   4.649   1.533   1.026 -1.8600 -1.4433 -1.3868
13845TIP3   OH263025   5.095   4.952  14.316  0.2770  0.1824  0.3928
13845TIP3    H163026   5.131   4.921  14.400  0.2631  0.9455  0.6865
13845TIP3    H263027   5.149   4.909  14.250  0.0934 -0.6681  0.7804
13846TIP3   OH263028   0.632   2.222   0.054 -0.4527  0.5091  0.0460
13846TIP3    H163029   0.703   2.283   0.071 -1.1007  1.7776 -1.6972
13846TIP3    H263030   0.660   2.172  -0.022 -1.2427  0.7452 -0.4078
13847TIP3   OH263031   0.380   6.506  11.178  0.1564  0.3037 -0.5132
13847TIP3    H163032   0.374   6.585  11.124  0.7983 -1.6271 -3.5259
13847TIP3    H263033   0.468   6.472  11.161  1.2518  0.7957  3.5460
13848TIP3   OH263034   1.159   5.051  12.383  0.5316 -0.1757  0.6514
13848TIP3    H163035   1.191   5.128  12.336 -0.3070 -0.2104  0.0054
13848TIP3    H263036   1.148   4.984  12.315  0.0811 -0.4834  1.0198
13849TIP3   OH263037   3.459   2.577   5.666  0.7156  0.2688 -0.2258
13849TIP3    H163038   3.447   2.495   5.617 -0.3968  0.2601  0.0449
13849TIP3    H263039   3.537   2.561   5.720  0.3232 -0.7417  0.0635
13850TIP3   OH263040   4.804   1.951   2.739  0.0661  0.1322 -0.3148
13850TIP3    H163041   4.737   2.004   2.696 -0.3462 -1.7412 -2.0903
13850TIP3    H263042   4.884   1.967   2.690 -0.0640 -0.8670 -0.8722
13851TIP3   OH263043   3.967   1.945   3.446 -0.0948  0.5707  0.1348
13851TIP3    H163044   3.882   1.937   3.401 -1.2175  0.3920  2.2274
13851TIP3    H263045   3.974   2.039   3.465 -0.4837  0.3873  1.1962
13852TIP3   OH263046   5.123   4.756   4.016  0.0169 -0.1132 -0.4157
13852TIP3    H163047   5.061   4.818   3.978  0.3222 -0.6135 -1.7296
13852TIP3    H263048   5.161   4.710   3.941  2.1872  0.3820  0.3363
13853TIP3   OH263049   1.322   5.345   1.453 -0.4413 -0.2601 -0.3968
13853TIP3    H163050   1.336   5.257   1.420  0.9729 -0.0463 -0.4014
13853TIP3    H263051   1.328   5.337   1.548 -1.3565 -0.3423 -0.3435
13854TIP3   OH263052   5.667   2.130  15.336 -0.0926  0.1859 -0.2801
13854TIP3    H163053   5.739   2.182  15.372  1.6773 -1.9246 -0.6556
13854TIP3    H263054   5.643   2.175  15.255  0.9518  0.7892 -0.2610
13855TIP3   OH263055   5.709   4.638  12.701  0.3202  0.1095  0.0836
13855TIP3    H163056   5.778   4.638  12.767  0.6944 -0.1803 -0.3094
13855TIP3    H263057   5.701   4.547  12.673 -1.1405 -0.0949  1.0742
13856TIP3   OH263058   4.195   2.708  12.101  0.3599 -0.2108  0.0763
13856TIP3    H163059   4.258   2.758  12.050 -0.2135 -0.0684 -0.5004
13856TIP3    H263060   4.134   2.774  12.135 -2.7548 -0.7983 -3.9503
13857TIP3   OH263061   1.465   4.634  11.192 -0.3031 -0.1099  0.6093
13857TIP3    H163062   1.377   4.665  11.214  0.6625  2.1052  1.4637
13857TIP3    H263063   1.498   4.697  11.128  0.8490 -0.6473  0.6640
13858TIP3   OH263064   2.936   3.755  13.128 -0.1616 -0.4931  0.2114
13858TIP3    H163065   2.987   3.792  13.200 -1.0001  0.3571  0.3641
13858TIP3    H263066   3.000   3.704  13.078  1.1801  1.7964 -0.4716
13859TIP3   OH263067   5.061   1.297   5.270 -0.2084  0.5170 -0.5296
13859TIP3    H163068   5.058   1.310   5.365  0.2842  3.6532 -0.8899
13859TIP3    H263069   5.136   1.348   5.241 -1.5506  1.2669 -2.8390
13860TIP3   OH263070   0.148   2.242   1.445  0.1507  0.1249  0.2555
13860TIP3    H163071   0.117   2.303   1.512 -1.0036  0.2494 -0.3722
13860TIP3    H263072   0.135   2.289   1.363  0.5171 -0.4563 -0.1362
13861TIP3   OH263073   6.036   6.511  15.076  0.0737 -0.1982 -0.1406
13861TIP3    H163074   6.045   6.443  15.142  2.1417  0.5052  0.3368
13861TIP3    H263075   6.122   6.553  15.072 -0.9611  1.9593 -0.8891
13862TIP3   OH263076   1.903   1.497   5.251  0.0515  0.2639 -0.6188
13862TIP3    H163077   1.855   1.550   5.315  2.1511 -0.3225  1.5090
13862TIP3    H263078   1.995   1.520   5.265  0.5631 -0.0906 -3.2641
13863TIP3   OH263079   2.516   5.104  15.933  0.6573 -0.6961 -0.6319
13863TIP3    H163080   2.435   5.058  15.911 -0.4268  1.2216 -0.7254
13863TIP3    H263081   2.517   5.106  16.029  1.6863 -2.5728 -0.5746
13864TIP3   OH263082   6.551   2.054  17.130 -0.1512 -0.6131  0.1118
13864TIP3    H163083   6.527   2.051  17.223  0.8650 -3.9028  0.3704
13864TIP3    H263084   6.532   2.143  17.102  1.1396  0.9746  3.9413
13865TIP3   OH263085   4.994   2.614  17.177 -0.6907  0.3274 -0.9183
13865TIP3    H163086   4.947   2.533  17.194  1.7966 -1.3428 -1.6514
13865TIP3    H263087   4.990   2.662  17.259 -0.1278 -1.6638  0.3064
13866TIP3   OH263088   3.708   5.220  10.816  0.1677 -0.5831 -0.3470
13866TIP3    H163089   3.768   5.250  10.749 -0.1453  0.2729 -0.2515
13866TIP3    H263090   3.674   5.137  10.783  0.2528 -0.3205 -1.0924
13867TIP3   OH263091   2.624   3.840   4.567 -0.2190  0.2316  0.6838
13867TIP3    H163092   2.530   3.856   4.572 -0.4238 -0.9138  0.6362
13867TIP3    H263093   2.638   3.802   4.480 -0.3689 -3.6730  2.2675
13868TIP3   OH263094   1.633   5.666  11.950  0.0834  0.2650 -0.0661
13868TIP3    H163095   1.579   5.693  12.025  0.4679 -0.2855  0.4223
13868TIP3    H263096   1.649   5.572  11.965  1.4088  0.4870 -0.0429
13869TIP3   OH263097   3.028   5.536   4.700 -0.1029 -0.1659  0.0434
13869TIP3    H163098   3.034   5.508   4.791  1.0170  0.9667  0.3379
13869TIP3    H263099   2.934   5.544   4.683 -0.2946  0.3215  1.3220
13870TIP3   OH263100   5.335   3.073   5.879 -0.4046 -0.6552  0.5522
13870TIP3    H163101   5.294   2.997   5.922 -0.6659 -1.2587 -0.7363
13870TIP3    H263102   5.273   3.098   5.811  0.3564 -0.1796  0.0286
13871TIP3   OH263103   0.840   0.928   0.939  0.1909 -0.1334 -0.3472
13871TIP3    H163104   0.764   0.915   0.881 -0.6718 -0.1839  0.7809
13871TIP3    H263105   0.833   0.858   1.003  0.4389  0.6740  0.5636
13872TIP3   OH263106   3.075   6.235   1.326  0.6299  0.4766 -0.1419
13872TIP3    H163107   2.988   6.268   1.351 -0.3734 -0.6166 -2.0465
13872TIP3    H263108   3.111   6.304   1.271  0.0673  0.0253 -1.0911
13873TIP3   OH263109   1.468   6.505   5.576  0.2452 -0.2679 -0.4728
13873TIP3    H163110   1.405   6.565   5.617  0.8111  1.2122 -1.7419
13873TIP3    H263111   1.440   6.418   5.605 -0.7576  0.5771  1.1710
13874TIP3   OH263112   2.261   6.173   1.590 -0.2423 -0.0824 -0.1426
13874TIP3    H163113   2.267   6.141   1.680 -1.0472  0.4273  0.0991
13874TIP3    H263114   2.215   6.103   1.543 -1.0905  0.2616  0.1621
13875TIP3   OH263115   5.881   5.810  13.622 -0.6267  0.1438 -0.4194
13875TIP3    H163116   5.881   5.727  13.669 -1.5022  1.3542  1.7616
13875TIP3    H263117   5.791   5.820  13.590 -0.0527 -0.6504 -2.3746
13876TIP3   OH263118   3.706   6.554  12.616  0.1338 -0.4362  0.5780
13876TIP3    H163119   3.740   6.527  12.531 -0.7558 -1.7458  0.6124
13876TIP3    H263120   3.615   6.576  12.600 -0.0535 -0.7362  1.1939
13877TIP3   OH263121   0.260   6.573  12.810 -0.0025  0.0430  0.5808
13877TIP3    H163122   0.188   6.626  12.776  0.5375 -0.2056 -0.9697
13877TIP3    H263123   0.325   6.637  12.840 -0.2938  0.2631  0.7402
13878TIP3   OH263124   0.958   6.023  14.564  0.0580 -0.8886  0.4003
13878TIP3    H163125   1.044   6.052  14.597 -0.9641  1.9665  0.7530
13878TIP3    H263126   0.913   5.989  14.641 -0.8586  2.1052  1.2633
13879TIP3   OH263127   4.147   1.909  12.588  0.1694  0.9013 -0.0341
13879TIP3    H163128   4.182   1.852  12.656 -0.6320 -0.9576 -1.1469
13879TIP3    H263129   4.219   1.918  12.525 -0.4521 -0.7725 -1.0039
13880TIP3   OH263130   4.940   4.584   4.114  0.3828 -0.1862 -0.7636
13880TIP3    H163131   4.988   4.636   4.049  0.3533  0.2157 -0.4715
13880TIP3    H263132   4.965   4.624   4.198 -0.9067  0.3965 -0.6509
13881TIP3   OH263133   1.149   3.710   5.981 -0.3585  0.4406  0.2685
13881TIP3    H163134   1.166   3.802   5.963  1.7673  0.4810  2.3110
13881TIP3    H263135   1.054   3.703   5.982 -0.5394  2.3240 -1.2407
13882TIP3   OH263136   5.590   2.257  16.874  0.5354  0.1707  0.0914
13882TIP3    H163137   5.519   2.221  16.928 -0.6677  2.1379 -0.1246
13882TIP3    H263138   5.659   2.278  16.936 -0.0352  0.5024  0.6212
13883TIP3   OH263139   5.604   2.153  11.077 -0.1747 -0.1768 -0.1482
13883TIP3    H163140   5.590   2.063  11.105  0.5184 -0.6841 -1.4027
13883TIP3    H263141   5.699   2.161  11.067 -0.0078  1.3641  2.1383
13884TIP3   OH263142   1.968   0.050  16.889  0.4383  0.1986 -0.1038
13884TIP3    H163143   2.032  -0.020  16.901 -2.1066 -2.3240 -0.5163
13884TIP3    H263144   1.910   0.043  16.965 -0.0842  1.6307 -0.3420
13885TIP3   OH263145   6.254   3.539  15.989 -0.1523  0.3875 -0.2994
13885TIP3    H163146   6.273   3.532  15.895 -2.5314  2.2878 -0.9725
13885TIP3    H263147   6.188   3.472  16.005  0.6878 -0.3364  0.1570
13886TIP3   OH263148   6.436   3.820  16.198 -0.1339 -0.4699  0.2441
13886TIP3    H163149   6.401   3.906  16.223 -0.3070 -0.8760  1.4434
13886TIP3    H263150   6.498   3.798  16.268  2.2878  0.0784 -1.6783
13887TIP3   OH263151   3.906   4.137  15.457  0.1809 -0.1670  0.3628
13887TIP3    H163152   3.870   4.176  15.377  0.0712  2.4912  1.6493
13887TIP3    H263153   3.836   4.080  15.490 -1.3465  1.8383  0.6797
13888TIP3   OH263154   2.373   4.283   5.500  0.1545  0.3711 -0.5246
13888TIP3    H163155   2.463   4.260   5.479  0.1104 -0.4227  0.1204
13888TIP3    H263156   2.375   4.377   5.518  1.2915 -0.0579  1.7546
13889TIP3   OH263157   6.283   4.218   0.134  0.0388  0.3138 -0.1134
13889TIP3    H163158   6.213   4.278   0.162  0.4298  0.5922  0.2799
13889TIP3    H263159   6.363   4.269   0.143  0.4216 -0.3992  0.6326
13890TIP3   OH263160   1.486   3.192  11.431 -0.3268 -0.5469  0.0738
13890TIP3    H163161   1.465   3.099  11.436  0.4118 -0.8131 -1.5159
13890TIP3    H263162   1.424   3.227  11.367 -0.7049  0.0908  0.7840
13891TIP3   OH263163   6.564   5.391   4.044 -0.2950 -0.6418 -0.2268
13891TIP3    H163164   6.510   5.342   4.107 -1.2502  0.4374 -0.1795
13891TIP3    H263165   6.501   5.427   3.982  0.7188 -2.3557 -2.2914
13892TIP3   OH263166   4.051   2.743   0.530  0.3040 -0.3183  0.2783
13892TIP3    H163167   4.007   2.720   0.612  0.8518  1.0278  0.9506
13892TIP3    H263168   3.985   2.725   0.462 -0.9341  0.6903  1.1936
13893TIP3   OH263169   0.117   6.727  16.940 -0.4916 -0.3592  0.1407
13893TIP3    H163170   0.148   6.786  16.871  1.0720 -1.5228 -0.1727
13893TIP3    H263171   0.139   6.639  16.909 -4.1956 -1.2988 -0.1242
13894TIP3   OH263172   4.810   1.919  15.717 -0.0853  0.1302  0.1303
13894TIP3    H163173   4.717   1.901  15.702 -0.0784 -1.8258  2.1513
13894TIP3    H263174   4.810   1.990  15.782 -0.1641  0.2007  0.0534
13895TIP3   OH263175   3.345   1.003   0.429 -0.0548 -0.7396 -0.0158
13895TIP3    H163176   3.251   0.982   0.426 -0.3404  0.1293  1.8667
13895TIP3    H263177   3.372   0.978   0.517  0.5184  2.7631  0.8938
13896TIP3   OH263178   6.791   2.889   4.411 -0.1413  0.9410 -0.2875
13896TIP3    H163179   6.838   2.805   4.404  1.1165  1.5333  0.7810
13896TIP3    H263180   6.852   2.954   4.377 -1.4424  1.3492 -1.9145
13897TIP3   OH263181   3.606   4.292   6.434 -0.0059 -0.0064  0.0022
13897TIP3    H163182   3.561   4.227   6.487 -0.2089 -0.5717 -0.8405
13897TIP3    H263183   3.699   4.276   6.450 -0.0896  0.6892  1.1925
13898TIP3   OH263184   5.870   1.949  12.116  0.0008  0.3187 -0.0761
13898TIP3    H163185   5.881   1.862  12.153 -1.1625  0.7828  1.4077
13898TIP3    H263186   5.957   1.989  12.122 -0.1958  0.4425  2.3540
13899TIP3   OH263187   1.871   3.571  16.501  0.4128 -0.1461 -0.3480
13899TIP3    H163188   1.957   3.613  16.508  0.7292 -0.4490 -2.2284
13899TIP3    H263189   1.846   3.553  16.591  1.8295  0.9507  0.2845
13900TIP3   OH263190   2.385   5.993  15.788 -0.0646 -0.5274  0.4065
13900TIP3    H163191   2.329   6.055  15.742  0.1767 -0.0643  0.7328
13900TIP3    H263192   2.326   5.922  15.815 -0.7499  0.5725  1.8722
13901TIP3   OH263193   5.123   2.648   6.217  0.0112 -0.1319  0.4594
13901TIP3    H163194   5.038   2.638   6.176 -0.0796 -0.0633  0.6291
13901TIP3    H263195   5.104   2.649   6.311  0.2404 -0.5043  0.5090
13902TIP3   OH263196   4.719   2.704  13.138 -0.3321  0.4873  0.2419
13902TIP3    H163197   4.794   2.647  13.153  1.1633  2.4928  0.4816
13902TIP3    H263198   4.673   2.663  13.064 -0.3438 -2.0438  1.5981
13903TIP3   OH263199   2.238   4.459  12.732  0.2228  0.2890 -0.6965
13903TIP3    H163200   2.145   4.437  12.746  0.5391 -0.2239  0.7612
13903TIP3    H263201   2.238   4.552  12.712 -0.5055  0.6395  0.8225
13904TIP3   OH263202   1.794   3.669  13.815  0.1546  0.2579  0.3920
13904TIP3    H163203   1.876   3.701  13.778 -0.9540  1.8555 -0.7201
13904TIP3    H263204   1.791   3.577  13.789  0.1946  0.9357 -2.1184
13905TIP3   OH263205   4.749   5.428  12.859  0.7791  0.5824  0.2252
13905TIP3    H163206   4.737   5.401  12.768  2.2268 -0.6189  0.3646
13905TIP3    H263207   4.785   5.517  12.853  1.3161  0.3308 -0.4007
13906TIP3   OH263208   1.036   5.698   0.055 -0.1815  0.0509 -0.2589
13906TIP3    H163209   0.991   5.635  -0.002 -0.0291  0.2760 -0.6254
13906TIP3    H263210   1.037   5.655   0.141  0.3674 -0.6680 -0.6230
13907TIP3   OH263211   4.973   4.073   0.672  0.3675  0.6628 -0.1376
13907TIP3    H163212   4.995   4.036   0.757 -0.9888  1.5969  0.6303
13907TIP3    H263213   4.881   4.097   0.679 -0.0670 -0.2825 -2.2442
13908TIP3   OH263214   1.801   2.174   5.349 -0.2682  0.4302 -0.5613
13908TIP3    H163215   1.792   2.251   5.293 -1.3641  0.3665 -0.4833
13908TIP3    H263216   1.846   2.207   5.427  1.7566  0.4050 -1.6722
13909TIP3   OH263217   5.392   1.765  16.195 -0.3008 -0.2351 -0.0019
13909TIP3    H163218   5.487   1.773  16.196 -0.3939  1.1933  1.9992
13909TIP3    H263219   5.373   1.690  16.252 -0.4295  0.5084  0.9430
13910TIP3   OH263220   4.207   1.127   2.494  0.1499  0.4182  0.1318
13910TIP3    H163221   4.131   1.177   2.463 -1.0217 -0.4916  1.4408
13910TIP3    H263222   4.229   1.069   2.422  0.9966  2.2044 -1.0849
13911TIP3   OH263223   2.189   6.627   3.465  0.1208  0.4798  0.4739
13911TIP3    H163224   2.132   6.647   3.539 -0.6631  2.0967 -0.5331
13911TIP3    H263225   2.276   6.657   3.493  0.7405 -2.8021  2.3608
13912TIP3   OH263226   0.973   2.442   6.772 -0.3894 -0.1229 -0.4091
13912TIP3    H163227   0.981   2.527   6.729  2.3769 -0.5719 -0.8702
13912TIP3    H263228   0.956   2.380   6.700 -2.7120  0.0453 -0.0417
13913TIP3   OH263229   5.348   0.802  16.434  0.1245  0.2367  0.3295
13913TIP3    H163230   5.363   0.780  16.526  1.4410 -0.7301 -0.0847
13913TIP3    H263231   5.262   0.844  16.433 -0.4680 -0.8536  1.8329
13914TIP3   OH263232   4.585   3.427  11.384 -0.0625 -0.0124 -0.1884
13914TIP3    H163233   4.651   3.471  11.331 -0.8115 -0.5330 -1.5859
13914TIP3    H263234   4.555   3.495  11.445 -0.2659  1.0624 -1.4474
13915TIP3   OH263235   4.465   3.635   6.530  0.0214  0.7826  0.0306
13915TIP3    H163236   4.529   3.582   6.578 -0.7087  1.8236  2.2376
13915TIP3    H263237   4.400   3.571   6.499  0.2108  0.1295  0.9462
13916TIP3   OH263238   0.571   3.733  16.629  0.1456 -0.0259 -0.3280
13916TIP3    H163239   0.593   3.793  16.701 -3.8414 -1.3744  2.2164
13916TIP3    H263240   0.512   3.784  16.573  1.0544  0.1407 -1.1368
13917TIP3   OH263241   2.985   3.203  13.498 -0.2918 -0.0737  0.1386
13917TIP3    H163242   2.916   3.252  13.452  1.1249  1.7114 -0.1655
13917TIP3    H263243   2.990   3.244  13.585 -1.1773 -1.7150  0.9796
13918TIP3   OH263244   4.347   6.755  14.990  0.5269 -0.2237 -0.2792
13918TIP3    H163245   4.305   6.770  15.075  0.3259 -1.1785 -0.2048
13918TIP3    H263246   4.293   6.805  14.928 -0.1681 -0.6845 -0.0486
13919TIP3   OH263247   0.142   2.967  11.569  0.4253 -0.3041  0.5426
13919TIP3    H163248   0.116   3.056  11.545  2.0786 -0.3115 -1.3947
13919TIP3    H263249   0.169   2.974  11.660 -2.8256  0.4227  1.5184
13920TIP3   OH263250   4.791   6.194   1.737 -0.1752 -0.7142 -0.1322
13920TIP3    H163251   4.879   6.232   1.729 -0.5629 -0.1173 -1.8009
13920TIP3    H263252   4.798   6.130   1.807  1.8008 -1.2706 -0.8275
13921TIP3   OH263253   4.919   5.562   2.752 -0.5715 -0.1506 -0.3231
13921TIP3    H163254   4.940   5.653   2.733 -0.6074 -0.1892 -0.5580
13921TIP3    H263255   4.830   5.564   2.789 -0.2940 -0.0223  0.3293
13922TIP3   OH263256   4.787   5.656  12.041  0.1074  0.0723 -0.4735
13922TIP3    H163257   4.806   5.653  12.134 -1.6814 -0.2087 -0.1016
13922TIP3    H263258   4.746   5.742  12.027 -2.9434 -1.2811 -0.3024
13923TIP3   OH263259   0.541   0.590  11.452  0.4713 -0.4400  0.7020
13923TIP3    H163260   0.581   0.606  11.367 -0.6529 -1.1299  0.0347
13923TIP3    H263261   0.609   0.547  11.504  1.0100 -0.4304  0.0007
13924TIP3   OH263262   4.088   3.443   5.756 -0.2762 -0.4545  0.7186
13924TIP3    H163263   4.004   3.484   5.775 -0.5031  0.4866 -2.1419
13924TIP3    H263264   4.069   3.380   5.687  1.4763  0.2436 -0.4283
13925TIP3   OH263265   5.564   4.204  16.752  0.1244  0.3227  0.8477
13925TIP3    H163266   5.605   4.282  16.789  0.1294  0.1182  1.2850
13925TIP3    H263267   5.594   4.133  16.808 -0.6199  0.1348  1.0232
13926TIP3   OH263268   0.576   3.953  16.801  0.1536 -0.1348 -0.5845
13926TIP3    H163269   0.569   4.043  16.769  1.8621  0.0400 -0.5522
13926TIP3    H263270   0.494   3.937  16.847 -0.6482  1.0025 -1.5931
13927TIP3   OH263271   0.810   3.756   1.320  0.2464 -0.6662 -0.0623
13927TIP3    H163272   0.800   3.850   1.335  1.7502 -0.3858 -0.7212
13927TIP3    H263273   0.722   3.725   1.298 -0.0479  0.7724 -0.9175
13928TIP3   OH263274   2.485   4.189   6.617  0.2062 -0.2673  0.0549
13928TIP3    H163275   2.445   4.237   6.545  0.3317 -1.8916 -1.1530
13928TIP3    H263276   2.425   4.117   6.634  0.5080 -0.2720  1.1311
13929TIP3   OH263277   0.971   0.151  14.420 -0.0939  0.4063  0.2855
13929TIP3    H163278   0.880   0.132  14.399  0.2256 -0.6231 -0.1690
13929TIP3    H263279   0.970   0.243  14.449 -1.2484  0.4313  0.1845
13930TIP3   OH263280   5.188   1.243  12.222 -0.1303  0.6562 -0.3248
13930TIP3    H163281   5.204   1.236  12.316  0.1669  0.5281 -0.3854
13930TIP3    H263282   5.272   1.269  12.185  0.1356 -0.7221 -0.7315
13931TIP3   OH263283   5.984   6.640   1.825  0.7555  0.0731 -0.3898
13931TIP3    H163284   5.947   6.728   1.837 -1.9577 -0.6755 -2.8089
13931TIP3    H263285   6.043   6.648   1.750  0.9178 -0.0599 -0.2772
13932TIP3   OH263286   3.248   6.107  11.549 -0.4115 -0.2880  0.5101
13932TIP3    H163287   3.260   6.013  11.560  0.9438 -0.2848 -0.7804
13932TIP3    H263288   3.175   6.115  11.488  0.2440 -0.5532 -0.3312
13933TIP3   OH263289   3.479   3.222  14.829 -0.0888 -0.6019 -0.5225
13933TIP3    H163290   3.430   3.140  14.815 -0.0859 -0.6036 -0.5221
13933TIP3    H263291   3.544   3.223  14.759  1.7519 -1.9859  1.1241
13934TIP3   OH263292   0.413   5.534   5.388  0.3641  0.1478 -0.6556
13934TIP3    H163293   0.368   5.593   5.448  1.6310  1.6225 -1.1443
13934TIP3    H263294   0.342   5.483   5.348 -0.5054 -0.6779  1.8592
13935TIP3   OH263295   6.176   0.591   2.546  0.5001  0.0823 -0.2108
13935TIP3    H163296   6.239   0.564   2.613 -0.5219 -0.1833  0.6697
13935TIP3    H263297   6.198   0.682   2.527  1.2890 -0.0811 -0.0834
13936TIP3   OH263298   4.143   5.133  13.084 -0.2628 -0.0785  0.3268
13936TIP3    H163299   4.223   5.101  13.126 -0.4525  0.4602  1.1157
13936TIP3    H263300   4.154   5.229  13.083  0.1410 -0.1318 -1.6748
13937TIP3   OH263301   2.546   5.287   0.206 -0.1225 -0.5257 -0.0759
13937TIP3    H163302   2.504   5.203   0.188 -0.3290 -0.7019  1.1572
13937TIP3    H263303   2.478   5.352   0.191 -0.2293 -0.6514 -0.1364
13938TIP3   OH263304   3.755   1.029  12.150 -0.2684 -0.2507  0.1012
13938TIP3    H163305   3.793   0.980  12.078  0.4060 -2.1061  1.6629
13938TIP3    H263306   3.818   1.098  12.168 -0.4745  0.2621 -1.1213
13939TIP3   OH263307   0.763   6.632   2.232 -0.2145 -0.0874 -0.3971
13939TIP3    H163308   0.733   6.600   2.317  0.1859  1.2590  0.2569
13939TIP3    H263309   0.699   6.699   2.208 -1.0559 -1.3467 -1.7664
13940TIP3   OH263310   4.988   1.370   2.623 -0.0062 -0.2262 -0.0046
13940TIP3    H163311   4.927   1.297   2.633 -1.4644  1.0880  0.8944
13940TIP3    H263312   5.038   1.349   2.544 -2.4874 -0.7200 -1.4770
13941TIP3   OH263313   3.921   2.617  16.309  0.4679 -0.1292 -0.0613
13941TIP3    H163314   3.979   2.569  16.250 -0.1003  0.6756 -1.3017
13941TIP3    H263315   3.923   2.567  16.391 -0.7694 -2.7198 -1.5621
13942TIP3   OH263316   3.850   2.298   4.220 -0.2045 -0.2932 -0.3694
13942TIP3    H163317   3.890   2.253   4.294  1.9137  1.2634 -0.5180
13942TIP3    H263318   3.922   2.307   4.156 -1.3479  0.6356 -1.5555
13943TIP3   OH263319   6.394   1.865   1.927  0.0417  0.0050  0.4590
13943TIP3    H163320   6.379   1.844   1.835 -0.5577  1.6266  0.1746
13943TIP3    H263321   6.335   1.807   1.975  0.6855 -1.1728 -0.1287
13944TIP3   OH263322   2.423   2.485   0.373  0.7261  0.5985 -0.0907
13944TIP3    H163323   2.446   2.564   0.423 -0.1742  0.8188 -0.0262
13944TIP3    H263324   2.359   2.440   0.428  0.4728  0.3451 -0.5974
13945TIP3   OH263325   3.179   0.796  11.253 -0.0246 -0.2484  0.4243
13945TIP3    H163326   3.170   0.890  11.240  1.3446  0.1950  2.3775
13945TIP3    H263327   3.250   0.770  11.194 -0.7876 -0.1670 -0.5328
13946TIP3   OH263328   6.159   0.213  13.693  0.0851  0.1917  0.1615
13946TIP3    H163329   6.189   0.225  13.603  1.4563  1.0744  0.7209
13946TIP3    H263330   6.227   0.160  13.735  1.0657  2.4725  1.5238
13947TIP3   OH263331   3.666   3.024   6.069  0.3927  0.0671  0.1007
13947TIP3    H163332   3.587   3.038   6.017  0.7862 -0.4330 -0.6462
13947TIP3    H263333   3.637   3.030   6.160 -0.5065 -0.1439 -0.1696
13948TIP3   OH263334   2.559   4.961   0.784  0.1222 -0.0829  0.1789
13948TIP3    H163335   2.584   4.979   0.874 -1.7561  0.6046  0.5818
13948TIP3    H263336   2.520   4.874   0.786 -1.2133  0.5133  0.2941
13949TIP3   OH263337   3.271   2.033   3.635  0.2121 -0.0912 -0.0630
13949TIP3    H163338   3.355   1.989   3.623  0.5689  0.0816  1.7464
13949TIP3    H263339   3.215   1.966   3.676 -0.3064  0.0348 -0.5573
13950TIP3   OH263340   0.402   4.598  10.345 -0.0566  0.4996 -0.3389
13950TIP3    H163341   0.456   4.522  10.366 -1.0859  0.2499  1.5523
13950TIP3    H263342   0.320   4.560  10.313 -0.0206  0.8303 -0.8136
13951TIP3   OH263343   6.363   2.485   3.929  0.7277  0.1634  0.0198
13951TIP3    H163344   6.273   2.453   3.925  0.8287  0.0091 -1.0565
13951TIP3    H263345   6.376   2.506   4.022 -0.5897  0.6998  0.0922
13952TIP3   OH263346   1.283   0.487   5.116 -0.0887 -0.4629  0.0688
13952TIP3    H163347   1.332   0.436   5.181  1.2762  0.5325 -0.1654
13952TIP3    H263348   1.338   0.562   5.098 -1.0353 -0.0895 -1.3254
13953TIP3   OH263349   4.580   2.183  13.595 -0.7670  0.1914  0.3467
13953TIP3    H163350   4.503   2.238  13.607 -0.2695  0.9133  0.2356
13953TIP3    H263351   4.602   2.194  13.502  0.5006  1.3439  0.7755
13954TIP3   OH263352   6.733   3.297   5.166  0.8110 -0.0728 -0.1843
13954TIP3    H163353   6.695   3.323   5.250 -0.6974  1.1999 -1.2548
13954TIP3    H263354   6.696   3.211   5.148 -0.8102  0.7276 -0.7348
13955TIP3   OH263355   6.270   2.652  12.035 -0.0281  0.0657  0.2382
13955TIP3    H163356   6.341   2.714  12.052  0.2934 -0.1357 -0.3416
13955TIP3    H263357   6.228   2.685  11.956 -0.9193  0.4777  0.8777
13956TIP3   OH263358   4.678   0.190  11.145 -0.6265 -0.1859 -0.7020
13956TIP3    H163359   4.620   0.235  11.084  2.5292  1.8763 -2.3074
13956TIP3    H263360   4.647   0.216  11.232 -3.2563 -0.7273 -1.4174
13957TIP3   OH263361   0.044   3.364   5.774  0.1195  0.1618  0.3952
13957TIP3    H163362  -0.013   3.302   5.818  1.6272 -0.4832  1.4923
13957TIP3    H263363   0.020   3.449   5.811 -2.1651  0.3173 -1.3462
13958TIP3   OH263364   6.733   3.586   3.853  0.2319  0.1211 -0.0773
13958TIP3    H163365   6.688   3.637   3.785 -0.7756  1.4097  1.5192
13958TIP3    H263366   6.666   3.527   3.887  0.9708 -1.1559 -0.7852
13959TIP3   OH263367   0.283   1.860   3.671  0.2664  0.2142  0.4830
13959TIP3    H163368   0.370   1.849   3.632  0.3068  0.7990  0.3937
13959TIP3    H263369   0.300   1.906   3.753  0.4263 -3.1982  2.4296
13960TIP3   OH263370   2.979   1.722  14.597 -0.5497 -0.1316 -0.0695
13960TIP3    H163371   3.038   1.706  14.670 -1.2371  2.1414  1.0184
13960TIP3    H263372   3.037   1.733  14.521  0.4006  1.3472  0.8473
13961TIP3   OH263373   0.403   4.176  10.823  0.2880 -0.7611  0.0919
13961TIP3    H163374   0.498   4.170  10.813  0.4449  1.0755  0.2779
13961TIP3    H263375   0.385   4.126  10.903  0.8295 -2.8071 -1.0166
13962TIP3   OH263376   4.675   4.748  13.454  0.8325 -0.5698  0.2189
13962TIP3    H163377   4.652   4.727  13.544  1.7314 -1.7162  0.1802
13962TIP3    H263378   4.718   4.670  13.420 -0.3552 -0.4977 -1.5136
13963TIP3   OH263379   5.236   1.259   1.372 -0.4527  0.1265  0.7097
13963TIP3    H163380   5.210   1.209   1.450 -0.5074  0.3529  0.8377
13963TIP3    H263381   5.322   1.225   1.350 -0.8120 -0.5534  0.3463
13964TIP3   OH263382   0.583   5.038  15.704  0.5051  0.1223 -0.3250
13964TIP3    H163383   0.504   5.083  15.671  0.3643  0.1700  0.0732
13964TIP3    H263384   0.570   5.035  15.798  1.1233  0.3965 -0.2314
13965TIP3   OH263385   2.746   4.437  12.726 -0.2056 -0.1412 -0.2798
13965TIP3    H163386   2.666   4.401  12.763  0.0170  0.5135  0.8363
13965TIP3    H263387   2.791   4.478  12.799  0.2075  1.2174 -1.2776
13966TIP3   OH263388   0.501   0.412  15.511 -0.5025 -0.5712  0.1794
13966TIP3    H163389   0.522   0.323  15.538 -1.6416 -0.8390  0.2077
13966TIP3    H263390   0.540   0.420  15.424 -0.9251 -1.3147 -0.0873
13967TIP3   OH263391   6.226   2.413  16.099 -0.2594  0.2906  0.2024
13967TIP3    H163392   6.146   2.437  16.051 -0.3582 -0.4709 -0.0161
13967TIP3    H263393   6.205   2.328  16.139  0.6620 -0.2142 -0.3752
13968TIP3   OH263394   2.483   5.850   3.537  0.6132  0.4407 -0.7804
13968TIP3    H163395   2.491   5.761   3.572 -0.9674  0.4932 -0.2389
13968TIP3    H263396   2.426   5.840   3.461  1.5063  0.8020 -1.5064
13969TIP3   OH263397   3.416   2.825  12.873 -0.4761  0.0898  0.1830
13969TIP3    H163398   3.491   2.767  12.865 -0.4129  0.4120 -1.8361
13969TIP3    H263399   3.450   2.904  12.915  0.1427 -0.0481 -0.0616
13970TIP3   OH263400   1.306   1.692  17.080  0.2252 -0.2913 -0.1633
13970TIP3    H163401   1.364   1.767  17.071 -0.6863  0.6150  1.3132
13970TIP3    H263402   1.218   1.728  17.071 -0.1613 -1.4525 -1.1137
13971TIP3   OH263403   0.618   5.826  14.656 -0.5445  0.0447  0.5479
13971TIP3    H163404   0.671   5.747  14.647  1.9012  1.5849  1.0632
13971TIP3    H263405   0.643   5.881  14.581  0.5909  1.8809  2.1974
13972TIP3   OH263406   3.132   3.663   2.990  0.8633  0.0372  0.4608
13972TIP3    H163407   3.160   3.571   2.985  0.4602 -0.1245  1.1283
13972TIP3    H263408   3.154   3.690   3.079 -0.8796 -0.0269  0.9306
13973TIP3   OH263409   6.770   1.374   4.463 -0.4905  0.2781  0.4815
13973TIP3    H163410   6.739   1.350   4.376 -1.7878  0.2712  0.9349
13973TIP3    H263411   6.865   1.361   4.459 -0.6091 -0.3018 -0.7377
13974TIP3   OH263412   0.374   1.131  15.821 -0.1275  0.1849 -0.2498
13974TIP3    H163413   0.303   1.089  15.771  0.8793  0.7032 -2.1733
13974TIP3    H263414   0.447   1.135  15.759  1.5510 -0.2099  1.6601
13975TIP3   OH263415   2.900   4.255   4.459  0.3054 -0.2276 -0.2438
13975TIP3    H163416   2.818   4.294   4.489  0.3942 -1.2559  1.4068
13975TIP3    H263417   2.874   4.199   4.385 -0.5184 -0.7781  0.4573
13976TIP3   OH263418   6.100   4.122   5.789  0.5595  0.4521 -0.5241
13976TIP3    H163419   6.185   4.135   5.747  1.1516 -0.0055  0.4825
13976TIP3    H263420   6.122   4.114   5.883 -0.7615  1.9586 -0.0823
13977TIP3   OH263421   4.393   6.284   1.191 -0.1741 -0.5427  0.4280
13977TIP3    H163422   4.435   6.313   1.271  1.5099  0.0303 -0.6356
13977TIP3    H263423   4.450   6.315   1.121 -2.8394  1.0673 -1.1374
13978TIP3   OH263424   1.400   4.872   0.110 -0.8974 -0.5017 -0.0201
13978TIP3    H163425   1.341   4.943   0.135 -3.0178 -1.4473 -2.1558
13978TIP3    H263426   1.351   4.792   0.128  0.8869 -1.4119  0.9494
13979TIP3   OH263427   1.236   5.798  15.970  0.1721  0.1653  0.3602
13979TIP3    H163428   1.188   5.733  16.021  0.6006 -0.8644 -0.5525
13979TIP3    H263429   1.169   5.855  15.933 -0.3011 -0.7932 -0.2579
13980TIP3   OH263430   2.754   5.792   2.176  0.5910  0.8311 -0.4843
13980TIP3    H163431   2.705   5.712   2.160  2.2786 -0.0976 -1.0899
13980TIP3    H263432   2.751   5.804   2.271  0.0489  0.2331 -0.4293
13981TIP3   OH263433   5.694   5.711  12.158  0.2669  0.3727  0.5348
13981TIP3    H163434   5.768   5.706  12.097 -1.6758 -3.2221 -1.7274
13981TIP3    H263435   5.633   5.772  12.118  0.6220  0.9107  0.8081
13982TIP3   OH263436   0.663   3.145  14.176 -0.2105  0.1885  0.1892
13982TIP3    H163437   0.740   3.099  14.142 -1.2722 -2.5739  1.3685
13982TIP3    H263438   0.650   3.109  14.264 -1.8622  1.8496  0.6743
13983TIP3   OH263439   0.103   3.491   5.234  0.4692 -0.2752  0.0390
13983TIP3    H163440   0.108   3.535   5.149 -0.2064  0.0007  0.1304
13983TIP3    H263441   0.040   3.420   5.220  0.0682  0.0040  0.4001
13984TIP3   OH263442   4.414   3.918   6.336  0.1860 -0.1964 -0.3056
13984TIP3    H163443   4.368   3.909   6.419  0.5390  0.7943  0.0037
13984TIP3    H263444   4.393   3.837   6.288  0.0162 -0.7930  0.7526
13985TIP3   OH263445   1.232   6.729   0.287  0.4197  0.9650  0.5499
13985TIP3    H163446   1.167   6.781   0.239 -0.7652 -2.2551 -1.4916
13985TIP3    H263447   1.313   6.742   0.239  0.2641  1.3610  0.3848
13986TIP3   OH263448   0.305   1.112   5.425  0.0886 -0.2692  0.2454
13986TIP3    H163449   0.210   1.106   5.414 -0.0103  0.6102  0.5490
13986TIP3    H263450   0.318   1.186   5.484  1.0720  1.2517 -1.7883
13987TIP3   OH263451   4.503   0.248  17.141 -0.1856 -0.1898  0.0043
13987TIP3    H163452   4.524   0.332  17.100  0.3668 -0.3915 -0.1333
13987TIP3    H263453   4.588   0.207  17.155 -0.4413 -0.6143  0.3116
13988TIP3   OH263454   2.796   3.380   0.694 -0.4379  0.0664  0.0513
13988TIP3    H163455   2.830   3.422   0.773  0.0252 -0.5965  0.2106
13988TIP3    H263456   2.779   3.453   0.634 -0.2199  0.5270  0.5408
13989TIP3   OH263457   3.405   3.241  11.766 -0.0932  0.4329  0.6112
13989TIP3    H163458   3.416   3.182  11.691 -2.8784  1.2450 -0.5100
13989TIP3    H263459   3.345   3.308  11.734 -0.7676  1.1851  3.3765
13990TIP3   OH263460   2.251   6.747  10.821  0.5467  0.0945 -0.0085
13990TIP3    H163461   2.217   6.662  10.796  1.0423 -0.2297  0.4051
13990TIP3    H263462   2.306   6.729  10.897  2.0796  0.5312 -0.9925
13991TIP3   OH263463   5.836   4.808   3.787  0.2441 -0.1485 -0.3135
13991TIP3    H163464   5.773   4.740   3.812  1.1368 -0.5306  0.9831
13991TIP3    H263465   5.909   4.760   3.749  0.1934  0.2216 -0.8912
13992TIP3   OH263466   3.221   0.283  11.783  0.1304 -0.1058  0.1047
13992TIP3    H163467   3.257   0.359  11.736 -0.7821  2.0273  2.7239
13992TIP3    H263468   3.164   0.240  11.719  1.0916  1.0943 -1.5996
13993TIP3   OH263469   6.586   6.540  11.650 -0.1530  0.0303  0.7946
13993TIP3    H163470   6.537   6.483  11.711  1.0467 -1.3117  0.5327
13993TIP3    H263471   6.657   6.575  11.703 -0.5615  0.8471  0.8021
13994TIP3   OH263472   5.855   5.309   5.787 -0.0447 -0.1290 -0.1275
13994TIP3    H163473   5.793   5.243   5.756  0.0313 -0.4552  0.4153
13994TIP3    H263474   5.801   5.384   5.810 -0.2734 -0.5264  0.6488
13995TIP3   OH263475   2.201   5.519   2.784  0.5246 -0.3316 -0.0863
13995TIP3    H163476   2.291   5.489   2.796  0.9406  0.0031 -2.1534
13995TIP3    H263477   2.188   5.586   2.851  1.9447 -0.0870 -0.0497
13996TIP3   OH263478   0.955   3.254   6.071 -0.4537 -0.0532 -0.3925
13996TIP3    H163479   0.875   3.279   6.117 -0.5167 -1.1455  0.1084
13996TIP3    H263480   0.977   3.331   6.019 -1.1400  0.7123  0.4139
13997TIP3   OH263481   4.918   0.555  14.597  0.3736 -0.0773  0.4450
13997TIP3    H163482   4.966   0.532  14.518 -0.5965  0.2004 -0.2404
13997TIP3    H263483   4.959   0.635  14.629  1.6209 -0.9220  0.9730
13998TIP3   OH263484   0.851   6.517   0.960  0.4442 -0.0765 -0.0350
13998TIP3    H163485   0.902   6.477   0.890 -1.0499 -0.9548 -0.6598
13998TIP3    H263486   0.760   6.510   0.930 -0.0439  1.4560  1.0341
13999TIP3   OH263487   0.039   6.737   0.458 -0.2766 -0.2377 -0.0818
13999TIP3    H163488  -0.033   6.779   0.505 -0.6749  0.1607 -1.0377
13999TIP3    H263489   0.113   6.797   0.467 -0.0287 -0.7016  0.9989
14000TIP3   OH263490   2.088   6.076  13.255  0.0208  0.2549  0.2789
14000TIP3    H163491   2.049   6.059  13.170 -0.6225  1.7568  0.2651
14000TIP3    H263492   2.170   6.121  13.235  0.4581 -0.4834  0.4079
14001TIP3   OH263493   2.250   6.148  16.514  0.4538  0.3986 -0.0208
14001TIP3    H163494   2.339   6.178  16.534  1.2672 -1.4336 -0.7509
14001TIP3    H263495   2.254   6.053  16.524 -1.3735  0.2800 -0.2668
14002TIP3   OH263496   1.787   4.389  15.395 -0.4147  0.5094  0.2352
14002TIP3    H163497   1.814   4.445  15.468 -1.9143  3.0028 -1.0779
14002TIP3    H263498   1.867   4.375  15.345  0.3737 -0.1938  1.6430
14003TIP3   OH263499   3.095   0.121  11.585 -0.1317 -0.0435 -0.3537
14003TIP3    H163500   3.068   0.033  11.560 -0.7028 -0.3121  1.1573
14003TIP3    H263501   3.128   0.160  11.504 -0.7214 -1.3267 -1.2287
14004TIP3   OH263502   1.049   1.051  16.035 -0.8449  0.1381 -0.5296
14004TIP3    H163503   1.002   0.989  15.980 -0.4567  0.8361 -1.6790
14004TIP3    H263504   0.980   1.102  16.079 -1.1570 -0.1535 -0.6857
14005TIP3   OH263505   0.332   1.480  16.728 -0.7730  0.5076 -0.4531
14005TIP3    H163506   0.308   1.553  16.785 -0.0769 -0.3363  0.9350
14005TIP3    H263507   0.403   1.514  16.674  0.3712  0.4856  1.0243
14006TIP3   OH263508   6.799   2.824  14.188  0.4748  0.3534  0.1982
14006TIP3    H163509   6.865   2.777  14.138  1.2696  0.2092  1.3674
14006TIP3    H263510   6.824   2.811  14.279 -1.4057 -0.0545  0.6767
14007TIP3   OH263511   0.231   6.288   2.132 -0.3710 -0.3907  0.0251
14007TIP3    H163512   0.274   6.205   2.109  0.9384  0.1408  0.5313
14007TIP3    H263513   0.261   6.307   2.221  1.6812  2.0831 -1.1098
14008TIP3   OH263514   4.205   2.261  14.762 -0.5768 -0.4355 -0.0976
14008TIP3    H163515   4.226   2.331  14.825 -1.6883  1.5705 -1.8774
14008TIP3    H263516   4.160   2.195  14.814 -0.2279  0.5469  1.4918
14009TIP3   OH263517   2.185   2.216  12.600  0.2159  0.3211 -0.5784
14009TIP3    H163518   2.263   2.163  12.614  0.9221  1.7796  1.1753
14009TIP3    H263519   2.135   2.207  12.681 -0.6324  0.7348 -1.0472
14010TIP3   OH263520   4.949   0.485   1.129 -0.5360  0.1609  0.2580
14010TIP3    H163521   4.889   0.456   1.198  2.8035 -3.3071  1.8816
14010TIP3    H263522   5.026   0.518   1.177  0.4957  0.8008 -1.7711
14011TIP3   OH263523   2.365   3.547  12.472 -0.3095  0.2472  0.0197
14011TIP3    H163524   2.342   3.534  12.564  0.5573 -1.9977 -0.0477
14011TIP3    H263525   2.281   3.555  12.427 -0.7685  0.3274  0.8784
14012TIP3   OH263526   5.074   2.083  14.088  0.0229 -0.4602  0.7140
14012TIP3    H163527   5.051   2.032  14.166 -0.3827  0.5162  1.2330
14012TIP3    H263528   5.158   2.046  14.060 -0.1736 -1.2900  1.1955
14013TIP3   OH263529   3.820   4.012   1.687  0.1617 -0.7976 -0.1109
14013TIP3    H163530   3.911   4.039   1.699 -0.3405 -0.3418  3.0614
14013TIP3    H263531   3.818   3.920   1.716 -0.2130 -1.1274 -1.1405
14014TIP3   OH263532   3.641   1.024  13.734  0.4385 -0.0764 -0.3334
14014TIP3    H163533   3.730   0.994  13.719  0.7108 -0.3507  1.6290
14014TIP3    H263534   3.650   1.097  13.795 -0.5905  0.7293 -1.1195
14015TIP3   OH263535   1.490   6.244   5.266  0.1155  0.1960  0.0998
14015TIP3    H163536   1.489   6.191   5.346 -0.4400 -2.0469 -1.3595
14015TIP3    H263537   1.397   6.254   5.243  0.2261  1.6863  0.2787
14016TIP3   OH263538   4.072   1.630  11.601 -0.0692  0.0860  0.3183
14016TIP3    H163539   4.038   1.698  11.659 -1.3189 -1.4322  1.4239
14016TIP3    H263540   4.125   1.677  11.537  0.7675  1.8802  2.2609
14017TIP3   OH263541   5.149   4.401   2.823  0.1074  0.1468 -0.6512
14017TIP3    H163542   5.074   4.344   2.804 -1.1384  1.8006 -0.8352
14017TIP3    H263543   5.225   4.351   2.795 -0.7168 -2.4603  1.4763
14018TIP3   OH263544   5.943   6.452   4.299  0.2558  0.3380 -0.1143
14018TIP3    H163545   5.861   6.433   4.254  1.4994  0.8466 -2.6510
14018TIP3    H263546   5.933   6.544   4.327 -0.6978 -0.1189  1.1296
14019TIP3   OH263547   2.582   1.019  12.487 -0.0304  0.1465 -0.6807
14019TIP3    H163548   2.513   0.964  12.524 -1.6255  1.7888 -1.1751
14019TIP3    H263549   2.642   1.033  12.561 -0.2030 -1.2600 -0.2409
14020TIP3   OH263550   0.234   5.517   0.023 -0.2107 -0.4654  0.2405
14020TIP3    H163551   0.209   5.513   0.116 -1.4939 -0.8578 -0.1056
14020TIP3    H263552   0.324   5.483   0.021 -0.7624 -2.0186  1.1377
14021TIP3   OH263553   1.802   4.416   3.392  0.3367 -0.0516  0.4543
14021TIP3    H163554   1.882   4.464   3.413 -0.4692  1.1058  0.9317
14021TIP3    H263555   1.785   4.362   3.469  0.2260  0.3047  0.6799
14022TIP3   OH263556   5.265   1.906  12.194 -0.2515  0.5960 -0.5235
14022TIP3    H163557   5.283   1.815  12.173  2.0497  1.2437 -1.4704
14022TIP3    H263558   5.324   1.927  12.267 -0.2536  1.5344 -0.7775
14023TIP3   OH263559   5.877   2.290   1.941 -0.0227 -0.0101 -0.2456
14023TIP3    H163560   5.908   2.286   2.032  4.2668  1.7336 -1.5252
14023TIP3    H263561   5.806   2.354   1.943  1.1310  1.2698  1.6035
14024TIP3   OH263562   1.335   0.815   4.374 -0.4861  0.2470  0.1811
14024TIP3    H163563   1.311   0.759   4.448 -1.0843 -0.3488 -0.4572
14024TIP3    H263564   1.282   0.783   4.301  1.2088 -0.1733 -0.8918
14025TIP3   OH263565   1.960   2.591  17.206  0.2715 -0.3917  0.3270
14025TIP3    H163566   1.991   2.519  17.152  0.0846 -0.4617  0.3109
14025TIP3    H263567   2.001   2.669  17.169  0.9341 -0.5593  0.7022
14026TIP3   OH263568   4.856   5.624  15.848  0.2116 -0.0155  0.4445
14026TIP3    H163569   4.898   5.581  15.922  0.8169 -1.0423 -0.4731
14026TIP3    H263570   4.802   5.555  15.807  0.5196  0.3112 -0.5366
14027TIP3   OH263571   2.656   0.123   4.623  0.0940 -0.9098 -0.2931
14027TIP3    H163572   2.638   0.128   4.529  0.2918 -0.0052 -0.2887
14027TIP3    H263573   2.580   0.078   4.659 -1.1616  0.9546 -0.5682
14028TIP3   OH263574   5.913   3.238   2.491  0.4434 -0.0387 -0.1035
14028TIP3    H163575   5.834   3.256   2.440  0.1363 -0.1492  0.3352
14028TIP3    H263576   5.900   3.149   2.524  0.1991  0.4037  0.9978
14029TIP3   OH263577   3.636   0.417  14.526 -0.4168 -0.2136  0.6683
14029TIP3    H163578   3.682   0.492  14.489 -2.2713  0.9350  0.6467
14029TIP3    H263579   3.658   0.419  14.619  1.4020 -1.0277  0.2763
14030TIP3   OH263580   3.078   3.510   5.951 -0.1815 -0.3550  0.2055
14030TIP3    H163581   3.004   3.505   5.890 -0.8510 -2.0017  1.1364
14030TIP3    H263582   3.047   3.564   6.023 -0.3191 -0.6976  0.3994
14031TIP3   OH263583   5.332   2.347   3.943 -0.0019 -0.3203 -0.5378
14031TIP3    H163584   5.270   2.327   4.013  1.4075 -0.4687  0.6688
14031TIP3    H263585   5.414   2.366   3.987  1.2079 -1.5286 -2.2006
14032TIP3   OH263586   0.391   4.227  15.551  0.4909 -0.5126 -0.3112
14032TIP3    H163587   0.299   4.202  15.559  0.8685 -1.3767  1.7257
14032TIP3    H263588   0.436   4.170  15.613  2.5269 -0.6749 -1.9061
14033TIP3   OH263589   2.641   2.008  17.164 -0.2339  0.1240  0.3167
14033TIP3    H163590   2.660   2.097  17.192 -1.8673  0.6361 -0.1591
14033TIP3    H263591   2.701   1.991  17.092  0.2203  0.7546  0.5493
14034TIP3   OH263592   2.079   3.285  10.999  0.1663 -0.4715  0.6643
14034TIP3    H163593   2.011   3.268  11.064  0.4516  0.0999  1.1243
14034TIP3    H263594   2.131   3.205  10.997  0.5687 -0.2536  1.6583
14035TIP3   OH263595   5.571   3.344   5.414 -0.0595  0.2880 -0.0617
14035TIP3    H163596   5.540   3.254   5.403 -0.5428  0.4639 -0.1370
14035TIP3    H263597   5.662   3.341   5.384  0.3798 -0.4891  1.2821
14036TIP3   OH263598   4.724   2.531   5.701  0.4898 -0.3700 -0.3116
14036TIP3    H163599   4.762   2.465   5.642 -1.5216 -0.5293 -1.4808
14036TIP3    H263600   4.748   2.615   5.661 -0.7786 -0.4772 -1.3276
14037TIP3   OH263601   4.512   1.936  11.643 -0.2262  0.5409 -0.6209
14037TIP3    H163602   4.421   1.922  11.672 -0.2541  0.2060 -0.8556
14037TIP3    H263603   4.540   2.016  11.687 -0.1742 -0.1074  0.5471
14038TIP3   OH263604   2.426   4.003   2.612 -0.1867 -0.0893  0.3027
14038TIP3    H163605   2.449   3.985   2.703  1.9735 -2.2183 -0.5950
14038TIP3    H263606   2.485   4.073   2.586 -0.2306 -0.0462  0.3200
14039TIP3   OH263607   4.861   2.529   2.129  0.1399  0.2620  0.5528
14039TIP3    H163608   4.804   2.597   2.095 -0.1930 -0.1630  0.2571
14039TIP3    H263609   4.950   2.560   2.111  0.0504  1.5971  2.2883
14040TIP3   OH263610   3.275   2.607   3.671  0.4865  0.3689  0.1587
14040TIP3    H163611   3.266   2.647   3.757 -0.7671  0.6357 -0.0788
14040TIP3    H263612   3.207   2.650   3.618  1.0157 -0.0401 -0.8586
14041TIP3   OH263613   3.531   5.822   2.454 -0.1039 -0.9391  0.3064
14041TIP3    H163614   3.473   5.803   2.380 -0.0350  0.1720 -0.0430
14041TIP3    H263615   3.617   5.836   2.414  0.2283 -1.7156  0.7389
14042TIP3   OH263616   4.139   1.080   3.027 -0.3702  0.3119  1.1812
14042TIP3    H163617   4.206   1.132   2.983  0.4599  0.2253  2.3297
14042TIP3    H263618   4.186   1.004   3.060 -1.3870 -0.6724  0.4046
14043TIP3   OH263619   4.271   4.472   2.290  0.1524  0.1807 -0.4316
14043TIP3    H163620   4.354   4.483   2.244 -0.1126 -1.7296 -1.4139
14043TIP3    H263621   4.206   4.459   2.221 -0.7641  0.4572  0.3680
14044TIP3   OH263622   5.275   2.281  16.292  0.0388 -0.2296 -0.5445
14044TIP3    H163623   5.246   2.192  16.272 -1.6928  0.5071 -1.4360
14044TIP3    H263624   5.201   2.337  16.266 -0.7321  1.1483  4.2055
14045TIP3   OH263625   5.571   4.450  16.505 -0.1342  0.2436  0.1317
14045TIP3    H163626   5.545   4.529  16.457  2.2181  0.3494 -1.0798
14045TIP3    H263627   5.661   4.469  16.534  0.2137 -1.7092  0.3941
14046TIP3   OH263628   1.917   5.951   6.431  0.2466  0.1753 -0.2905
14046TIP3    H163629   1.851   6.005   6.386  0.9705  1.4659  0.1608
14046TIP3    H263630   1.916   5.868   6.384 -1.6818  0.1843 -0.3089
14047TIP3   OH263631   2.164   1.937   4.522  0.3322 -0.0529 -0.1053
14047TIP3    H163632   2.204   1.850   4.515  2.5551  0.8629  0.8570
14047TIP3    H263633   2.236   1.995   4.546 -0.9266  2.2374 -1.6633
14048TIP3   OH263634   5.313   5.145   3.057 -0.3413 -0.2011  0.2188
14048TIP3    H163635   5.389   5.160   3.114 -0.6228 -2.2143  1.1606
14048TIP3    H263636   5.324   5.055   3.025 -0.6051  0.6085 -2.3100
14049TIP3   OH263637   1.960   1.769   2.789 -0.3563 -0.2295  0.3692
14049TIP3    H163638   1.979   1.863   2.795  1.2894 -0.6053  1.5109
14049TIP3    H263639   1.878   1.764   2.740 -1.5709  1.9360  2.0401
14050TIP3   OH263640   5.886   5.698   0.573  0.4225 -0.2108  0.0159
14050TIP3    H163641   5.901   5.717   0.480  0.5428 -0.2426  0.0286
14050TIP3    H263642   5.819   5.761   0.599  0.5453 -0.0544 -0.0390
14051TIP3   OH263643   6.673   2.497   2.519 -0.5562  0.1570 -0.0572
14051TIP3    H163644   6.702   2.407   2.534 -0.3162  0.5411  1.8908
14051TIP3    H263645   6.746   2.551   2.547 -2.1952  1.0602  2.6874
14052TIP3   OH263646   4.038   0.030   5.122  0.2883  0.1608 -0.0741
14052TIP3    H163647   4.102  -0.035   5.150 -0.7921 -1.0048 -0.2793
14052TIP3    H263648   3.983   0.045   5.198 -1.4037 -1.5159 -0.9309
14053TIP3   OH263649   0.299   1.998   0.541  0.0625  0.4116  0.2146
14053TIP3    H163650   0.355   1.960   0.474  0.5009 -0.8169  1.2494
14053TIP3    H263651   0.343   1.976   0.624 -1.5772  0.0303  1.0071
14054TIP3   OH263652   0.020   3.329   4.873  0.4698  0.0278 -0.5260
14054TIP3    H163653  -0.049   3.320   4.939 -0.1523  1.3738 -0.9616
14054TIP3    H263654   0.018   3.246   4.825 -0.3970 -0.2066 -0.1049
14055TIP3   OH263655   0.359   4.390  11.740 -0.3241 -0.1106 -0.2970
14055TIP3    H163656   0.338   4.424  11.827 -1.6028 -0.0652 -0.6165
14055TIP3    H263657   0.308   4.444  11.680 -0.5639 -1.0768 -0.9694
14056TIP3   OH263658   5.225   6.814   2.224  0.4780  0.2819 -0.4256
14056TIP3    H163659   5.230   6.800   2.319  0.8601  1.7773 -0.2098
14056TIP3    H263660   5.185   6.735   2.190  0.9461 -0.5486  0.9226
14057TIP3   OH263661   5.034   0.963  11.856  0.5538  0.0775  0.5931
14057TIP3    H163662   5.063   1.052  11.836 -0.7985  0.5736  0.7959
14057TIP3    H263663   4.982   0.937  11.780  0.4355 -0.3103  0.8055
14058TIP3   OH263664   4.891   3.528  13.221 -0.3336 -0.4539 -0.0504
14058TIP3    H163665   4.879   3.436  13.246 -0.6608  0.2413  2.4232
14058TIP3    H263666   4.803   3.558  13.200 -0.7100  0.1800  2.3437
14059TIP3   OH263667   6.083   2.526  14.967  0.2842 -0.7320  0.6318
14059TIP3    H163668   6.005   2.503  15.017  0.0081  1.4714  1.3017
14059TIP3    H263669   6.097   2.619  14.987  3.0294 -1.0615  0.4705
14060TIP3   OH263670   6.067   4.370   0.182 -0.2463 -0.5064  0.2325
14060TIP3    H163671   6.074   4.461   0.154 -2.4743 -0.6572 -0.9528
14060TIP3    H263672   6.016   4.374   0.264  1.2474 -0.5580  1.1874
14061TIP3   OH263673   4.518   3.103   1.391  0.3983 -0.7072 -0.3200
14061TIP3    H163674   4.602   3.134   1.355 -0.3947  1.5317 -0.3545
14061TIP3    H263675   4.456   3.116   1.319 -0.4807  0.2282  0.6057
14062TIP3   OH263676   2.392   5.122   0.490 -0.5271 -0.3452  0.2015
14062TIP3    H163677   2.417   5.212   0.468  0.5371 -0.5629  0.4599
14062TIP3    H263678   2.385   5.123   0.586 -1.7781 -0.2268  0.1111
14063TIP3   OH263679   0.714   1.034  11.879  0.6318  0.2886 -0.3703
14063TIP3    H163680   0.752   1.097  11.818  0.4923  0.5043 -0.2306
14063TIP3    H263681   0.633   1.006  11.838  0.2523  0.8651 -0.0093
14064TIP3   OH263682   3.584   1.643  15.713  0.1837 -0.7157 -0.3909
14064TIP3    H163683   3.601   1.705  15.642 -0.6479  1.0244  0.8854
14064TIP3    H263684   3.490   1.654  15.731 -0.2455 -3.1817 -0.8849
14065TIP3   OH263685   1.063   1.834   5.111 -0.0443  0.6851  0.3831
14065TIP3    H163686   1.000   1.813   5.180 -1.1166  1.3904 -0.3603
14065TIP3    H263687   1.034   1.784   5.035  1.5490 -0.6445  0.6251
14066TIP3   OH263688   0.891   1.905  16.951 -0.3608 -0.2326  0.2066
14066TIP3    H163689   0.927   1.973  16.895 -0.6302  1.5615  2.1537
14066TIP3    H263690   0.968   1.860  16.987 -0.1624 -0.0930 -0.0471
14067TIP3   OH263691   6.138   5.536   5.756  0.1404  0.0889  0.2097
14067TIP3    H163692   6.152   5.587   5.836 -0.9471 -0.6576  0.8926
14067TIP3    H263693   6.058   5.572   5.719 -1.1535 -1.7013  1.1855
14068TIP3   OH263694   3.526   5.026  16.037 -0.3151 -0.1556 -0.0545
14068TIP3    H163695   3.600   5.082  16.061 -0.9415  0.3178  0.8024
14068TIP3    H263696   3.476   5.017  16.118 -0.1796 -2.0382 -0.1455
14069TIP3   OH263697   1.458   1.334   4.686 -0.3906 -0.0743 -0.3237
14069TIP3    H163698   1.497   1.258   4.643 -0.4167 -0.2242 -0.0835
14069TIP3    H263699   1.519   1.356   4.757  0.0221  0.6173 -0.8843
14070TIP3   OH263700   6.299   3.894   4.738 -0.1303  0.2306 -0.3645
14070TIP3    H163701   6.289   3.987   4.719 -0.1618  0.2539 -0.2377
14070TIP3    H263702   6.272   3.849   4.658  1.4839  0.3834 -1.0248
14071TIP3   OH263703   4.389   3.578   3.337  0.3206 -0.1119 -0.0674
14071TIP3    H163704   4.448   3.621   3.400 -1.1290  1.1449  0.4684
14071TIP3    H263705   4.366   3.495   3.379 -0.1772  0.4577  0.8042
14072TIP3   OH263706   1.338   5.186   3.657  0.1413 -0.1074 -0.2715
14072TIP3    H163707   1.250   5.186   3.693  0.7800  1.2076  1.3522
14072TIP3    H263708   1.332   5.243   3.580 -0.9461 -1.9408 -1.5719
14073TIP3   OH263709   3.947   0.578   1.886 -0.0530  0.1668 -0.2910
14073TIP3    H163710   3.902   0.525   1.952 -0.1141  0.6639  0.0617
14073TIP3    H263711   4.006   0.516   1.842  1.6236  0.2866  1.7129
14074TIP3   OH263712   3.028   6.724  13.171 -0.1647 -0.6476 -0.4057
14074TIP3    H163713   2.965   6.651  13.174  0.9711 -1.6525 -0.7362
14074TIP3    H263714   3.081   6.706  13.093 -1.4773  1.8753 -1.9511
14075TIP3   OH263715   3.885   5.634  16.562 -0.3252  0.5441  0.6436
14075TIP3    H163716   3.945   5.681  16.620 -0.3032  0.8728  0.3555
14075TIP3    H263717   3.858   5.699  16.497 -0.3428  0.1809  0.2801
14076TIP3   OH263718   4.762   0.449  16.483  0.0229  0.0209  1.0960
14076TIP3    H163719   4.801   0.511  16.421  0.3937 -0.0768  1.2267
14076TIP3    H263720   4.697   0.402  16.432  1.1902 -0.9239  0.4317
14077TIP3   OH263721   2.389   4.285  13.472  0.2785 -0.2540  0.1522
14077TIP3    H163722   2.449   4.356  13.447  0.4159 -0.5732 -0.4291
14077TIP3    H263723   2.303   4.315  13.442  0.0295  0.4959  1.5631
14078TIP3   OH263724   6.174   1.208  13.813 -0.5879  0.2633 -0.2101
14078TIP3    H163725   6.241   1.245  13.754  0.3211 -1.1197 -0.0584
14078TIP3    H263726   6.091   1.236  13.774  0.0042 -0.3772 -1.9896
14079TIP3   OH263727   6.313   0.271   5.447 -0.2630 -0.7387  0.2294
14079TIP3    H163728   6.326   0.226   5.531  1.9593  0.6563  0.6623
14079TIP3    H263729   6.399   0.268   5.405 -0.4569  1.7892 -0.3990
14080TIP3   OH263730   2.824   6.564  14.169  0.0373  0.0092  0.4651
14080TIP3    H163731   2.771   6.587  14.093  0.7134 -0.3220 -0.1066
14080TIP3    H263732   2.770   6.502  14.218 -0.2439 -0.0636  0.0621
14081TIP3   OH263733   3.367   2.267   2.200  0.3136  0.0421  0.0802
14081TIP3    H163734   3.311   2.345   2.204 -0.9489 -0.8965  1.6031
14081TIP3    H263735   3.354   2.224   2.285  0.5614 -2.1144 -0.9393
14082TIP3   OH263736   2.113   4.712   0.436  0.5753 -0.0146 -0.1311
14082TIP3    H163737   2.149   4.636   0.390  1.0430  0.5719 -0.7359
14082TIP3    H263738   2.186   4.774   0.442  0.1421  0.4687  0.1891
14083TIP3   OH263739   1.949   1.770  11.758  0.0747 -0.2630  0.0443
14083TIP3    H163740   1.880   1.803  11.700  1.5476  0.9341 -1.0691
14083TIP3    H263741   1.942   1.675  11.752 -1.3160 -0.1588 -0.2405
14084TIP3   OH263742   5.662   1.118  14.048  0.7971  0.0755  0.0724
14084TIP3    H163743   5.733   1.141  13.988  1.4627 -1.1280  0.3776
14084TIP3    H263744   5.586   1.107  13.992  1.3475 -0.7448 -0.5169
14085TIP3   OH263745   1.014   1.386   0.750 -0.1798  0.4049 -0.1618
14085TIP3    H163746   0.950   1.454   0.730 -1.8340 -0.9068  0.6640
14085TIP3    H263747   0.983   1.346   0.830  1.5079 -0.4672  0.0782
14086TIP3   OH263748   0.141   6.512  14.628  0.2572  0.2159  0.0543
14086TIP3    H163749   0.086   6.507  14.549 -0.5080 -1.1829  0.6673
14086TIP3    H263750   0.123   6.599  14.664 -0.1139  0.4948 -0.7970
14087TIP3   OH263751   1.408   2.998  15.985 -0.0319 -0.2565  0.4029
14087TIP3    H163752   1.336   3.023  16.043  0.8437  1.5408  0.7703
14087TIP3    H263753   1.482   3.052  16.015  1.6494 -2.5253  0.4679
14088TIP3   OH263754   1.627   5.726   6.234 -0.3639  0.2060 -0.4323
14088TIP3    H163755   1.667   5.763   6.312 -1.5607  0.0704  0.2659
14088TIP3    H263756   1.597   5.639   6.261  1.8883 -1.0598 -1.8878
14089TIP3   OH263757   3.811   3.808   5.548 -0.5905 -0.4004 -0.5079
14089TIP3    H163758   3.738   3.835   5.493 -0.6050  1.4938  0.3924
14089TIP3    H263759   3.776   3.807   5.637  0.8856  2.4801  0.2068
14090TIP3   OH263760   3.205   5.771  11.782  0.1033 -0.0576 -0.1521
14090TIP3    H163761   3.258   5.779  11.703  2.2967 -1.3713  1.1243
14090TIP3    H263762   3.261   5.722  11.843 -1.9756 -0.0550  1.8072
14091TIP3   OH263763   3.495   5.670  11.827 -0.0304 -0.3623 -0.0151
14091TIP3    H163764   3.557   5.736  11.795 -1.4486  0.3786 -1.2767
14091TIP3    H263765   3.489   5.606  11.756 -1.7247  0.2792 -0.4786
14092TIP3   OH263766   2.087   2.412  11.338 -0.2194 -0.1149  0.3512
14092TIP3    H163767   2.168   2.463  11.341 -0.7886  0.8865 -0.5612
14092TIP3    H263768   2.033   2.449  11.407 -0.8882  0.9980 -0.7415
14093TIP3   OH263769   5.795   3.836  11.145  0.3328 -0.4952  0.6377
14093TIP3    H163770   5.875   3.786  11.163 -0.7937 -1.8946  1.8566
14093TIP3    H263771   5.732   3.804  11.209 -1.8565 -0.9079 -1.6668
14094TIP3   OH263772   0.928   4.468  13.025 -0.5133 -0.2731  0.1544
14094TIP3    H163773   0.922   4.385  12.977 -0.4965  0.2660 -0.7768
14094TIP3    H263774   0.837   4.498  13.032 -0.6029 -0.7386  1.1616
14095TIP3   OH263775   2.564   5.002   2.139 -0.1510  0.5798  0.2620
14095TIP3    H163776   2.642   4.991   2.193 -0.3330  1.9721  0.8130
14095TIP3    H263777   2.491   4.980   2.197 -0.2844  1.1100  0.2972
14096TIP3   OH263778   3.369   1.335  15.879 -0.4389 -0.4482 -0.0597
14096TIP3    H163779   3.392   1.273  15.810  0.1726  1.4050 -1.5519
14096TIP3    H263780   3.302   1.391  15.841 -2.3259 -1.2970  1.8963
14097TIP3   OH263781   6.274   6.718  16.508  0.5054 -0.6052 -0.2219
14097TIP3    H163782   6.181   6.726  16.487  0.6826 -0.2334 -0.8993
14097TIP3    H263783   6.277   6.661  16.585 -0.2431 -1.0730 -0.5402
14098TIP3   OH263784   6.352   0.434   3.398  0.4255  0.0631  0.9541
14098TIP3    H163785   6.284   0.445   3.332 -2.0299 -0.5575  3.2636
14098TIP3    H263786   6.362   0.521   3.437  0.0326 -0.1140  1.4578
14099TIP3   OH263787   0.434   0.519  14.067 -0.4236 -0.3000  0.4466
14099TIP3    H163788   0.400   0.448  14.121 -2.5039  1.4273  1.4894
14099TIP3    H263789   0.520   0.538  14.104 -0.7202 -0.9167  1.4807
14100TIP3   OH263790   6.360   4.858  16.108 -0.1284 -0.2781 -0.3218
14100TIP3    H163791   6.324   4.934  16.062  0.4370  0.9655  1.2258
14100TIP3    H263792   6.354   4.881  16.201 -3.3604 -3.6780  0.4389
14101TIP3   OH263793   4.324   5.788  13.639 -0.2181 -0.5052  0.8227
14101TIP3    H163794   4.386   5.805  13.568 -0.7406 -0.0473  0.4751
14101TIP3    H263795   4.238   5.806  13.601 -0.5328 -0.6741  1.4458
14102TIP3   OH263796   1.651   1.924   3.258 -0.5998 -0.3758 -0.3688
14102TIP3    H163797   1.679   1.840   3.294 -1.6084 -0.8566 -0.6751
14102TIP3    H263798   1.633   1.906   3.166  2.0543  0.8805 -1.1808
14103TIP3   OH263799   5.665   0.121  15.483  0.6325 -0.2551  0.6858
14103TIP3    H163800   5.743   0.158  15.441  1.2480 -2.5684 -0.3288
14103TIP3    H263801   5.626   0.194  15.530  2.3262  1.4173 -0.4115
14104TIP3   OH263802   5.209   6.709   0.118  0.7029  0.2123  0.2618
14104TIP3    H163803   5.233   6.789   0.165  1.1656  0.5518 -0.5301
14104TIP3    H263804   5.292   6.673   0.089  0.3614  0.6389 -1.3005
14105TIP3   OH263805   6.078   4.571   5.510  0.1746  0.4023 -0.1883
14105TIP3    H163806   6.128   4.632   5.565 -1.3535  1.4408  0.0952
14105TIP3    H263807   6.064   4.495   5.567  1.8217 -0.1185 -0.4382
14106TIP3   OH263808   1.349   5.560  12.253  0.2136  0.1009 -0.7869
14106TIP3    H163809   1.398   5.495  12.203 -0.1857 -0.1562 -0.8446
14106TIP3    H263810   1.304   5.612  12.186  1.4640  1.2022 -0.8103
14107TIP3   OH263811   5.615   4.632  15.851 -0.0491 -0.0760  0.2045
14107TIP3    H163812   5.530   4.606  15.816  0.4717 -4.1115  1.6319
14107TIP3    H263813   5.679   4.594  15.791  0.8078  2.2623 -0.4193
14108TIP3   OH263814   2.280   4.093   4.056  0.5004 -0.8056 -0.3008
14108TIP3    H163815   2.194   4.131   4.075  1.4447  0.8487  0.8446
14108TIP3    H263816   2.318   4.151   3.990  0.9198 -1.2453 -0.4502
14109TIP3   OH263817   6.252   5.166  14.049  0.2227 -0.2678  0.4184
14109TIP3    H163818   6.341   5.201  14.044  0.5860 -1.3151 -0.9851
14109TIP3    H263819   6.205   5.226  14.106  1.2435  1.5940 -0.6469
14110TIP3   OH263820   5.130   0.998  12.565  0.0667 -0.2636 -0.4123
14110TIP3    H163821   5.049   1.042  12.538  0.6079  0.1911 -1.2887
14110TIP3    H263822   5.106   0.905  12.568 -0.5021 -0.1268 -0.6456
14111TIP3   OH263823   1.173   3.697  12.451  0.1445 -0.0452 -0.2767
14111TIP3    H163824   1.149   3.780  12.411  2.0154  0.0136 -1.3267
14111TIP3    H263825   1.151   3.707  12.544 -0.9152  1.1082 -0.6434
14112TIP3   OH263826   2.005   4.396  12.576 -0.1470 -0.4484 -0.0700
14112TIP3    H163827   1.932   4.342  12.606 -0.2680 -1.0936 -1.5123
14112TIP3    H263828   1.963   4.474  12.538  0.0009  0.2629  1.1841
14113TIP3   OH263829   2.433   4.403  11.749  0.4382 -0.5934 -0.2385
14113TIP3    H163830   2.382   4.380  11.671  0.7475 -0.9550 -0.3353
14113TIP3    H263831   2.420   4.330  11.809  2.1267 -1.4415 -0.8898
14114TIP3   OH263832   4.310   6.270   4.229  0.6951  0.3780  0.0171
14114TIP3    H163833   4.321   6.245   4.321  2.4748 -1.1818 -0.5941
14114TIP3    H263834   4.297   6.188   4.183  0.1216  1.1331 -1.1869
14115TIP3   OH263835   1.706   4.899  13.195  0.4517  0.5025  0.0213
14115TIP3    H163836   1.720   4.808  13.171  1.8325  0.4669  0.9151
14115TIP3    H263837   1.611   4.911  13.191  0.3140 -0.8079 -0.6620
14116TIP3   OH263838   6.009   4.052  15.287  0.3173 -0.4625 -0.6260
14116TIP3    H163839   6.096   4.048  15.247  0.9185 -3.6024  0.8414
14116TIP3    H263840   5.950   4.016  15.221  0.6599 -1.6091 -0.3082
14117TIP3   OH263841   1.160   6.354   2.698  0.5253 -0.1246 -0.6892
14117TIP3    H163842   1.179   6.409   2.622 -0.4083  0.5628 -0.4335
14117TIP3    H263843   1.246   6.328   2.732  1.0213  2.4737  0.1364
14118TIP3   OH263844   1.546   4.149   2.504  1.1280 -0.1959  0.4747
14118TIP3    H163845   1.636   4.123   2.484  1.6385  1.3670  0.7214
14118TIP3    H263846   1.530   4.113   2.591  0.8936 -1.9908 -0.2848
14119TIP3   OH263847   2.095   4.673  14.404 -0.5642 -0.4264 -0.4008
14119TIP3    H163848   2.082   4.590  14.359 -1.7592 -0.5015  0.0669
14119TIP3    H263849   2.066   4.739  14.342 -0.6097 -0.4194 -0.3725
14120TIP3   OH263850   4.009   6.797   4.552 -0.1197 -1.0118 -0.0547
14120TIP3    H163851   4.104   6.784   4.547  0.1714  0.5677  0.8679
14120TIP3    H263852   3.991   6.803   4.646 -1.0959 -1.0641 -0.2339
14121TIP3   OH263853   1.712   0.834  12.529  0.1266 -0.1445 -0.7469
14121TIP3    H163854   1.747   0.761  12.478 -1.2333 -1.8696  0.7184
14121TIP3    H263855   1.630   0.857  12.485 -1.0635 -1.6548  0.6389
14122TIP3   OH263856   4.126   3.462  12.998 -0.2211  0.6257 -0.3970
14122TIP3    H163857   4.134   3.447  12.903 -0.5621  1.1030 -0.5002
14122TIP3    H263858   4.177   3.541  13.015  1.6881 -0.6964  0.1808
14123TIP3   OH263859   1.132   0.608   0.391  0.5020 -0.4692 -0.0737
14123TIP3    H163860   1.162   0.654   0.469 -1.2711 -0.3604  0.5772
14123TIP3    H263861   1.125   0.516   0.418  0.8008 -0.5891 -0.3910
14124TIP3   OH263862   0.900   3.004   1.543  0.1871  0.4119 -0.3220
14124TIP3    H163863   0.828   3.066   1.556 -0.2188 -0.4452  1.8134
14124TIP3    H263864   0.870   2.924   1.585  0.9465 -1.0814 -2.5427
14125TIP3   OH263865   4.425   2.034   4.061 -0.4932 -0.3693 -0.4566
14125TIP3    H163866   4.508   2.081   4.063 -0.8411  0.2182  0.5934
14125TIP3    H263867   4.360   2.100   4.039 -0.5459 -1.0520 -2.3992
14126TIP3   OH263868   0.705   2.838  13.382  0.9590 -0.4211 -0.3317
14126TIP3    H163869   0.767   2.866  13.315  1.4071  0.1004  0.2913
14126TIP3    H263870   0.704   2.742  13.375  2.5756 -0.5027  0.2920
14127TIP3   OH263871   1.395   5.077  16.637 -0.4947 -0.8619  0.3319
14127TIP3    H163872   1.366   5.069  16.546  2.5556  1.6700 -0.9668
14127TIP3    H263873   1.364   5.164  16.664  1.6819 -0.1031  0.4640
14128TIP3   OH263874   6.168   0.096  14.998 -0.2475 -0.3595  0.3630
14128TIP3    H163875   6.131   0.168  14.947 -2.1904 -0.0597  2.1488
14128TIP3    H263876   6.261   0.097  14.975 -0.6428  1.3068 -1.3128
14129TIP3   OH263877   2.991   0.536   0.609 -0.3349  0.0322 -0.1790
14129TIP3    H163878   2.936   0.549   0.532 -0.1738 -0.1031 -0.3137
14129TIP3    H263879   3.066   0.593   0.595 -0.7079  0.6470  0.2665
14130TIP3   OH263880   5.524   6.062  11.393 -0.2368 -0.5492  0.2554
14130TIP3    H163881   5.555   6.135  11.340 -0.8123  0.6451  1.5306
14130TIP3    H263882   5.444   6.095  11.434  0.5707 -1.1851  2.3969
14131TIP3   OH263883   5.325   4.145  13.057  0.4445 -0.2153  0.1406
14131TIP3    H163884   5.274   4.106  13.128  0.4644 -0.5421 -0.0233
14131TIP3    H263885   5.284   4.230  13.042  0.2655 -0.2628  0.3549
14132TIP3   OH263886   5.663   0.754   0.696  0.1560  0.3579 -0.0703
14132TIP3    H163887   5.679   0.838   0.653  1.1254  0.3287  0.2114
14132TIP3    H263888   5.646   0.693   0.624  0.6594  0.5455 -0.3576
14133TIP3   OH263889   4.502   6.600  16.432  0.3276 -0.0619 -0.0997
14133TIP3    H163890   4.544   6.527  16.387  1.2998  0.2695  0.2592
14133TIP3    H263891   4.510   6.580  16.525 -1.4080 -0.5923 -0.0550
14134TIP3   OH263892   1.770   6.535   1.927  0.2540 -0.4851 -0.2432
14134TIP3    H163893   1.795   6.460   1.982  2.0182  2.0026  2.4492
14134TIP3    H263894   1.680   6.555   1.953  0.5569 -0.2655  0.6250
14135TIP3   OH263895   5.577   4.862   2.922 -0.5943  0.3562 -0.4083
14135TIP3    H163896   5.487   4.894   2.917 -0.1511  1.5717 -0.6912
14135TIP3    H263897   5.615   4.909   2.996 -0.0672  0.1694 -0.5595
14136TIP3   OH263898   4.070   0.232  12.613  0.1807 -0.0608 -0.5045
14136TIP3    H163899   4.108   0.310  12.572 -0.2520 -0.3558 -1.4998
14136TIP3    H263900   4.115   0.224  12.697 -0.7770  2.0847  0.2578
14137TIP3   OH263901   3.530   5.102   2.844 -0.5130 -0.1285 -0.0976
14137TIP3    H163902   3.524   5.025   2.901 -2.1597 -0.2365 -0.3867
14137TIP3    H263903   3.590   5.161   2.890  0.1214 -1.2369  0.5252
14138TIP3   OH263904   3.062   3.545  12.988 -0.1827  0.4763 -0.2948
14138TIP3    H163905   3.084   3.600  12.912  0.3045 -0.2544 -0.6890
14138TIP3    H263906   3.069   3.455  12.956  1.3233  0.1167  0.9535
14139TIP3   OH263907   5.564   3.073   1.422  0.3190  0.3072 -0.6807
14139TIP3    H163908   5.528   3.162   1.421  1.0213  0.6295  1.0355
14139TIP3    H263909   5.607   3.064   1.336 -2.2699  0.5352 -2.0456
14140TIP3   OH263910   1.022   1.296   2.910  0.2646  0.2895  0.2621
14140TIP3    H163911   0.935   1.255   2.907 -0.1611  1.2579 -2.0581
14140TIP3    H263912   1.010   1.375   2.964 -0.3196  0.4338 -0.0744
14141TIP3   OH263913   4.037   4.222  15.141  0.1312 -0.1810  0.5138
14141TIP3    H163914   4.048   4.145  15.197 -0.0104 -0.2664  0.4230
14141TIP3    H263915   4.126   4.246  15.115  0.2736  0.3584  1.4453
14142TIP3   OH263916   4.553   2.015  10.478 -0.4039  0.5779 -0.4773
14142TIP3    H163917   4.559   2.096  10.529 -1.3279  0.2181  0.2251
14142TIP3    H263918   4.466   2.019  10.437 -0.0246  0.4380 -1.3058
14143TIP3   OH263919   0.328   5.562   0.972 -0.5013 -0.4791 -0.4451
14143TIP3    H163920   0.308   5.469   0.975 -0.4485 -0.5768 -2.5636
14143TIP3    H263921   0.271   5.601   1.039 -2.9535 -1.6071 -1.8085
14144TIP3   OH263922   1.100   4.508  16.792 -0.5109  0.2894  0.6480
14144TIP3    H163923   1.094   4.416  16.766 -0.6473  0.6108 -0.4878
14144TIP3    H263924   1.028   4.519  16.853 -0.5959 -0.3218  0.6686
14145TIP3   OH263925   0.467   1.128  12.354 -0.0184 -0.3973 -0.1858
14145TIP3    H163926   0.535   1.191  12.376  0.9677 -0.5890 -2.5451
14145TIP3    H263927   0.505   1.075  12.284 -2.1601 -1.2796 -0.7283
14146TIP3   OH263928   6.724   5.991   1.300 -0.1696  0.5662 -0.7595
14146TIP3    H163929   6.737   6.063   1.360 -0.1612 -0.3190  0.3107
14146TIP3    H263930   6.715   5.914   1.356  0.2576 -0.3266 -1.8909
14147TIP3   OH263931   6.629   1.400   5.077 -0.0823  0.8059  0.1043
14147TIP3    H163932   6.548   1.437   5.112 -1.1394 -0.6593 -0.7296
14147TIP3    H263933   6.602   1.319   5.034  1.9017  0.0121  0.2752
14148TIP3   OH263934   6.533   1.146  14.070 -0.8284 -0.5646 -0.0698
14148TIP3    H163935   6.558   1.128  13.979  1.3249 -2.0196  0.7477
14148TIP3    H263936   6.440   1.165  14.066 -0.1391  2.8491 -3.0450
14149TIP3   OH263937   3.660   3.776   5.785 -0.9875 -0.0210 -0.1196
14149TIP3    H163938   3.629   3.774   5.875  0.0590 -1.0840  0.2301
14149TIP3    H263939   3.600   3.836   5.740 -1.6073  0.3877  1.2356
14150TIP3   OH263940   3.894   3.826   0.310 -0.4847 -0.2995  0.0360
14150TIP3    H163941   3.958   3.814   0.380  1.6440 -0.8655 -1.9405
14150TIP3    H263942   3.837   3.749   0.316  0.1246 -0.7072  0.6748
14151TIP3   OH263943   6.314   6.403  13.516 -0.1386 -0.2051 -0.5556
14151TIP3    H163944   6.272   6.408  13.602  1.3838  2.1037  0.1052
14151TIP3    H263945   6.403   6.372  13.536  0.6605  1.6699 -1.1152
14152TIP3   OH263946   0.976   6.669   5.338  0.1145  0.0753 -0.2179
14152TIP3    H163947   0.967   6.734   5.269 -0.5429  0.0137 -0.1949
14152TIP3    H263948   1.069   6.666   5.356  0.0128  1.9373  0.6832
14153TIP3   OH263949   3.586   2.219   4.194  0.0680 -0.0876  0.6423
14153TIP3    H163950   3.581   2.128   4.225  0.3016 -0.0101  0.9112
14153TIP3    H263951   3.679   2.241   4.200  0.0491  0.0798  0.3158
14154TIP3   OH263952   0.051   2.274  12.239 -0.2464 -0.1694 -0.5224
14154TIP3    H163953   0.134   2.238  12.207 -0.6545 -1.6369  0.0573
14154TIP3    H263954   0.070   2.302  12.329 -0.7786 -2.0543  0.2175
14155TIP3   OH263955   2.033   5.986  14.074 -0.0987  0.1902 -0.2508
14155TIP3    H163956   2.112   5.976  14.127  0.4906  1.2525 -0.9108
14155TIP3    H263957   1.972   5.920  14.108  0.1063  1.1286  2.0331
14156TIP3   OH263958   1.867   6.153  15.707 -0.2420 -0.2077 -0.9725
14156TIP3    H163959   1.802   6.163  15.777  2.9117  0.5928  1.9719
14156TIP3    H263960   1.880   6.242  15.674 -1.2014 -0.4843 -2.1200
14157TIP3   OH263961   6.125   4.880   5.911 -0.1230 -0.4691  0.6555
14157TIP3    H163962   6.166   4.965   5.900  1.0241 -1.0751  0.1138
14157TIP3    H263963   6.158   4.827   5.838  0.4355 -1.8449  1.8730
14158TIP3   OH263964   6.293   5.325  16.224 -0.1210 -0.0972 -0.4684
14158TIP3    H163965   6.283   5.374  16.305 -2.5444  0.9248 -1.3033
14158TIP3    H263966   6.260   5.238  16.244  1.2418 -0.4543  0.1995
14159TIP3   OH263967   4.535   3.560  15.138  0.3266  0.1553  0.9729
14159TIP3    H163968   4.486   3.641  15.156 -0.8522 -0.1980 -0.5710
14159TIP3    H263969   4.469   3.491  15.140  1.0058 -0.5235  0.2472
14160TIP3   OH263970   6.258   2.670  16.114 -0.9676 -0.1653 -0.0807
14160TIP3    H163971   6.270   2.576  16.103  0.4769 -0.0772  0.6628
14160TIP3    H263972   6.325   2.696  16.177 -3.3207  0.8635  2.0942
14161TIP3   OH263973   1.841   6.460  14.421  0.3595 -0.3373  0.1110
14161TIP3    H163974   1.795   6.470  14.338 -1.4108  1.2278  1.2552
14161TIP3    H263975   1.876   6.371  14.419 -0.1837 -0.5177 -2.0296
14162TIP3   OH263976   5.449   5.920  12.777 -0.0414  0.3584 -0.2353
14162TIP3    H163977   5.366   5.960  12.750 -0.3431  1.6824  2.3953
14162TIP3    H263978   5.432   5.826  12.775 -1.2282  0.5747 -0.8712
14163TIP3   OH263979   4.347   2.847  13.096 -0.0553 -0.8683 -0.1023
14163TIP3    H163980   4.433   2.879  13.122 -0.5996  0.3505  0.2406
14163TIP3    H263981   4.308   2.816  13.178 -0.3722 -0.3857 -0.0705
14164TIP3   OH263982   4.848   0.214   2.754 -0.9574 -0.7374  0.0911
14164TIP3    H163983   4.873   0.175   2.838 -1.1686 -1.5193 -0.2024
14164TIP3    H263984   4.782   0.280   2.777 -0.3646 -0.3266  0.6226
14165TIP3   OH263985   0.006   2.489   2.143  0.1430  0.3491  0.1841
14165TIP3    H163986   0.051   2.573   2.130 -1.3768  1.5058  2.1824
14165TIP3    H263987  -0.035   2.471   2.059 -0.9167  2.4650  0.2126
14166TIP3   OH263988   6.069   5.706   5.095 -0.3501 -0.2004  0.2559
14166TIP3    H163989   6.091   5.707   5.002 -1.2075 -0.7961  0.0374
14166TIP3    H263990   6.046   5.615   5.113  0.9747 -0.3258  1.3385
14167TIP3   OH263991   0.637   6.284  11.481 -0.0731  0.4668  0.1678
14167TIP3    H163992   0.649   6.249  11.570  1.5700 -0.7330 -0.5108
14167TIP3    H263993   0.720   6.267  11.436 -1.0593  0.5941 -1.7640
14168TIP3   OH263994   3.984   5.865  11.481 -0.2720  0.4247 -0.0583
14168TIP3    H163995   4.054   5.925  11.453 -1.3385  1.3980 -0.6610
14168TIP3    H263996   3.911   5.884  11.422 -0.9984 -0.7044  0.4633
14169TIP3   OH263997   1.987   2.832   2.245 -0.0361  0.2141 -0.3623
14169TIP3    H163998   1.995   2.878   2.161  2.1709 -0.9808 -0.8316
14169TIP3    H263999   2.020   2.744   2.228 -1.9167 -0.8323  1.1588
14170TIP3   OH264000   3.270   3.207   5.516 -0.0585  0.1348  0.7175
14170TIP3    H164001   3.190   3.173   5.555  0.1144 -0.6798  0.3681
14170TIP3    H264002   3.245   3.230   5.427 -0.0169  0.3286  0.7553
14171TIP3   OH264003   1.536   4.560   3.467 -0.5500  0.0776  0.0384
14171TIP3    H164004   1.525   4.478   3.419  0.2109  0.7280 -1.2340
14171TIP3    H264005   1.618   4.596   3.436 -0.3543  0.8151  1.3759
14172TIP3   OH264006   5.946   6.262   0.329  0.2984 -0.1156  0.0524
14172TIP3    H164007   5.996   6.342   0.348 -0.6826  0.5227  0.0241
14172TIP3    H264008   5.994   6.192   0.373  0.2595  0.7519  1.5037
14173TIP3   OH264009   5.175   1.026   3.592  0.1053  0.3564  0.4561
14173TIP3    H164010   5.265   0.996   3.600 -0.0045  0.5091  2.5281
14173TIP3    H264011   5.128   0.951   3.555  0.5946 -0.6546  1.8510
14174TIP3   OH264012   5.788   6.178   0.976 -0.2480 -0.0588  0.5039
14174TIP3    H164013   5.872   6.159   1.017 -0.3770 -1.0493  0.3147
14174TIP3    H264014   5.807   6.184   0.882 -0.6458 -1.8057  0.3035
14175TIP3   OH264015   6.744   6.637  11.868  0.2303  0.0749 -0.3516
14175TIP3    H164016   6.740   6.687  11.950  0.1700 -0.2756 -0.1395
14175TIP3    H264017   6.814   6.679  11.818  0.4312  0.1384 -0.0194
14176TIP3   OH264018   4.242   0.194   4.239  0.6016 -0.4155 -0.0670
14176TIP3    H164019   4.185   0.135   4.189 -0.2638  1.7065 -1.6527
14176TIP3    H264020   4.300   0.233   4.174  0.8527  0.8326  0.8942
14177TIP3   OH264021   2.253   6.069   5.321  0.3335 -0.2935 -0.0029
14177TIP3    H164022   2.290   6.029   5.243  1.9008  1.7213 -0.3334
14177TIP3    H264023   2.294   6.021   5.394  0.8776 -0.4312 -0.3978
14178TIP3   OH264024   4.407   5.356  14.454 -0.2667  0.4822  0.1276
14178TIP3    H164025   4.340   5.409  14.496 -0.8894 -0.2167  0.0364
14178TIP3    H264026   4.359   5.306  14.387  0.4796  0.5829 -0.4924
14179TIP3   OH264027   3.070   0.993  14.555 -0.3548 -0.2191 -0.4542
14179TIP3    H164028   3.104   0.972  14.642 -0.2768 -0.4312 -0.5368
14179TIP3    H264029   3.084   0.914  14.504  0.0954  0.0903 -0.8127
14180TIP3   OH264030   1.941   4.708  17.007  0.7567  0.2202  0.5626
14180TIP3    H164031   1.976   4.638  16.952  0.8268  0.8811 -0.2489
14180TIP3    H264032   2.016   4.766  17.023  1.2668 -1.1027  3.1856
14181TIP3   OH264033   0.518   3.715  12.322 -0.3185 -0.4409 -0.0448
14181TIP3    H164034   0.606   3.685  12.348  0.1566  2.2400  1.6564
14181TIP3    H264035   0.518   3.709  12.227  1.1403 -1.9760  0.0274
14182TIP3   OH264036   4.658   2.682  17.261  0.4813  0.2695 -0.6682
14182TIP3    H164037   4.663   2.665  17.356  0.1848 -1.9239 -1.0148
14182TIP3    H264038   4.619   2.770  17.255 -0.7410 -0.0922  1.2292
14183TIP3   OH264039   5.828   5.694   5.272  0.2432 -0.0304 -0.1576
14183TIP3    H164040   5.737   5.677   5.294  0.4621 -0.5245  0.3716
14183TIP3    H264041   5.825   5.729   5.183 -0.4711  0.0776 -0.0934
14184TIP3   OH264042   3.202   6.422   0.045  0.1386 -0.1598 -0.3648
14184TIP3    H164043   3.170   6.344  -0.000 -0.1049 -0.1780 -0.1623
14184TIP3    H264044   3.189   6.403   0.138 -1.7719  0.8966 -0.3713
14185TIP3   OH264045   6.327   3.958   5.681 -0.6585 -0.4289  0.4488
14185TIP3    H164046   6.339   3.863   5.676  2.2865 -0.1579  1.1880
14185TIP3    H264047   6.379   3.984   5.757  1.3784  2.1687 -1.7413
14186TIP3   OH264048   1.209   0.686   4.132  0.1723 -0.0077 -0.1433
14186TIP3    H164049   1.270   0.615   4.112 -0.9879 -0.8246 -0.8146
14186TIP3    H264050   1.191   0.728   4.048  0.3042  0.6546  0.1476
14187TIP3   OH264051   4.498   2.250  11.457 -0.0025  0.0878  0.0272
14187TIP3    H164052   4.413   2.208  11.470  0.3366 -0.3782  0.7464
14187TIP3    H264053   4.476   2.341  11.434 -0.7153 -0.3418 -0.9934
14188TIP3   OH264054   3.598   2.902  10.599 -0.3173  0.0322  0.2631
14188TIP3    H164055   3.611   2.912  10.693  0.5832 -0.4971  0.2070
14188TIP3    H264056   3.674   2.850  10.570 -1.0456 -0.5657 -0.5998
14189TIP3   OH264057   5.597   4.107   0.076  0.3545  0.0058 -0.3978
14189TIP3    H164058   5.505   4.081   0.070  0.8353 -1.9477  0.2023
14189TIP3    H264059   5.645   4.034   0.037  1.7139  0.4031  0.4700
14190TIP3   OH264060   3.134   5.242  17.264 -0.0477  0.0102  0.0612
14190TIP3    H164061   3.085   5.311  17.219  0.9045  0.4775 -0.2855
14190TIP3    H264062   3.222   5.248  17.227  0.4998 -0.2394  1.3097
14191TIP3   OH264063   5.783   2.888  15.489 -0.0352  0.7104  0.5905
14191TIP3    H164064   5.814   2.948  15.422 -3.0546  0.4329 -1.1461
14191TIP3    H264065   5.747   2.814  15.441 -1.1705 -0.0507  2.5286
14192TIP3   OH264066   5.096   5.384   5.423 -0.2567  0.3230 -0.5064
14192TIP3    H164067   5.113   5.304   5.375 -2.0197 -0.2406 -0.2092
14192TIP3    H264068   5.017   5.421   5.383  0.7463  2.1196 -0.8954
14193TIP3   OH264069   1.265   3.736  13.363 -0.2122 -0.4003 -0.0025
14193TIP3    H164070   1.304   3.781  13.288 -0.0107 -1.7534 -0.7051
14193TIP3    H264071   1.265   3.803  13.432 -0.5580  0.9047 -1.2317
14194TIP3   OH264072   1.945   0.680   5.164  0.1049 -0.4109 -0.0140
14194TIP3    H164073   1.982   0.756   5.210  1.9007 -0.1090 -1.9162
14194TIP3    H264074   1.850   0.695   5.166  0.4076  1.6264  0.0792
14195TIP3   OH264075   6.304   4.679  10.668 -0.1207  0.5154 -0.5618
14195TIP3    H164076   6.352   4.637  10.597 -1.2345  0.8031 -1.4989
14195TIP3    H264077   6.361   4.669  10.745 -0.2601 -2.4998 -0.7786
14196TIP3   OH264078   1.309   5.282   4.956 -0.0208 -0.6701 -0.1082
14196TIP3    H164079   1.305   5.271   4.861  0.5237 -1.2323 -0.0747
14196TIP3    H264080   1.243   5.221   4.990 -0.3496 -0.3280 -0.1367
14197TIP3   OH264081   2.821   3.929  11.636  0.2353 -0.7339  0.1005
14197TIP3    H164082   2.816   4.016  11.597 -1.3844 -1.0016 -0.3164
14197TIP3    H264083   2.788   3.941  11.725 -0.2078 -0.9604 -0.0316
14198TIP3   OH264084   5.085   2.140   5.105 -0.1109 -0.4983  0.4899
14198TIP3    H164085   5.170   2.178   5.124 -0.8232  1.2941  0.1964
14198TIP3    H264086   5.047   2.123   5.192 -0.4160  0.9187  0.6384
14199TIP3   OH264087   6.477   2.388  16.005 -0.1330 -0.5863  0.3559
14199TIP3    H164088   6.389   2.409  16.035 -0.1492  0.0024 -0.0866
14199TIP3    H264089   6.478   2.292  15.998 -1.1256 -0.5279 -0.8001
14200TIP3   OH264090   0.361   1.537  15.375 -0.5622 -0.3105  0.0078
14200TIP3    H164091   0.436   1.554  15.432 -0.5291  0.8595 -0.3678
14200TIP3    H264092   0.302   1.484  15.429 -0.9291  1.4953  1.4624
14201TIP3   OH264093   3.844   2.702   3.449  0.2192  0.2272  0.4351
14201TIP3    H164094   3.837   2.658   3.364 -1.6695  0.9090  0.2145
14201TIP3    H264095   3.925   2.752   3.443  0.0660  0.3322 -1.0022
14202TIP3   OH264096   0.864   1.340  13.038  0.2315  0.4183  0.4073
14202TIP3    H164097   0.857   1.397  12.962  1.4713 -0.4827 -0.3911
14202TIP3    H264098   0.929   1.383  13.094  0.9561 -0.0667 -0.0621
14203TIP3   OH264099   4.921   0.862   2.178 -0.4700 -0.3585  0.0505
14203TIP3    H164100   5.014   0.885   2.178 -0.5908  0.1214 -0.5067
14203TIP3    H264101   4.901   0.846   2.271  0.4609 -1.6840  0.0267
14204TIP3   OH264102   6.049   1.852   0.792 -0.5460  0.0683  0.8056
14204TIP3    H164103   5.960   1.825   0.769 -0.0142 -1.7421  0.7929
14204TIP3    H264104   6.095   1.770   0.809  0.6038  1.0771  2.7603
14205TIP3   OH264105   6.329   0.992  13.185  0.3556 -0.1313 -0.1434
14205TIP3    H164106   6.239   0.965  13.198  0.6950 -1.1718  0.0603
14205TIP3    H264107   6.343   0.986  13.091 -0.1666  1.2628 -0.3223
14206TIP3   OH264108   2.828   2.377  15.394  0.1779 -0.2717 -0.2225
14206TIP3    H164109   2.806   2.462  15.431  0.2073 -0.7610  0.9303
14206TIP3    H264110   2.745   2.340  15.365  0.0224 -0.3285  0.3005
14207TIP3   OH264111   5.249   6.500  15.429 -0.1441  0.4584  0.1557
14207TIP3    H164112   5.203   6.510  15.346 -0.8377  1.6331  0.6559
14207TIP3    H264113   5.287   6.586  15.446  2.5413 -0.5868 -0.3972
14208TIP3   OH264114   1.947   0.839   2.679 -0.0636  0.1416  0.7049
14208TIP3    H164115   1.982   0.756   2.712 -2.8655 -1.0205  0.9297
14208TIP3    H264116   1.980   0.844   2.589 -0.3616 -1.5530  0.4758
14209TIP3   OH264117   5.012   5.879  12.140  0.4395 -0.4336 -0.2899
14209TIP3    H164118   5.047   5.953  12.189  0.8272 -0.3512 -0.6863
14209TIP3    H264119   5.087   5.822  12.126  0.0920 -1.0075  0.2127
14210TIP3   OH264120   3.477   0.182  14.649  0.0251  0.1191 -0.1400
14210TIP3    H164121   3.405   0.212  14.705  1.7011  1.2261  1.5001
14210TIP3    H264122   3.497   0.257  14.593 -1.3026 -0.8124 -1.8770
14211TIP3   OH264123   5.444   2.623  11.709  0.3823 -0.1492 -0.5488
14211TIP3    H164124   5.423   2.530  11.703 -0.4134 -0.1305  1.6870
14211TIP3    H264125   5.525   2.627  11.760  0.0692  0.4183 -0.0846
14212TIP3   OH264126   1.700   5.062  16.105 -0.5174  0.3797 -0.1821
14212TIP3    H164127   1.709   5.143  16.155  1.1769  0.3069 -0.3342
14212TIP3    H264128   1.711   4.992  16.171 -0.5519  0.2858 -0.2778
14213TIP3   OH264129   0.687   1.042   3.626  0.5794 -0.1782 -0.0036
14213TIP3    H164130   0.628   1.018   3.697 -0.9415  1.4736 -0.6616
14213TIP3    H264131   0.741   1.113   3.662  2.1983 -1.6623  0.5867
14214TIP3   OH264132   6.335   2.448  14.160 -0.1085  0.0703  0.0118
14214TIP3    H164133   6.372   2.448  14.072 -1.7243  0.0903 -0.6909
14214TIP3    H264134   6.347   2.358  14.191  1.0760  0.2364  0.0430
14215TIP3   OH264135   4.570   1.379  13.105  0.1531 -0.2199 -0.2059
14215TIP3    H164136   4.651   1.415  13.143  0.0427 -1.0520  0.8561
14215TIP3    H264137   4.574   1.286  13.127 -1.3179 -0.1775  0.2423
14216TIP3   OH264138   6.182   2.322   0.735  0.3053 -0.0482 -0.1457
14216TIP3    H164139   6.217   2.371   0.809  0.0377  0.3537 -0.2827
14216TIP3    H264140   6.209   2.373   0.658 -0.6981  0.3400 -0.2442
14217TIP3   OH264141   2.200   0.483   5.680  0.3241  0.5421 -0.0081
14217TIP3    H164142   2.182   0.523   5.594  1.2697 -0.3918 -0.6519
14217TIP3    H264143   2.154   0.399   5.678 -0.2621  0.8341  0.7008
14218TIP3   OH264144   0.350   4.529  16.422  0.1665 -0.9302 -0.8156
14218TIP3    H164145   0.256   4.547  16.422  0.7203  2.0822 -0.0510
14218TIP3    H264146   0.377   4.544  16.331  0.2684  0.1250 -0.6092
14219TIP3   OH264147   6.787   6.564   0.009  0.6515  0.0629 -0.0295
14219TIP3    H164148   6.876   6.596   0.022  0.7062  0.0772 -0.4479
14219TIP3    H264149   6.731   6.640   0.027  0.6778 -0.1634  1.0769
14220TIP3   OH264150   3.896   0.203   2.761 -0.4968  0.2783 -0.2330
14220TIP3    H164151   3.950   0.208   2.682 -1.7422 -1.3028 -1.2162
14220TIP3    H264152   3.811   0.236   2.733 -1.0863 -0.7637  0.3037
14221TIP3   OH264153   5.498   6.350   4.818 -0.6794 -0.1273  0.0795
14221TIP3    H164154   5.546   6.357   4.900  0.4553  1.7198 -0.7219
14221TIP3    H264155   5.464   6.438   4.802  1.3307  0.2241 -2.7276
14222TIP3   OH264156   0.593   5.936   3.396  0.3750 -0.3656 -0.3035
14222TIP3    H164157   0.505   5.918   3.362 -0.2051  1.0233  0.3918
14222TIP3    H264158   0.645   5.955   3.318 -0.0343 -0.8678 -0.6966
14223TIP3   OH264159   1.750   1.102  13.842 -0.4273  0.1942 -0.0593
14223TIP3    H164160   1.824   1.136  13.792 -0.6368  1.4208  0.4596
14223TIP3    H264161   1.774   1.011  13.862  1.9372  1.2059  1.9604
14224TIP3   OH264162   2.158   6.800  12.951  0.4336 -0.1576 -0.0788
14224TIP3    H164163   2.234   6.859  12.958 -1.1323  2.1804 -1.8686
14224TIP3    H264164   2.087   6.847  12.994 -0.3034 -1.8063  0.5375
14225TIP3   OH264165   1.260   6.765  15.041 -0.1008 -0.4312 -0.2411
14225TIP3    H164166   1.165   6.782  15.040  0.0701  0.5194 -2.2795
14225TIP3    H264167   1.298   6.836  14.990  1.8551 -0.1904  1.4715
14226TIP3   OH264168   3.186   4.007  12.630 -0.0850 -0.0422  0.0594
14226TIP3    H164169   3.198   4.013  12.725 -0.6061 -0.1490  0.1324
14226TIP3    H264170   3.271   4.032  12.594  0.4298 -1.0307  0.5706
14227TIP3   OH264171   5.194   0.769   3.444 -0.1756  0.8857  0.1413
14227TIP3    H164172   5.151   0.808   3.368 -0.5231  0.7615  0.2710
14227TIP3    H264173   5.142   0.691   3.463  0.5766  0.2973 -0.1800
14228TIP3   OH264174   5.912   5.756   2.411 -0.2682  0.1235 -0.0212
14228TIP3    H164175   5.963   5.800   2.478  2.0022 -0.9945 -0.9704
14228TIP3    H264176   5.876   5.679   2.455 -1.8000  1.3193  0.8482
14229TIP3   OH264177   1.081   5.658  10.634 -0.0280 -0.9386 -0.4152
14229TIP3    H164178   1.019   5.591  10.606  0.3780 -0.3965 -2.7061
14229TIP3    H264179   1.162   5.636  10.589  0.8062 -0.3137  0.7560
14230TIP3   OH264180   4.962   0.503  12.621 -0.1595 -0.1803 -0.2105
14230TIP3    H164181   4.986   0.410  12.621 -0.0015 -0.1747 -2.7758
14230TIP3    H264182   4.909   0.514  12.542 -0.2900  1.8846  0.1474
14231TIP3   OH264183   3.451   2.017   3.940  0.3095 -0.8778 -0.1350
14231TIP3    H164184   3.467   2.007   4.034  1.1730 -0.1338 -0.1970
14231TIP3    H264185   3.360   2.045   3.935  0.4813 -0.1626  0.5343
14232TIP3   OH264186   4.366   4.535  11.565  0.1602  0.8516 -0.1779
14232TIP3    H164187   4.314   4.610  11.593 -0.8599  0.6880 -1.5627
14232TIP3    H264188   4.429   4.572  11.502  0.3820  0.7298 -0.0285
14233TIP3   OH264189   6.717   0.063  16.065 -0.5415 -0.4032  0.3554
14233TIP3    H164190   6.714   0.021  16.151  0.9718 -0.5704  0.3392
14233TIP3    H264191   6.726  -0.010  16.003  1.3720 -0.1273  0.2783
14234TIP3   OH264192   2.934   3.575  13.344 -0.4113  0.1488 -0.5324
14234TIP3    H164193   2.873   3.515  13.302 -0.6154  1.0827 -1.6073
14234TIP3    H264194   2.947   3.645  13.280 -1.2822  1.9910  1.2214
14235TIP3   OH264195   1.437   1.560  14.699  0.8206  0.1916  0.2934
14235TIP3    H164196   1.516   1.513  14.726 -1.4678 -2.4357  2.5686
14235TIP3    H264197   1.430   1.542  14.605  2.1451 -0.7341  0.3605
14236TIP3   OH264198   2.659   3.205  13.106 -0.0631 -0.0775  0.2515
14236TIP3    H164199   2.595   3.134  13.108 -0.4465  0.2138 -1.1251
14236TIP3    H264200   2.739   3.164  13.074 -1.0494  0.6569 -3.3460
14237TIP3   OH264201   2.966   1.122  12.759  0.1721  0.3708 -0.0042
14237TIP3    H164202   3.050   1.140  12.800  1.2723 -1.7844 -1.2340
14237TIP3    H264203   2.978   1.038  12.714 -2.3628  0.4443 -0.9249
14238TIP3   OH264204   0.026   3.471   2.996 -0.0280  0.2807 -0.3954
14238TIP3    H164205   0.064   3.483   2.909 -0.1047  0.1683 -0.4451
14238TIP3    H264206  -0.067   3.455   2.979  0.1449 -0.7971 -0.3591
14239TIP3   OH264207   0.225   1.326   4.464 -0.1950  0.2501 -0.1000
14239TIP3    H164208   0.229   1.255   4.400  1.1953 -0.2670  0.5371
14239TIP3    H264209   0.283   1.394   4.428 -1.2721  0.9340 -0.5510
14240TIP3   OH264210   2.828   3.657   1.950 -0.0064  0.4384  0.5075
14240TIP3    H164211   2.894   3.694   1.892 -0.4080  1.2582  0.5644
14240TIP3    H264212   2.752   3.715   1.940  0.0736  0.8497  2.1677
14241TIP3   OH264213   6.071   5.276  12.053 -0.2611 -0.1076  0.3197
14241TIP3    H164214   5.990   5.326  12.041  0.1050  0.8040  1.5450
14241TIP3    H264215   6.051   5.214  12.123  0.1416  0.1982  0.7044
14242TIP3   OH264216   0.041   5.675   4.536  0.5793  0.1970  0.2271
14242TIP3    H164217   0.086   5.746   4.582  1.2599  1.0875 -1.7818
14242TIP3    H264218  -0.032   5.652   4.594  0.4839  2.3664  1.0193
14243TIP3   OH264219   2.295   6.029  11.855 -0.0013  0.0446  0.1634
14243TIP3    H164220   2.278   5.968  11.784 -0.7334  1.1567 -0.6333
14243TIP3    H264221   2.273   6.115  11.819  1.5642  0.8638  1.0692
14244TIP3   OH264222   1.338   2.254  12.491  0.8905  0.0058  0.2423
14244TIP3    H164223   1.246   2.227  12.481  0.8214  0.5355 -0.5314
14244TIP3    H264224   1.378   2.182  12.539  0.2803 -0.6499 -0.2157
14245TIP3   OH264225   3.858   3.153   3.693 -0.3729  0.1507 -0.2492
14245TIP3    H164226   3.802   3.114   3.759 -0.5398  1.0419  0.1478
14245TIP3    H264227   3.858   3.090   3.621  1.1110 -1.5986  1.2257
14246TIP3   OH264228   2.810   5.717   4.181  0.3003 -0.5894 -0.5257
14246TIP3    H164229   2.902   5.693   4.173  0.6058  0.2271  0.4855
14246TIP3    H264230   2.786   5.691   4.270  0.6126  2.7335  0.5766
14247TIP3   OH264231   3.197   1.529   2.637  0.3512  0.0559 -0.5413
14247TIP3    H164232   3.249   1.589   2.582  2.1383 -1.2516 -0.3144
14247TIP3    H264233   3.261   1.488   2.694 -1.0922 -0.9146  0.4017
14248TIP3   OH264234   3.338   2.499  12.771  0.5645 -0.1843 -0.2189
14248TIP3    H164235   3.409   2.445  12.738  1.3672 -0.1269  1.3475
14248TIP3    H264236   3.379   2.584  12.789 -0.3449  0.4837 -1.1941
14249TIP3   OH264237   5.567   4.636  13.351 -0.6033 -0.3655  0.3455
14249TIP3    H164238   5.591   4.563  13.408 -1.8874 -1.0576  0.0085
14249TIP3    H264239   5.608   4.615  13.266  0.2044  0.0192  0.6285
14250TIP3   OH264240   1.406   0.793  13.554 -0.1846 -0.0557  0.3803
14250TIP3    H164241   1.492   0.752  13.550  0.0214  0.2226  1.6069
14250TIP3    H264242   1.397   0.840  13.471 -0.7480 -3.1754 -1.4191
14251TIP3   OH264243   5.634   2.105   2.451  0.5108  0.0601  0.3913
14251TIP3    H164244   5.610   2.191   2.417 -0.7569 -0.2535  0.4875
14251TIP3    H264245   5.683   2.124   2.531  3.7300  0.8164 -1.6608
14252TIP3   OH264246   4.276   4.286  14.680  0.1780 -0.0641  0.2721
14252TIP3    H164247   4.192   4.267  14.722  1.3679 -1.9515  1.9334
14252TIP3    H264248   4.341   4.257  14.744  2.0829  0.3439 -1.4378
14253TIP3   OH264249   4.800   1.116  11.409 -0.2869  0.4207 -0.2947
14253TIP3    H164250   4.721   1.170  11.409 -0.1576  0.6099 -0.2710
14253TIP3    H264251   4.846   1.140  11.329 -0.5693 -0.1565 -0.6372
14254TIP3   OH264252   5.306   4.111   0.029 -0.0055 -0.3201 -0.3813
14254TIP3    H164253   5.313   4.195  -0.015 -1.1931 -0.0825 -0.1305
14254TIP3    H264254   5.234   4.066  -0.016  0.0600 -0.8548  0.0397
14255TIP3   OH264255   4.047   5.237  16.793  0.0035 -0.3951 -0.0117
14255TIP3    H164256   3.962   5.280  16.796 -1.0615 -2.4593  1.0650
14255TIP3    H264257   4.107   5.303  16.759 -2.3364  0.5769 -2.4205
14256TIP3   OH264258   1.691   6.474  17.137  0.5987 -0.1409  0.6386
14256TIP3    H164259   1.632   6.547  17.158  0.7464  0.0532  0.3877
14256TIP3    H264260   1.634   6.406  17.103  0.4503 -0.1664  0.9362
14257TIP3   OH264261   5.049   1.837  14.777 -0.0387 -0.0733  0.4875
14257TIP3    H164262   5.108   1.828  14.702  1.1029 -1.3037  1.4876
14257TIP3    H264263   5.019   1.927  14.774 -1.0400 -0.4621 -2.1924
14258TIP3   OH264264   3.637   5.253   3.769  0.6736  0.3094 -0.1913
14258TIP3    H164265   3.657   5.240   3.677 -1.1902 -0.8434 -0.4554
14258TIP3    H264266   3.589   5.336   3.771 -1.7625 -1.0275 -0.6751
14259TIP3   OH264267   0.417   4.710  15.697  0.3205  0.6084 -0.2489
14259TIP3    H164268   0.431   4.760  15.617 -0.4228  0.9844 -0.1430
14259TIP3    H264269   0.325   4.724  15.719  0.2512 -0.3451  0.0923
14260TIP3   OH264270   4.286   2.255   2.892 -0.5240  0.2925 -0.2604
14260TIP3    H164271   4.196   2.271   2.863 -0.7579  0.6703  0.6526
14260TIP3    H264272   4.277   2.214   2.978  0.1690  2.7152  1.0397
14261TIP3   OH264273   1.757   6.191   2.296  0.8314  0.2997 -0.1165
14261TIP3    H164274   1.838   6.241   2.295  0.2473  1.2489 -1.4441
14261TIP3    H264275   1.693   6.250   2.336  0.3283  0.3174 -0.9377
14262TIP3   OH264276   0.908   1.789  13.324 -1.0063  0.1260  0.6050
14262TIP3    H164277   0.812   1.796  13.320 -0.9657  0.5533  0.3649
14262TIP3    H264278   0.940   1.872  13.289 -0.5340 -0.3702 -0.1593
14263TIP3   OH264279   1.778   5.636  16.364  0.1494  0.4272 -0.0002
14263TIP3    H164280   1.786   5.711  16.304 -0.2510 -0.6716 -1.4628
14263TIP3    H264281   1.851   5.646  16.425 -0.4237  2.5041  0.3907
14264TIP3   OH264282   5.187   4.520  11.493  0.2839  0.6142 -0.2980
14264TIP3    H164283   5.252   4.588  11.514 -0.6716  1.0133  1.5278
14264TIP3    H264284   5.127   4.562  11.431 -0.0321  1.2997  0.4612
14265TIP3   OH264285   3.996   0.690   2.513  0.3025 -0.5574  0.3061
14265TIP3    H164286   3.904   0.670   2.531 -0.3610  1.5728 -0.4786
14265TIP3    H264287   4.025   0.738   2.590  1.1929 -2.4231  1.1615
14266TIP3   OH264288   2.901   4.584  13.823  0.4292  0.4478  0.1043
14266TIP3    H164289   2.839   4.658  13.822  1.0245  0.9383 -0.7002
14266TIP3    H264290   2.856   4.516  13.774 -0.0388  0.3354  0.6765
14267TIP3   OH264291   2.899   0.121   0.916  0.1616  0.4190 -0.0828
14267TIP3    H164292   2.840   0.180   0.962  0.0478  1.5773 -1.6696
14267TIP3    H264293   2.845   0.046   0.893 -0.0188  0.2715  0.8051
14268TIP3   OH264294   6.742   4.752   1.144  0.1650 -0.7244 -0.0809
14268TIP3    H164295   6.793   4.749   1.225  0.7281 -0.7757 -0.4355
14268TIP3    H264296   6.805   4.730   1.076 -0.2846 -0.5669 -0.5444
14269TIP3   OH264297   3.214   2.241   1.826  0.0573 -0.5458 -0.1088
14269TIP3    H164298   3.294   2.292   1.810  0.6546 -2.0411 -2.0349
14269TIP3    H264299   3.144   2.306   1.822  0.8792  0.2641 -1.7850
14270TIP3   OH264300   2.239   0.284  14.031  0.0183 -0.0038 -0.2803
14270TIP3    H164301   2.306   0.301  14.097 -1.6346 -0.1494  1.5031
14270TIP3    H264302   2.200   0.370  14.013  0.6232  0.0707 -1.2525
14271TIP3   OH264303   4.933   4.945  10.929 -0.2561 -0.6295  0.4982
14271TIP3    H164304   4.878   4.909  10.860 -0.6529 -1.4831  1.2408
14271TIP3    H264305   4.882   5.018  10.965  0.3848  0.4526 -0.7595
14272TIP3   OH264306   6.506   6.092  11.662  0.5490 -0.3823 -0.0519
14272TIP3    H164307   6.542   6.172  11.701 -1.4916  1.3647 -1.6356
14272TIP3    H264308   6.429   6.072  11.714 -1.3645  1.1459 -2.2015
14273TIP3   OH264309   3.261   3.562   1.040  0.9343 -0.1098  0.2274
14273TIP3    H164310   3.356   3.566   1.032  0.8464  0.5254 -0.7040
14273TIP3    H264311   3.229   3.575   0.950 -0.0332  0.2440  0.6088
14274TIP3   OH264312   5.151   5.416  11.022 -0.2423  0.1218 -0.0304
14274TIP3    H164313   5.094   5.492  11.015 -0.6778 -0.1997  0.0416
14274TIP3    H264314   5.173   5.409  11.115  0.1780  0.4384 -0.1055
14275TIP3   OH264315   2.649   4.734  12.854  0.0455  0.7600  0.0069
14275TIP3    H164316   2.564   4.713  12.894 -0.6474  2.7784 -0.3689
14275TIP3    H264317   2.708   4.667  12.889 -2.0108 -1.6258 -0.9480
14276TIP3   OH264318   0.880   3.838   5.384  0.5212  0.4633 -0.2818
14276TIP3    H164319   0.949   3.789   5.339  0.7769  0.5961 -0.0377
14276TIP3    H264320   0.845   3.776   5.448  1.5949  0.9440  0.7864
14277TIP3   OH264321   5.821   1.417   2.587  0.5687  0.0302 -0.8164
14277TIP3    H164322   5.789   1.472   2.659  1.5369  0.8641 -1.0164
14277TIP3    H264323   5.797   1.465   2.508 -0.5981 -0.9447 -1.0691
14278TIP3   OH264324   2.212   3.042  10.892 -0.2941  0.0939  0.3191
14278TIP3    H164325   2.190   3.062  10.801 -1.6747  0.8351  0.8030
14278TIP3    H264326   2.185   2.951  10.903  0.9515 -0.3721 -0.3293
14279TIP3   OH264327   1.189   3.553   4.129 -0.4658  0.0428  0.4310
14279TIP3    H164328   1.168   3.647   4.127 -1.2195 -0.1285  0.0618
14279TIP3    H264329   1.109   3.511   4.099  0.9017 -0.5749 -2.4192
14280TIP3   OH264330   6.529   3.810   1.413  0.6479 -0.0400 -0.1560
14280TIP3    H164331   6.606   3.776   1.458  1.0536  1.3526  0.2476
14280TIP3    H264332   6.455   3.775   1.461  1.0681  0.4789  0.8895
14281TIP3   OH264333   2.229   5.459   4.628  0.6011 -0.6387  0.3686
14281TIP3    H164334   2.135   5.460   4.606  0.8550 -1.7640 -0.8003
14281TIP3    H264335   2.253   5.552   4.633 -0.0970 -0.3335 -1.4307
14282TIP3   OH264336   5.685   0.538  11.030 -0.6604 -0.1735 -0.0410
14282TIP3    H164337   5.753   0.532  10.963  0.2399 -0.1466  0.8588
14282TIP3    H264338   5.689   0.629  11.060 -0.9180 -0.2378  0.1923
14283TIP3   OH264339   3.069   1.414   5.665 -0.3506 -0.5329 -0.4750
14283TIP3    H164340   3.028   1.492   5.701 -0.5554 -0.3182 -1.1687
14283TIP3    H264341   3.068   1.351   5.737  1.8866  0.8503  0.8232
14284TIP3   OH264342   4.716   0.617  16.683 -0.4440 -0.2917  0.6563
14284TIP3    H164343   4.720   0.555  16.756  1.0059 -1.6984 -0.5838
14284TIP3    H264344   4.723   0.562  16.605 -1.1130  1.2753 -0.5228
14285TIP3   OH264345   0.617   2.948   0.772  0.2286  0.1418 -0.1110
14285TIP3    H164346   0.687   3.013   0.774  0.1948  0.2054 -0.6831
14285TIP3    H264347   0.544   2.992   0.728  0.1881 -0.2568 -0.4563
14286TIP3   OH264348   3.081   2.004  12.688 -0.1819  0.0309 -0.2862
14286TIP3    H164349   3.026   2.055  12.629 -2.0214 -1.0024  0.4989
14286TIP3    H264350   3.098   2.062  12.762 -0.4325  0.2641 -0.4127
14287TIP3   OH264351   5.322   4.003   1.744  1.0001  0.2958  0.1849
14287TIP3    H164352   5.245   4.053   1.769  0.5848  0.5988 -1.6570
14287TIP3    H264353   5.319   3.925   1.800 -1.6835 -0.6203 -1.1914
14288TIP3   OH264354   0.837   1.198   5.562  0.3577  0.0788  0.3879
14288TIP3    H164355   0.805   1.267   5.503  0.5773 -0.5079 -0.4235
14288TIP3    H264356   0.785   1.209   5.642 -1.3532 -0.3900 -0.6489
14289TIP3   OH264357   6.711   6.429   4.595  0.0301 -0.0189 -0.0181
14289TIP3    H164358   6.645   6.498   4.604 -1.1725 -0.8405 -2.2392
14289TIP3    H264359   6.669   6.363   4.540  1.9742 -1.5202  0.2583
14290TIP3   OH264360   2.465   0.616  13.077 -0.2509 -0.2553  0.3378
14290TIP3    H164361   2.410   0.538  13.081 -2.4961  1.1386 -1.4738
14290TIP3    H264362   2.542   0.590  13.028  0.4109 -2.0717  2.2850
14291TIP3   OH264363   1.156   2.357   4.386  0.3348 -0.4252 -0.8115
14291TIP3    H164364   1.215   2.308   4.328  2.3913 -0.5148  1.2538
14291TIP3    H264365   1.207   2.434   4.412 -0.2832 -0.7161  1.3343
14292TIP3   OH264366   1.836   3.168   3.679 -0.4362  0.0676  0.1962
14292TIP3    H164367   1.842   3.247   3.625  0.9245 -1.3407 -1.7784
14292TIP3    H264368   1.783   3.107   3.628  0.2562 -1.0339  0.7485
14293TIP3   OH264369   6.274   1.110   4.859  0.2910  0.1889  0.1516
14293TIP3    H164370   6.308   1.165   4.789  2.6268 -0.2894  0.8593
14293TIP3    H264371   6.228   1.039   4.814 -0.2427  1.1391 -0.8162
14294TIP3   OH264372   2.684   0.382   2.194  0.0895 -0.5050  0.1084
14294TIP3    H164373   2.647   0.363   2.108  0.0159  2.0417 -0.4491
14294TIP3    H264374   2.608   0.387   2.252 -0.0353 -0.0774 -0.0931
14295TIP3   OH264375   3.582   1.711   1.897  0.2899  0.0997  0.5687
14295TIP3    H164376   3.669   1.748   1.914  0.2516  0.4449  0.0372
14295TIP3    H264377   3.598   1.621   1.871  0.5872  0.5564 -0.8430
14296TIP3   OH264378   0.532   6.762   5.415 -0.1384  0.3155  0.5504
14296TIP3    H164379   0.437   6.769   5.407  0.0401  1.7446 -0.5621
14296TIP3    H264380   0.562   6.743   5.326  0.5844 -0.6608  0.9921
14297TIP3   OH264381   4.517   2.946   2.170  0.9669 -0.0748 -0.2914
14297TIP3    H164382   4.600   2.936   2.122 -0.7899  1.5369 -3.8517
14297TIP3    H264383   4.542   2.992   2.250  3.7066 -0.8893 -0.6135
14298TIP3   OH264384   1.649   1.442  13.569 -0.0846 -0.4391 -0.3376
14298TIP3    H164385   1.583   1.468  13.505 -0.2050 -1.0984 -0.4926
14298TIP3    H264386   1.700   1.521  13.585 -0.4843 -0.0959 -0.7311
14299TIP3   OH264387   0.367   4.908  13.324  0.5541  0.3869 -0.1700
14299TIP3    H164388   0.329   4.823  13.300 -1.3625  1.4303 -0.9207
14299TIP3    H264389   0.365   4.908  13.420 -1.3101  0.3861 -0.1926
14300TIP3   OH264390   2.864   1.001  11.723  0.7588  0.2265  0.2162
14300TIP3    H164391   2.893   1.092  11.734  2.0029 -0.1017 -0.1929
14300TIP3    H264392   2.861   0.989  11.628  2.1507 -0.6146  0.2544
14301TIP3   OH264393   5.154   2.255   5.553  0.2453  0.3412  0.2271
14301TIP3    H164394   5.135   2.348   5.546 -0.3308  0.3040  1.2446
14301TIP3    H264395   5.229   2.242   5.495  1.9470  1.9275  1.9774
14302TIP3   OH264396   6.197   4.539   4.205 -0.1896  0.0675 -0.5935
14302TIP3    H164397   6.157   4.515   4.121  0.0991  0.9070 -0.9826
14302TIP3    H264398   6.289   4.517   4.194  0.1450  1.6593 -1.0861
14303TIP3   OH264399   1.301   3.999  10.466 -0.1638 -0.3246  0.1646
14303TIP3    H164400   1.318   3.905  10.470 -3.1270 -0.9318 -0.0780
14303TIP3    H264401   1.384   4.040  10.490  0.8695 -3.0205  1.3793
14304TIP3   OH264402   3.302   4.886  14.365 -0.7753 -0.3629 -0.1956
14304TIP3    H164403   3.235   4.885  14.296 -1.0434 -1.6319  0.0571
14304TIP3    H264404   3.324   4.978  14.377 -3.7545  0.2512  0.9292
14305TIP3   OH264405   3.305   4.041  15.383  0.0130  0.0156 -0.5858
14305TIP3    H164406   3.342   4.082  15.461 -0.0023 -1.5215  0.2492
14305TIP3    H264407   3.366   3.971  15.361 -2.0595 -2.1848  0.4585
14306TIP3   OH264408   0.649   3.811  15.044  0.4924  0.2429 -0.2539
14306TIP3    H164409   0.559   3.786  15.025  1.0218 -0.0290 -2.4783
14306TIP3    H264410   0.647   3.906  15.049  0.2813  0.3132 -1.4982
14307TIP3   OH264411   2.769   5.398  15.546 -0.1813 -0.2042 -0.3538
14307TIP3    H164412   2.686   5.350  15.542  1.1433 -2.5091 -0.8386
14307TIP3    H264413   2.799   5.388  15.636 -0.6334  1.0280 -0.0534
14308TIP3   OH264414   0.927   2.816   0.481 -0.2879 -0.0818 -0.2486
14308TIP3    H164415   0.841   2.809   0.524 -0.0570  2.9107  0.7958
14308TIP3    H264416   0.910   2.868   0.403  0.3187 -0.7677 -0.8370
14309TIP3   OH264417   6.199   4.517   5.268  0.0551 -0.4157  0.0190
14309TIP3    H164418   6.135   4.555   5.328 -0.3504 -0.9435 -0.0712
14309TIP3    H264419   6.283   4.556   5.294 -0.4750  1.2359 -0.6780
14310TIP3   OH264420   0.655   1.093   4.617  0.1292 -0.2704  0.0494
14310TIP3    H164421   0.594   1.147   4.666 -0.4291 -0.8190 -0.0384
14310TIP3    H264422   0.623   1.004   4.628 -0.1461 -0.3842 -1.4875
14311TIP3   OH264423   5.597   5.066   0.869 -0.5137  0.3751  0.0456
14311TIP3    H164424   5.685   5.090   0.899 -0.7686  1.4013 -0.0153
14311TIP3    H264425   5.540   5.091   0.941 -1.1495  3.0168 -1.3333
14312TIP3   OH264426   4.621   5.796   0.445 -0.4580 -0.5223 -0.1662
14312TIP3    H164427   4.699   5.804   0.500 -0.5324  1.8533 -0.3660
14312TIP3    H264428   4.562   5.864   0.477 -1.3595 -0.5154 -1.8119
14313TIP3   OH264429   2.250   3.944  16.173  0.3340  0.0191 -0.0109
14313TIP3    H164430   2.323   3.902  16.218 -0.1149 -1.4523 -0.6227
14313TIP3    H264431   2.291   4.001  16.108  0.9454 -1.5859 -1.0607
14314TIP3   OH264432   5.804   3.693   2.510  0.1418 -0.0567  0.2666
14314TIP3    H164433   5.769   3.648   2.587  0.9318 -3.2976 -1.1636
14314TIP3    H264434   5.727   3.732   2.468 -0.5498  0.1268  1.6633
14315TIP3   OH264435   5.383   6.134   0.686 -0.1004  0.1999 -0.1734
14315TIP3    H164436   5.389   6.045   0.651 -1.1269 -0.0005  0.1187
14315TIP3    H264437   5.428   6.129   0.770 -0.6592 -0.2039  0.1114
14316TIP3   OH264438   4.572   1.264  14.277  0.3546 -0.5206 -0.5412
14316TIP3    H164439   4.651   1.316  14.267  0.7730 -0.7318  1.5652
14316TIP3    H264440   4.602   1.173  14.270  0.2855 -0.5986  0.1845
14317TIP3   OH264441   5.299   4.965   1.005  0.3756 -0.3755  0.3951
14317TIP3    H164442   5.309   4.957   0.910  0.3165  0.4223  0.3245
14317TIP3    H264443   5.252   4.885   1.030 -2.3243  0.8309 -0.6523
14318TIP3   OH264444   0.632   5.817  16.781 -0.0490  0.4489  0.3025
14318TIP3    H164445   0.666   5.773  16.703  1.0049  3.6088 -1.1394
14318TIP3    H264446   0.537   5.807  16.775  0.1388 -1.2268 -0.1847
14319TIP3   OH264447   5.246   0.825   1.791  0.5662  1.0247  0.4427
14319TIP3    H164448   5.155   0.797   1.791  0.4115  1.5055 -1.3465
14319TIP3    H264449   5.296   0.749   1.762  1.0760 -0.1771  4.1991
14320TIP3   OH264450   2.388   6.065  12.995  0.0089 -0.8143  0.3619
14320TIP3    H164451   2.445   6.044  12.921  1.6016 -0.1295  1.3702
14320TIP3    H264452   2.309   6.014  12.980 -0.3831  0.6189 -2.7185
14321TIP3   OH264453   5.894   2.894   4.232  0.3714  0.4208  0.3627
14321TIP3    H164454   5.922   2.918   4.143 -1.2327  0.2795 -0.2083
14321TIP3    H264455   5.947   2.818   4.254 -1.2757 -1.3830 -1.6790
14322TIP3   OH264456   6.612   2.150  12.941  0.1422 -0.0269 -0.0966
14322TIP3    H164457   6.704   2.126  12.950  0.5616  1.5889  0.0070
14322TIP3    H264458   6.612   2.245  12.937 -1.5107 -0.0222 -0.3394
14323TIP3   OH264459   0.535   1.347   2.085 -0.0407  0.3743 -0.3689
14323TIP3    H164460   0.607   1.285   2.076  0.5869  1.0595 -0.1140
14323TIP3    H264461   0.530   1.366   2.178 -0.3494  0.5690 -0.4224
14324TIP3   OH264462   2.882   3.625  15.780 -0.1950 -0.5554 -0.0775
14324TIP3    H164463   2.872   3.716  15.808  0.4990  0.2779 -2.3872
14324TIP3    H264464   2.976   3.608  15.786 -0.0325 -0.3733 -1.7087
14325TIP3   OH264465   2.395   5.274   1.579  0.0786 -0.2536 -1.4115
14325TIP3    H164466   2.488   5.300   1.575  0.3496 -0.9929  0.0259
14325TIP3    H264467   2.385   5.212   1.506  0.7620 -0.3130 -1.4604
14326TIP3   OH264468   2.612   4.828  17.000  0.1866  0.6514 -0.4395
14326TIP3    H164469   2.655   4.787  17.075  1.1180  1.4450 -0.5279
14326TIP3    H264470   2.590   4.916  17.029 -0.0302  0.7493 -0.8935
14327TIP3   OH264471   4.382   1.567   2.664 -0.0735  0.3434  0.2268
14327TIP3    H164472   4.327   1.616   2.725  0.5336  0.3593  0.7665
14327TIP3    H264473   4.470   1.599   2.681  0.1417  0.0898 -0.4184
14328TIP3   OH264474   6.428   5.872   4.424 -0.1398  0.0697 -0.0448
14328TIP3    H164475   6.461   5.944   4.369  0.2674 -0.6711 -0.7777
14328TIP3    H264476   6.478   5.796   4.396 -1.1375 -0.6748  0.1771
14329TIP3   OH264477   1.952   1.237  16.037  0.1164 -0.0620  0.8937
14329TIP3    H164478   1.954   1.304  16.105 -1.9137 -1.8117  2.7318
14329TIP3    H264479   1.985   1.158  16.079  1.4404 -0.5077 -0.9331
14330TIP3   OH264480   2.938   3.169   3.318 -0.1024 -0.3303 -0.0013
14330TIP3    H164481   2.973   3.098   3.371  2.6001  1.3713  0.5574
14330TIP3    H264482   2.933   3.133   3.229  0.7289 -1.3846  0.3796
14331TIP3   OH264483   5.660   5.250   4.361 -0.0752 -0.1885 -0.6035
14331TIP3    H164484   5.658   5.344   4.343  1.7268 -0.0369 -0.0853
14331TIP3    H264485   5.685   5.244   4.453  0.1538 -1.1892 -0.7273
14332TIP3   OH264486   5.280   4.197  11.355 -0.2548  0.2950  0.0744
14332TIP3    H164487   5.227   4.258  11.407  1.9993  1.4382  1.1033
14332TIP3    H264488   5.325   4.144  11.420  1.1833  0.5090 -0.7320
14333TIP3   OH264489   4.153   6.521   3.528  0.7095  0.6083 -0.4392
14333TIP3    H164490   4.191   6.607   3.547  1.2730  0.6230 -1.6183
14333TIP3    H264491   4.063   6.540   3.500 -0.0727  0.6030  1.9262
14334TIP3   OH264492   0.857   3.775   0.169  0.0740  0.8676 -0.3714
14334TIP3    H164493   0.827   3.776   0.078 -0.7487 -2.2255 -0.1953
14334TIP3    H264494   0.949   3.750   0.163 -0.5014 -1.3761 -0.2842
14335TIP3   OH264495   6.245   5.830  14.796  0.2223  0.2980  0.3316
14335TIP3    H164496   6.339   5.825  14.778  0.2519 -1.0260  0.7712
14335TIP3    H264497   6.210   5.750  14.756 -0.8615  1.2957 -0.7188
14336TIP3   OH264498   1.336   5.875   5.557 -0.3494 -0.1132 -0.9147
14336TIP3    H164499   1.303   5.874   5.647 -0.4005  2.3938 -0.8570
14336TIP3    H264500   1.390   5.797   5.550 -0.5610 -0.4809  1.2118
14337TIP3   OH264501   0.929   3.482   4.135 -0.0252 -0.1733  0.0700
14337TIP3    H164502   0.886   3.464   4.051  1.7457 -0.5095 -0.7858
14337TIP3    H264503   0.891   3.564   4.165 -0.3181  0.2016 -1.3083
14338TIP3   OH264504   2.448   6.110  14.755  0.2897 -0.0700 -0.1984
14338TIP3    H164505   2.407   6.165  14.689  3.0043 -0.3324 -2.1826
14338TIP3    H264506   2.484   6.173  14.819 -0.1370  0.2847 -0.3029
14339TIP3   OH264507   6.525   3.989   5.886  0.7694 -0.6695  0.2247
14339TIP3    H164508   6.531   3.983   5.981  1.1803  0.9236  0.3120
14339TIP3    H264509   6.609   4.026   5.859 -1.0176  3.1391 -0.3521
14340TIP3   OH264510   5.360   2.400   1.027  0.0981 -0.5447  0.3916
14340TIP3    H164511   5.272   2.436   1.016  0.1265  0.1615  2.2827
14340TIP3    H264512   5.367   2.332   0.960 -2.0816 -0.9991  0.5898
14341TIP3   OH264513   3.733   6.212  11.805 -0.5137  0.2248  0.2838
14341TIP3    H164514   3.638   6.202  11.803 -0.4857 -0.0450  0.3066
14341TIP3    H264515   3.765   6.133  11.849 -0.3518  0.8264  1.2377
14342TIP3   OH264516   1.149   4.032   5.080  0.4018  0.5153 -0.5355
14342TIP3    H164517   1.158   4.079   5.163  0.6316  1.2132 -0.9563
14342TIP3    H264518   1.135   3.941   5.106 -1.9046  1.0764  0.3247
14343TIP3   OH264519   6.122   1.598   2.266  0.5422 -0.3302  0.6612
14343TIP3    H164520   6.141   1.688   2.292  0.2030 -0.5437  1.6754
14343TIP3    H264521   6.134   1.546   2.346  0.5240 -1.1577  0.1400
14344TIP3   OH264522   3.730   0.265  16.190 -0.1107 -0.1775  0.4606
14344TIP3    H164523   3.650   0.305  16.157 -1.7579 -1.3572  2.8878
14344TIP3    H264524   3.743   0.188  16.135  1.3701  1.8982 -2.2237
14345TIP3   OH264525   3.078   4.092  14.302  0.1388 -0.2293 -0.0921
14345TIP3    H164526   3.173   4.102  14.292 -0.0877 -0.6150 -2.8618
14345TIP3    H264527   3.044   4.181  14.290  0.0586 -0.2554 -0.0566
14346TIP3   OH264528   4.303   1.327  17.078 -0.8025  0.1974  0.4276
14346TIP3    H164529   4.316   1.401  17.018 -2.2937  0.2177  0.0855
14346TIP3    H264530   4.387   1.282  17.080 -0.0110  1.6468  0.2791
14347TIP3   OH264531   0.391   3.492   3.653  0.0488 -0.6152  0.2654
14347TIP3    H164532   0.374   3.403   3.683 -1.0896 -0.3904  0.3331
14347TIP3    H264533   0.308   3.538   3.667  0.2400  0.1308 -0.9310
14348TIP3   OH264534   0.699   1.832   0.633  0.3985  0.1920 -0.1452
14348TIP3    H164535   0.691   1.853   0.726 -1.8907 -0.4084 -0.1659
14348TIP3    H264536   0.709   1.917   0.589  0.2820  0.5562  0.5376
14349TIP3   OH264537   3.512   2.844   5.623 -0.3448  0.1790 -0.2865
14349TIP3    H164538   3.485   2.752   5.633  1.9146 -0.5861 -0.8655
14349TIP3    H264539   3.604   2.844   5.648 -0.5500  2.4807  0.5021
14350TIP3   OH264540   0.246   2.300  17.128 -0.0101  0.0749  0.0728
14350TIP3    H164541   0.249   2.207  17.106  1.1690 -0.1237  1.0335
14350TIP3    H264542   0.153   2.318  17.143 -0.5422 -0.3574 -2.5162
14351TIP3   OH264543   1.661   3.066   1.093  0.1248  0.1356 -0.3127
14351TIP3    H164544   1.696   3.138   1.145 -2.1162 -0.0819  1.5815
14351TIP3    H264545   1.608   3.108   1.025  0.2682  0.3139 -0.3133
14352TIP3   OH264546   5.298   0.211   1.371 -0.4060 -0.5444 -0.4821
14352TIP3    H164547   5.381   0.164   1.368  0.5959  1.0520  0.8641
14352TIP3    H264548   5.303   0.275   1.300 -0.1398  0.0907  0.1053
14353TIP3   OH264549   4.324   1.114  12.482  0.4507  0.0545 -0.0342
14353TIP3    H164550   4.329   1.208  12.498 -2.5730  0.4504 -1.0618
14353TIP3    H264551   4.357   1.074  12.562  1.0811  1.9665  0.6990
14354TIP3   OH264552   5.123   0.723  12.573 -0.2192  0.4083  0.1777
14354TIP3    H164553   5.052   0.660  12.585  0.3168 -0.9584 -3.0906
14354TIP3    H264554   5.203   0.671  12.583  0.2456  1.0480 -0.1604
14355TIP3   OH264555   3.746   0.145   5.191 -0.5396  0.0824  0.3635
14355TIP3    H164556   3.685   0.125   5.119  0.0205  0.6461 -0.2809
14355TIP3    H264557   3.702   0.113   5.269 -0.5562 -1.7928 -0.3838
14356TIP3   OH264558   1.384   3.808  14.652  0.5045 -0.5727 -0.1473
14356TIP3    H164559   1.351   3.837  14.567 -4.0381  0.5683  1.8626
14356TIP3    H264560   1.393   3.713  14.642 -1.4865 -0.6616 -1.4727
14357TIP3   OH264561   6.413   3.755  11.094 -0.0022 -0.1950  0.5936
14357TIP3    H164562   6.379   3.745  11.183 -1.5684  0.5449  0.1021
14357TIP3    H264563   6.344   3.718  11.039  0.9098 -0.5371 -0.3247
14358TIP3   OH264564   3.635   3.274  13.325  0.0394  0.2369 -0.4076
14358TIP3    H164565   3.712   3.217  13.322 -0.7157 -0.6963 -2.7824
14358TIP3    H264566   3.562   3.214  13.339 -0.4424  0.9659  0.2376
14359TIP3   OH264567   4.870   4.609  12.671  0.0646 -0.2942 -0.3679
14359TIP3    H164568   4.871   4.560  12.588  1.4267 -0.2070 -0.4188
14359TIP3    H264569   4.849   4.698  12.645 -2.4547 -0.8202 -0.2744
14360TIP3   OH264570   3.641   5.169  13.772  0.1509  0.1454 -0.6135
14360TIP3    H164571   3.579   5.125  13.830 -0.3853 -0.5470 -1.7001
14360TIP3    H264572   3.599   5.252  13.751  0.5518  0.5924  0.3553
14361TIP3   OH264573   2.518   4.647  15.507 -0.6261  0.0817 -0.0239
14361TIP3    H164574   2.532   4.552  15.500  1.1564  0.3103  0.0224
14361TIP3    H264575   2.566   4.683  15.432 -1.5536  0.9289 -0.2161
14362TIP3   OH264576   5.708   6.757   2.595 -0.4592  0.1317  0.1054
14362TIP3    H164577   5.760   6.693   2.546  0.0736  0.4814  0.2109
14362TIP3    H264578   5.712   6.836   2.542  0.0395  0.4853  0.6706
14363TIP3   OH264579   4.331   5.693   2.090 -0.1873 -0.3419  0.1743
14363TIP3    H164580   4.389   5.644   2.149 -1.2423 -2.1786 -0.2898
14363TIP3    H264581   4.388   5.758   2.049  1.2955 -1.3467  0.6090
14364TIP3   OH264582   3.301   3.987   0.773 -0.1972 -0.3089 -0.3621
14364TIP3    H164583   3.283   4.013   0.864  1.4791 -1.3743  0.3059
14364TIP3    H264584   3.364   3.916   0.781 -1.1927 -1.4452 -2.3318
14365TIP3   OH264585   5.702   6.741  14.780  0.4703  0.0878  0.1753
14365TIP3    H164586   5.640   6.668  14.767  1.1396 -0.7657  1.6120
14365TIP3    H264587   5.787   6.703  14.762  0.9301  0.2037  1.9778
14366TIP3   OH264588   4.728   3.336  14.801 -0.1004  0.7606 -0.5947
14366TIP3    H164589   4.814   3.339  14.759  0.3421  0.9218  0.3323
14366TIP3    H264590   4.682   3.413  14.768  0.0447  0.5797 -1.2253
14367TIP3   OH264591   5.262   6.118  15.260 -0.4618  0.1428 -0.1928
14367TIP3    H164592   5.338   6.103  15.317 -0.3232 -1.9542 -0.8901
14367TIP3    H264593   5.186   6.105  15.317 -0.3174 -0.5539 -0.1598
14368TIP3   OH264594   0.041   4.793   5.093  0.1127  0.4222 -0.1578
14368TIP3    H164595   0.027   4.712   5.142  0.4824  0.9233  0.7900
14368TIP3    H264596  -0.044   4.814   5.054  0.2162 -0.8717 -1.1081
14369TIP3   OH264597   4.745   2.705   4.644  0.6889  0.0720  0.2468
14369TIP3    H164598   4.658   2.668   4.631  0.1415  0.7600  1.7069
14369TIP3    H264599   4.801   2.630   4.660  0.1511 -0.3212  0.3020
14370TIP3   OH264600   2.017   1.283  12.152  0.3079  0.3804 -0.3340
14370TIP3    H164601   1.986   1.331  12.229  1.5887  1.4827 -0.4854
14370TIP3    H264602   2.012   1.346  12.081  1.3217  0.0926 -0.6781
14371TIP3   OH264603   2.569   6.338   3.435 -0.1054  0.4293 -0.1664
14371TIP3    H164604   2.559   6.432   3.444 -1.9424  0.3373 -1.1439
14371TIP3    H264605   2.599   6.325   3.345  1.8052  0.1741  0.4774
14372TIP3   OH264606   2.741   6.238  10.938  0.6259  0.0998  0.1738
14372TIP3    H164607   2.761   6.272  10.851 -3.2458 -1.1183 -1.2887
14372TIP3    H264608   2.744   6.142  10.928 -0.4844 -0.0633  1.2001
14373TIP3   OH264609   0.254   1.308  11.827 -0.0721 -0.6179  0.0903
14373TIP3    H164610   0.270   1.352  11.910 -0.1923 -0.0177 -0.2028
14373TIP3    H264611   0.331   1.327  11.774 -0.7789  0.4995 -0.5664
14374TIP3   OH264612   4.808   0.520  13.901  0.0600  0.4938 -0.3919
14374TIP3    H164613   4.897   0.555  13.910  0.4657 -0.7353  0.5902
14374TIP3    H264614   4.771   0.527  13.989 -1.7224  3.2633 -1.2917
14375TIP3   OH264615   0.910   0.119  11.340 -0.3623 -0.2289  0.2252
14375TIP3    H164616   0.960   0.079  11.412  0.6604 -1.2628 -1.0327
14375TIP3    H264617   0.920   0.213  11.354 -0.6985 -0.4069  1.8002
14376TIP3   OH264618   0.392   3.640  11.566 -0.0549 -0.2716  0.4295
14376TIP3    H164619   0.447   3.716  11.545 -1.1404  0.4543  0.1517
14376TIP3    H264620   0.354   3.661  11.651  0.0501 -0.7476  0.5957
14377TIP3   OH264621   5.633   3.793  15.648  0.0346 -0.2183 -0.9601
14377TIP3    H164622   5.634   3.820  15.739  0.7038 -2.0872 -0.4012
14377TIP3    H264623   5.542   3.770  15.630 -0.2827  1.0845 -1.0581
14378TIP3   OH264624   0.308   1.597  14.745  0.0871  0.2496  0.2741
14378TIP3    H164625   0.395   1.559  14.762 -0.6387 -1.7936 -0.4651
14378TIP3    H264626   0.252   1.560  14.813 -0.5465  0.3292 -0.1976
14379TIP3   OH264627   3.687   4.253   5.839 -0.5215  0.0969 -0.2173
14379TIP3    H164628   3.744   4.299   5.778 -1.9096  0.4405 -1.2852
14379TIP3    H264629   3.675   4.314   5.911 -0.2463  0.3710 -0.4026
14380TIP3   OH264630   6.018   0.617  10.596 -0.4148 -0.1807  0.3944
14380TIP3    H164631   6.067   0.700  10.597 -0.0524 -0.3816 -0.4763
14380TIP3    H264632   5.955   0.628  10.525  1.9980 -2.0140 -2.0726
14381TIP3   OH264633   5.286   2.686  15.831 -0.3509  0.3558 -0.3249
14381TIP3    H164634   5.332   2.766  15.809  0.3701 -0.0180 -0.2026
14381TIP3    H264635   5.344   2.616  15.801  0.9362 -0.1976  3.2029
14382TIP3   OH264636   0.696   1.498  11.221  0.7455 -0.6949 -0.8255
14382TIP3    H164637   0.688   1.491  11.126 -0.4488 -2.5694 -0.6156
14382TIP3    H264638   0.719   1.410  11.249 -2.3927 -1.0210  0.9381
14383TIP3   OH264639   2.223   2.712  11.335 -0.2130  0.3494  0.0728
14383TIP3    H164640   2.201   2.804  11.347 -1.3412 -0.1852  2.3429
14383TIP3    H264641   2.270   2.709  11.252 -0.2995  2.9421 -0.0971
14384TIP3   OH264642   1.909   5.792  13.084  0.1854 -0.2646  0.0707
14384TIP3    H164643   1.839   5.854  13.105  1.0240  1.0221 -0.8771
14384TIP3    H264644   1.869   5.729  13.024 -0.9071 -1.1722  1.7096
14385TIP3   OH264645   1.171   6.805  12.395 -0.8136  0.6747  0.2126
14385TIP3    H164646   1.203   6.891  12.368  0.4339 -0.4135 -1.8748
14385TIP3    H264647   1.191   6.800  12.488  1.5170  1.5733 -0.2212
14386TIP3   OH264648   1.415   5.342  12.051 -0.2004 -0.4829  1.0030
14386TIP3    H164649   1.444   5.387  11.972 -2.4573  0.3220  0.5856
14386TIP3    H264650   1.427   5.249  12.031 -1.5805 -0.3311 -0.6458
14387TIP3   OH264651   5.119   4.318  15.216 -0.1523  0.1085 -0.1760
14387TIP3    H164652   5.208   4.291  15.193  0.5956  1.8284  0.6581
14387TIP3    H264653   5.110   4.405  15.179 -1.1884  0.2840  0.4775
14388TIP3   OH264654   2.137   4.520  13.812  1.0001 -0.4076 -0.2673
14388TIP3    H164655   2.199   4.565  13.754 -0.1707  1.5726 -0.0663
14388TIP3    H264656   2.186   4.502  13.891  1.1461  1.8599  0.1951
14389TIP3   OH264657   5.712   2.613   2.403  0.9356 -1.0012 -0.7258
14389TIP3    H164658   5.745   2.687   2.454  0.9617 -0.4353 -1.5556
14389TIP3    H264659   5.710   2.540   2.465 -0.1794 -0.0336  0.4265
14390TIP3   OH264660   6.741   0.357  12.562 -0.3979 -0.0513 -0.0370
14390TIP3    H164661   6.760   0.298  12.636  0.0022  0.5514  0.3459
14390TIP3    H264662   6.826   0.393  12.538 -0.8736  1.6961  0.8609
14391TIP3   OH264663   5.985   6.333  17.053  0.1697  0.2426  0.8504
14391TIP3    H164664   6.012   6.257  17.105 -0.5015 -0.1570  0.6250
14391TIP3    H264665   5.940   6.295  16.977  0.0796  0.8573  0.5938
14392TIP3   OH264666   1.275   5.235  15.496 -0.4980 -0.2946  0.0416
14392TIP3    H164667   1.274   5.242  15.400 -2.0871 -1.2612 -0.0487
14392TIP3    H264668   1.266   5.141  15.512  2.4609 -0.4148  1.1447
14393TIP3   OH264669   0.130   5.469   4.825 -0.2987 -0.2912 -0.2067
14393TIP3    H164670   0.052   5.453   4.772 -0.3041 -0.7557 -0.0664
14393TIP3    H264671   0.102   5.530   4.893 -0.2011  0.5996 -0.9525
14394TIP3   OH264672   4.705   3.196  15.035 -0.3814  0.2749 -0.7222
14394TIP3    H164673   4.610   3.194  15.048 -0.1058 -0.7634  1.4489
14394TIP3    H264674   4.718   3.254  14.961 -2.5903  2.2087  0.3352
14395TIP3   OH264675   4.496   1.792   4.195 -0.4461  0.5768  0.1394
14395TIP3    H164676   4.514   1.746   4.113 -2.7371 -0.9050  0.4214
14395TIP3    H264677   4.450   1.871   4.168  0.3293  0.9588 -0.0965
14396TIP3   OH264678   2.585   2.872   1.786  0.5546 -0.2973  0.0791
14396TIP3    H164679   2.507   2.866   1.842 -0.0710  1.7047 -0.5253
14396TIP3    H264680   2.616   2.962   1.798  1.7341 -0.5325 -1.0775
14397TIP3   OH264681   3.480   2.631   2.376  0.0339  0.3955 -0.1383
14397TIP3    H164682   3.520   2.718   2.364  2.5644 -0.4223  1.8380
14397TIP3    H264683   3.454   2.605   2.288 -0.0573  2.8257 -0.8819
14398TIP3   OH264684   6.368   5.253  14.501 -0.0401  0.1341  0.2339
14398TIP3    H164685   6.402   5.315  14.437  1.0759 -0.0466  0.6429
14398TIP3    H264686   6.410   5.170  14.478  1.3072  0.3256  1.9299
14399TIP3   OH264687   1.298   4.069  14.283 -0.0851 -1.2060 -0.1488
14399TIP3    H164688   1.237   4.041  14.351  1.0853 -1.5765  0.7763
14399TIP3    H264689   1.358   4.129  14.327  0.0950 -0.6941 -1.0811
14400TIP3   OH264690   0.306   0.894  13.735  0.2026  0.6058  0.4640
14400TIP3    H164691   0.375   0.945  13.778  0.2476  1.3517 -0.4612
14400TIP3    H264692   0.330   0.803  13.749  0.1510  0.8319  2.1081
14401TIP3   OH264693   0.677   1.918   4.394 -0.0677 -0.1705  0.0600
14401TIP3    H164694   0.772   1.921   4.382 -0.0086 -1.5932  0.0628
14401TIP3    H264695   0.654   2.005   4.427  0.9593  0.8470 -1.8268
14402TIP3   OH264696   3.696   2.714  14.378  0.1138 -0.6223 -0.2259
14402TIP3    H164697   3.778   2.732  14.423  0.2729 -0.2207 -0.6756
14402TIP3    H264698   3.635   2.778  14.414 -0.0401 -1.0029  0.1996
14403TIP3   OH264699   1.500   2.046  15.307 -0.4574  0.7460 -0.0832
14403TIP3    H164700   1.501   2.107  15.232  0.5476  0.8251 -0.0069
14403TIP3    H264701   1.515   2.102  15.383 -1.2379  0.6307  0.1601
14404TIP3   OH264702   1.782   2.437   1.833  0.2741  0.6136 -0.4206
14404TIP3    H164703   1.709   2.433   1.771  0.7422 -0.7955 -0.8917
14404TIP3    H264704   1.825   2.352   1.826  0.1960  0.3254  2.0299
14405TIP3   OH264705   4.252   4.000  11.536  0.3123  0.1554 -0.4521
14405TIP3    H164706   4.162   3.975  11.516  0.2433  0.1474 -0.1235
14405TIP3    H264707   4.250   4.031  11.626  0.6076  0.3087 -0.4966
14406TIP3   OH264708   3.201   1.552  14.167  0.3777 -0.3457 -0.2616
14406TIP3    H164709   3.166   1.634  14.130 -0.2332 -0.4220  0.1564
14406TIP3    H264710   3.128   1.514  14.215  1.0540 -0.4787  0.6577
14407TIP3   OH264711   0.263   1.316  12.294  0.0307 -0.2653  0.1604
14407TIP3    H164712   0.344   1.264  12.291  0.6927  0.7666 -0.3717
14407TIP3    H264713   0.240   1.320  12.387  0.5972 -0.5819  0.3132
14408TIP3   OH264714   3.834   0.943   4.371  0.5062 -0.0213 -0.4738
14408TIP3    H164715   3.748   0.936   4.331  0.7515  1.6102 -1.3260
14408TIP3    H264716   3.821   0.911   4.460 -0.9586  0.0996 -0.6255
14409TIP3   OH264717   1.186   5.472  14.772 -0.0529  0.4192 -1.0456
14409TIP3    H164718   1.207   5.478  14.678 -2.5646  0.9037 -1.5896
14409TIP3    H264719   1.134   5.392  14.780  1.3591 -0.4125  0.2024
14410TIP3   OH264720   2.474   6.703  14.927 -0.5816  0.3244  0.1849
14410TIP3    H164721   2.428   6.738  15.003  1.6903  1.8938  0.9084
14410TIP3    H264722   2.556   6.753  14.924 -0.6958  0.4358 -3.3967
14411TIP3   OH264723   2.577   4.895   5.354  0.3880  0.6302 -0.3450
14411TIP3    H164724   2.590   4.981   5.313  3.4232  0.2797 -0.2742
14411TIP3    H264725   2.489   4.869   5.329 -0.2742  3.3732 -1.0945
14412TIP3   OH264726   4.488   0.995   6.111 -0.4223 -0.5294  0.4353
14412TIP3    H164727   4.509   1.025   6.199 -0.4067 -1.5159  0.7692
14412TIP3    H264728   4.498   0.900   6.114  2.0448 -0.3721 -1.3018
14413TIP3   OH264729   1.525   5.172  14.503 -0.1096 -0.1321  0.2052
14413TIP3    H164730   1.606   5.171  14.452  0.6800 -0.9134  1.4403
14413TIP3    H264731   1.541   5.236  14.573 -0.2149 -0.9398  0.9773
14414TIP3   OH264732   5.564   6.167   3.273  0.3108  0.1433  0.5415
14414TIP3    H164733   5.627   6.165   3.345 -0.0113 -1.2669  0.8035
14414TIP3    H264734   5.493   6.111   3.303 -0.3894  0.5281 -0.3790
14415TIP3   OH264735   3.150   3.135  16.356  0.6895 -0.1395  1.1367
14415TIP3    H164736   3.234   3.178  16.367  0.3151  0.3047  2.4298
14415TIP3    H264737   3.168   3.042  16.373  1.3785 -0.4179 -1.0474
14416TIP3   OH264738   2.511   0.286  13.321  0.1591 -0.9840 -0.0284
14416TIP3    H164739   2.463   0.321  13.246  2.3974  0.1868 -0.9774
14416TIP3    H264740   2.586   0.241  13.283  0.8777 -1.1149  1.4804
14417TIP3   OH264741   3.569   0.963   2.274  0.2816 -0.0840  0.2693
14417TIP3    H164742   3.524   1.044   2.251  1.3741  1.2637  2.6615
14417TIP3    H264743   3.503   0.910   2.317  0.0247  0.3016  0.3530
14418TIP3   OH264744   3.402   2.397  11.490  0.1702 -0.1651 -0.3466
14418TIP3    H164745   3.332   2.350  11.444 -0.8470  1.0658 -0.0953
14418TIP3    H264746   3.361   2.428  11.571  1.1737  0.1139  0.0684
14419TIP3   OH264747   4.097   2.436  15.791 -0.6866 -0.5079  0.7450
14419TIP3    H164748   4.098   2.377  15.715  0.9776  0.3357  0.0935
14419TIP3    H264749   4.057   2.517  15.757  0.7693  0.1364  0.5602
14420TIP3   OH264750   5.017   0.828  16.455  0.1051 -0.0016  0.1964
14420TIP3    H164751   5.000   0.849  16.364  1.5370 -0.4809 -0.1945
14420TIP3    H264752   4.983   0.903  16.504  1.4190  1.3332 -0.9022
14421TIP3   OH264753   4.631   3.865  12.858  0.2728 -0.2673  0.0361
14421TIP3    H164754   4.587   3.837  12.778  2.3095 -1.2707 -0.7764
14421TIP3    H264755   4.648   3.959  12.844 -0.6226 -0.1178 -0.0890
14422TIP3   OH264756   3.288   6.207  16.052 -0.2291 -0.4501 -0.2493
14422TIP3    H164757   3.321   6.119  16.070 -0.5212 -0.9221 -1.8611
14422TIP3    H264758   3.212   6.192  15.995 -1.1304  0.7806  0.6056
14423TIP3   OH264759   4.060   3.527  14.645 -0.2746  0.1247  0.3194
14423TIP3    H164760   4.117   3.462  14.602 -1.7910 -0.2204 -1.2559
14423TIP3    H264761   4.009   3.476  14.708  0.6480  0.3042  1.2046
14424TIP3   OH264762   2.171   1.845   5.738  0.2188  0.5072  0.3041
14424TIP3    H164763   2.077   1.844   5.752  0.2690  0.5027  0.6646
14424TIP3    H264764   2.190   1.931   5.702  0.1923  0.8494  1.0875
14425TIP3   OH264765   6.660   6.642  11.325 -0.2840  0.1531  0.3359
14425TIP3    H164766   6.674   6.556  11.284  1.7689  0.3615  0.5623
14425TIP3    H264767   6.568   6.640  11.352 -0.6450 -1.4485 -0.8681
14426TIP3   OH264768   0.968   1.178   0.274  0.4585 -0.0730  0.1767
14426TIP3    H164769   1.044   1.232   0.293 -1.2307  2.1528  0.9109
14426TIP3    H264770   0.931   1.216   0.194 -1.1527  0.3738  1.0994
14427TIP3   OH264771   6.658   4.429   4.473 -0.2631 -0.3543 -0.4633
14427TIP3    H164772   6.679   4.510   4.427  0.7507 -0.6035 -0.4435
14427TIP3    H264773   6.739   4.378   4.472 -0.7880 -1.2156 -0.1583
14428TIP3   OH264774   4.738   2.250  12.947  0.5274  0.4786 -0.1970
14428TIP3    H164775   4.654   2.253  12.993  0.5059  3.5731 -0.3420
14428TIP3    H264776   4.727   2.308  12.872  1.9469 -1.2306 -1.7837
14429TIP3   OH264777   4.325   6.275   0.489  0.1557  0.0487  0.5299
14429TIP3    H164778   4.373   6.357   0.476 -0.0986  0.0320 -0.5413
14429TIP3    H264779   4.388   6.207   0.464 -0.7419  0.0676 -1.8981
14430TIP3   OH264780   1.934   2.565  16.322 -0.1492  0.2032  0.2482
14430TIP3    H164781   1.879   2.552  16.245  2.4379  2.6218 -2.1460
14430TIP3    H264782   2.013   2.513  16.303  0.0982  0.0260  1.7434
14431TIP3   OH264783   4.933   4.992   0.291  0.5902 -0.1748 -0.0921
14431TIP3    H164784   4.925   5.013   0.384  1.4423  3.2255 -0.7230
14431TIP3    H264785   4.843   4.991   0.259  0.4893  2.3720  0.0393
14432TIP3   OH264786   5.530   1.970   5.847 -0.4477  0.0703  0.4099
14432TIP3    H164787   5.470   1.899   5.870 -0.5894 -0.0896 -0.4176
14432TIP3    H264788   5.617   1.934   5.865 -0.5921  0.2969  1.5905
14433TIP3   OH264789   1.648   3.292  11.233 -0.4416  0.6460 -0.6197
14433TIP3    H164790   1.670   3.376  11.274 -1.8865  1.5000 -1.5177
14433TIP3    H264791   1.602   3.243  11.301 -0.4593  0.9833 -0.3883
14434TIP3   OH264792   1.706   2.720   5.671 -0.2297 -0.2513 -0.0247
14434TIP3    H164793   1.692   2.805   5.630  2.3205  0.7048  1.0151
14434TIP3    H264794   1.696   2.657   5.599  0.2955  1.1114 -1.3087
14435TIP3   OH264795   2.264   6.739   1.600 -0.0275  0.8131 -0.1808
14435TIP3    H164796   2.232   6.801   1.535 -0.6347  0.2009 -0.4651
14435TIP3    H264797   2.270   6.790   1.681  0.2812  1.4536 -0.6029
14436TIP3   OH264798   5.062   5.250   3.131 -0.1330  0.1847 -0.0995
14436TIP3    H164799   5.141   5.206   3.100 -1.0381 -0.0991 -2.1012
14436TIP3    H264800   5.061   5.332   3.082 -2.3767 -0.9216 -1.9687
14437TIP3   OH264801   0.005   3.537  10.955 -0.2483  0.0144 -0.7713
14437TIP3    H164802  -0.056   3.524  10.883  2.5418 -0.0177 -3.1915
14437TIP3    H264803  -0.014   3.465  11.015 -1.8380 -0.6209 -1.9879
14438TIP3   OH264804   3.053   5.585   5.229 -0.0302 -0.2033  0.0028
14438TIP3    H164805   3.025   5.676   5.233 -2.1027 -0.8534  1.0621
14438TIP3    H264806   2.992   5.538   5.286  0.7305 -2.3243 -0.8513
14439TIP3   OH264807   6.186   5.848   0.041  0.2300 -0.0183 -0.3063
14439TIP3    H164808   6.201   5.754   0.030 -1.1046 -0.4190  1.0461
14439TIP3    H264809   6.232   5.870   0.122 -0.3812  0.2561 -0.0312
14440TIP3   OH264810   5.706   1.076  12.735 -0.1205 -0.0166 -0.8015
14440TIP3    H164811   5.686   1.143  12.669  0.0319 -0.0346 -0.8674
14440TIP3    H264812   5.677   0.994  12.695 -0.0667 -0.0223 -0.8296
14441TIP3   OH264813   3.610   5.809   3.137 -0.3662 -0.2886 -1.2198
14441TIP3    H164814   3.641   5.785   3.224 -1.0186  0.1629 -0.8593
14441TIP3    H264815   3.551   5.883   3.152 -0.0812  0.1195 -2.1025
14442TIP3   OH264816   2.263   2.896   4.110 -0.1107 -0.4892  0.3449
14442TIP3    H164817   2.179   2.891   4.155 -0.0302 -0.9951  0.4431
14442TIP3    H264818   2.313   2.961   4.159 -0.0787 -0.9300  0.9016
14443TIP3   OH264819   3.802   4.674  10.304  0.0617  0.0223 -0.4845
14443TIP3    H164820   3.862   4.699  10.234  1.5211  2.3777  1.5103
14443TIP3    H264821   3.722   4.724  10.287 -0.0124 -0.3098 -1.1079
14444TIP3   OH264822   3.072   0.273   4.677 -0.1056  0.2686  0.1480
14444TIP3    H164823   3.119   0.356   4.685 -0.0441  0.2876 -0.3961
14444TIP3    H264824   3.029   0.278   4.592 -1.6534  0.5268  0.9354
14445TIP3   OH264825   4.999   6.726   3.067  0.4586  0.2902  0.4246
14445TIP3    H164826   4.956   6.656   3.017 -0.5459  0.6283  0.8027
14445TIP3    H264827   5.083   6.739   3.023 -0.3357  0.4450 -1.0706
14446TIP3   OH264828   1.311   6.370  15.282 -0.3348 -0.2570 -0.9784
14446TIP3    H164829   1.341   6.296  15.336  1.3586  0.9847 -0.1586
14446TIP3    H264830   1.339   6.348  15.194 -3.3657 -2.4442 -1.4940
14447TIP3   OH264831   2.284   1.291   5.221 -0.0427  0.4405  0.2787
14447TIP3    H164832   2.363   1.270   5.272 -0.6878 -1.3336  0.5718
14447TIP3    H264833   2.310   1.277   5.130 -0.0332 -0.1982  0.3789
14448TIP3   OH264834   0.888   5.263   1.293  0.9634 -0.3307  0.0406
14448TIP3    H164835   0.949   5.325   1.330  0.4793  0.0123  0.2676
14448TIP3    H264836   0.927   5.238   1.209  1.6704 -0.5213  0.4244
14449TIP3   OH264837   0.729   3.508  12.056 -0.3835  0.1177 -0.2477
14449TIP3    H164838   0.773   3.476  11.978  1.0218 -0.5001  0.7771
14449TIP3    H264839   0.733   3.435  12.118 -1.5414  0.5747  0.3897
14450TIP3   OH264840   2.498   3.841  16.262 -0.3311 -0.4725  0.4157
14450TIP3    H164841   2.557   3.908  16.229 -0.3518 -0.7099 -0.1140
14450TIP3    H264842   2.508   3.845  16.357  1.2928 -1.1810  0.2964
14451TIP3   OH264843   3.241   4.095  12.892 -0.2227  0.0482  0.6640
14451TIP3    H164844   3.233   4.186  12.919  1.0760  0.2137  0.5142
14451TIP3    H264845   3.241   4.046  12.974 -0.1182  0.2426  0.7793
14452TIP3   OH264846   5.181   3.110   6.450  0.0690 -0.4191 -0.4623
14452TIP3    H164847   5.108   3.049   6.452 -0.0542 -0.2543  0.1017
14452TIP3    H264848   5.153   3.183   6.505  0.6890 -0.3962 -0.1715
14453TIP3   OH264849   0.146   1.436  16.533 -0.0679  0.3640 -0.3576
14453TIP3    H164850   0.215   1.450  16.598 -0.6197  1.9140 -0.1001
14453TIP3    H264851   0.070   1.411  16.585 -0.8265  2.7418 -0.3038
14454TIP3   OH264852   5.678   4.517   4.615  0.2600 -0.2144 -0.1660
14454TIP3    H164853   5.638   4.448   4.562  1.2597 -0.6548 -0.3727
14454TIP3    H264854   5.768   4.522   4.583  0.4964  0.4465  0.5833
14455TIP3   OH264855   1.604   3.948   0.538  0.0365 -0.2202  0.3112
14455TIP3    H164856   1.540   3.901   0.590  0.5555  0.1694  1.3279
14455TIP3    H264857   1.555   3.981   0.462 -0.4380 -1.9302 -0.1564
14456TIP3   OH264858   6.324   6.456   3.961 -0.2539  0.3535  0.2186
14456TIP3    H164859   6.320   6.369   4.000 -0.3974  0.2656  0.0108
14456TIP3    H264860   6.393   6.501   4.009  1.9752 -0.8976 -1.7028
14457TIP3   OH264861   2.685   0.898  14.419 -0.3594 -0.1790 -0.0954
14457TIP3    H164862   2.652   0.985  14.441  0.3601 -0.5360  2.6192
14457TIP3    H264863   2.708   0.859  14.503  2.7543 -1.6227 -1.5235
14458TIP3   OH264864   4.186   5.974   1.909 -0.0847 -0.2688 -0.6715
14458TIP3    H164865   4.260   5.954   1.965 -1.8082 -0.5627  1.5506
14458TIP3    H264866   4.207   6.060   1.871  0.5790  0.4801  1.3396
14459TIP3   OH264867   6.724   4.229   6.267  0.1701  0.3242  0.2720
14459TIP3    H164868   6.760   4.179   6.341  1.7825  2.3713  0.9140
14459TIP3    H264869   6.771   4.195   6.191  0.5405  0.1542  0.5686
14460TIP3   OH264870   4.358   0.252  16.152 -0.0839 -0.0335  0.1236
14460TIP3    H164871   4.357   0.157  16.140  1.3570  0.1144 -1.4928
14460TIP3    H264872   4.304   0.286  16.080  0.4606  0.4139 -0.0824
14461TIP3   OH264873   4.223   5.788   1.702 -0.1455  0.0124 -0.0881
14461TIP3    H164874   4.214   5.847   1.776 -2.0765  0.4392 -0.6404
14461TIP3    H264875   4.142   5.798   1.653  0.8163 -0.7789 -1.8951
14462TIP3   OH264876   0.132   2.917   0.931 -0.3427  0.0329  0.4478
14462TIP3    H164877   0.166   2.934   1.019  1.2131 -0.6396 -0.0055
14462TIP3    H264878   0.175   2.836   0.904  0.8081  1.2981 -1.7149
14463TIP3   OH264879   4.985   1.799   1.620 -0.2258 -0.8134 -0.0205
14463TIP3    H164880   4.902   1.821   1.577  0.2613  1.6582  0.2554
14463TIP3    H264881   4.971   1.711   1.655 -3.0601 -0.0820  0.8090
14464TIP3   OH264882   4.222   0.433  12.433  0.5091 -0.1221 -0.4031
14464TIP3    H164883   4.228   0.354  12.380  1.0596 -0.0394 -0.4590
14464TIP3    H264884   4.184   0.499  12.374  3.7562  0.7713 -1.5865
14465TIP3   OH264885   1.957   5.341  14.182  0.5069  0.2677  0.5480
14465TIP3    H164886   2.011   5.263  14.196 -0.0471 -0.1688  0.2798
14465TIP3    H264887   2.017   5.414  14.194  0.4524 -0.1170  3.4853
14466TIP3   OH264888   6.253   5.103  15.902  0.1786  0.3181  0.4303
14466TIP3    H164889   6.310   5.059  15.839  0.6619 -2.2898  2.5819
14466TIP3    H264890   6.166   5.101  15.862  0.8532  0.5927 -1.0606
14467TIP3   OH264891   3.057   1.306   4.367  0.8825 -0.1630  0.3458
14467TIP3    H164892   3.133   1.342   4.412  0.4363  1.3158 -0.0382
14467TIP3    H264893   3.079   1.310   4.274 -0.8392  3.2377  0.0055
14468TIP3   OH264894   3.560   5.379  14.129  0.0582 -0.1293 -0.4757
14468TIP3    H164895   3.641   5.426  14.107  0.1827  0.4068  1.0584
14468TIP3    H264896   3.491   5.433  14.090  0.3267  0.2911 -0.3781
14469TIP3   OH264897   5.964   1.574  16.068 -0.0559  0.2935 -0.1348
14469TIP3    H164898   6.026   1.516  16.111 -0.2233 -0.1604 -0.4990
14469TIP3    H264899   5.882   1.524  16.066  0.3255 -0.2972 -2.3079
14470TIP3   OH264900   6.552   5.820  13.941  0.1660  0.8191 -0.1115
14470TIP3    H164901   6.544   5.915  13.954 -0.7011  0.7931 -0.3987
14470TIP3    H264902   6.521   5.805  13.852 -0.7648  0.1379  0.3162
14471TIP3   OH264903   0.864   2.210  14.701  0.1375  0.0361  0.2727
14471TIP3    H164904   0.815   2.150  14.758  0.9390 -0.6389  0.2497
14471TIP3    H264905   0.860   2.170  14.614 -1.2528  1.1676 -0.2159
14472TIP3   OH264906   1.229   3.952  17.062  0.2752  0.3561 -0.1255
14472TIP3    H164907   1.272   4.027  17.021 -0.0576  0.8753  0.4654
14472TIP3    H264908   1.224   3.975  17.155  0.5285 -0.5670  0.1325
14473TIP3   OH264909   4.872   6.488   1.618  0.5289 -0.1647 -0.2473
14473TIP3    H164910   4.819   6.409   1.609 -0.4938  0.4864 -0.1428
14473TIP3    H264911   4.908   6.503   1.531 -0.0652 -0.2168 -0.5084
14474TIP3   OH264912   6.260   6.722  17.148  0.5583 -0.6871  0.7304
14474TIP3    H164913   6.215   6.638  17.148  0.5710 -0.7451 -2.1815
14474TIP3    H264914   6.199   6.781  17.103  1.7251  0.1904  0.2984
14475TIP3   OH264915   4.031   4.035  13.818  0.3358 -0.1823 -0.1470
14475TIP3    H164916   3.952   4.023  13.871  1.1637  0.5198  1.2742
14475TIP3    H264917   4.051   3.947  13.784 -0.2703 -0.6238  0.6273
14476TIP3   OH264918   1.509   3.778   0.255 -0.1687 -0.1144  0.0144
14476TIP3    H164919   1.468   3.859   0.288 -0.0258 -0.0381  0.0075
14476TIP3    H264920   1.518   3.723   0.333  2.7159  1.1634  0.6228
14477TIP3   OH264921   5.206   2.881  12.369 -0.1783 -0.0450 -0.6515
14477TIP3    H164922   5.115   2.870  12.341 -0.6221 -0.6126  0.9560
14477TIP3    H264923   5.200   2.920  12.456  1.1048 -0.6286 -0.2907
14478TIP3   OH264924   6.590   0.914   3.413 -0.0975 -0.0321 -0.5388
14478TIP3    H164925   6.622   0.981   3.475 -1.2981 -0.3691  0.4665
14478TIP3    H264926   6.648   0.923   3.337  1.2691  0.5455  0.5336
14479TIP3   OH264927   4.269   5.006   1.671  0.3854 -0.2828  0.0293
14479TIP3    H164928   4.269   4.957   1.589  1.7070 -0.7368  0.2862
14479TIP3    H264929   4.337   4.964   1.724  0.8303  1.1714  0.6464
14480TIP3   OH264930   0.833   6.061   2.458  0.0736 -0.3324  0.3958
14480TIP3    H164931   0.862   6.150   2.478  1.3796 -0.9787  1.4552
14480TIP3    H264932   0.891   6.033   2.387 -0.8674 -0.0636 -0.4938
14481TIP3   OH264933   3.291   1.705  16.653  0.0603 -0.8137 -0.3197
14481TIP3    H164934   3.272   1.739  16.740 -2.3105 -1.8878 -0.3841
14481TIP3    H264935   3.275   1.780  16.594 -0.0395 -0.5753  0.0081
14482TIP3   OH264936   0.350   1.836  14.266 -0.2874  0.1369 -0.5200
14482TIP3    H164937   0.329   1.743  14.254  1.5768 -0.3901  0.2088
14482TIP3    H264938   0.264   1.879  14.273 -1.1663 -1.5105 -0.9526
14483TIP3   OH264939   5.564   3.756   0.304  0.1990 -0.8639 -0.2745
14483TIP3    H164940   5.509   3.755   0.226 -1.1300 -0.5093  0.6443
14483TIP3    H264941   5.608   3.671   0.303  0.9492 -0.4747 -1.9264
14484TIP3   OH264942   1.064   4.205   0.516  0.4463 -0.0617 -0.2143
14484TIP3    H164943   1.052   4.196   0.422 -2.1446 -1.5529  0.2202
14484TIP3    H264944   1.100   4.293   0.527  0.1270  0.3888 -2.5379
14485TIP3   OH264945   3.689   0.377   2.184  0.2854 -0.2745  0.0268
14485TIP3    H164946   3.686   0.289   2.145  0.2966 -0.7987  1.1770
14485TIP3    H264947   3.597   0.403   2.191  0.0275 -1.6413  2.8065
14486TIP3   OH264948   5.427   1.770  15.356  0.8667  0.3153 -0.4422
14486TIP3    H164949   5.345   1.819  15.350  1.1371  0.8452  0.1485
14486TIP3    H264950   5.495   1.832  15.328  1.2891  0.5120  0.9897
14487TIP3   OH264951   1.016   2.457   1.281  0.1634 -0.4299  0.2932
14487TIP3    H164952   0.928   2.493   1.294  0.5530  0.1029  1.5523
14487TIP3    H264953   1.056   2.515   1.215  0.2060  0.4455  1.0825
14488TIP3   OH264954   6.358   5.094   0.356 -0.3130  0.2773  0.6513
14488TIP3    H164955   6.332   5.123   0.443  1.3562 -2.0720  1.9821
14488TIP3    H264956   6.442   5.137   0.341 -0.5048  0.5252  0.2939
14489TIP3   OH264957   1.107   2.321   2.680 -0.4516 -0.0517 -0.6758
14489TIP3    H164958   1.063   2.406   2.674 -0.0319  0.4045  2.1749
14489TIP3    H264959   1.040   2.257   2.655 -1.3487  0.9875 -0.9331
14490TIP3   OH264960   4.858   5.087  13.735 -0.2395  0.2029 -0.5232
14490TIP3    H164961   4.841   5.032  13.659 -1.8715 -1.3553  0.9108
14490TIP3    H264962   4.924   5.041  13.785 -0.1847  0.5238 -0.2947
14491TIP3   OH264963   2.489   0.360   4.946 -0.6181 -0.5811  0.3662
14491TIP3    H164964   2.418   0.337   5.005 -0.1507  0.0679  1.1889
14491TIP3    H264965   2.462   0.325   4.861 -1.7807 -0.5919  0.7346
14492TIP3   OH264966   6.461   6.619   1.430  0.1403  0.5961  0.5016
14492TIP3    H164967   6.533   6.627   1.493  0.7797 -0.6641 -0.0420
14492TIP3    H264968   6.421   6.534   1.451  1.2567 -0.5031 -1.6953
14493TIP3   OH264969   4.772   5.995  10.533 -0.1488  0.2328 -0.4665
14493TIP3    H164970   4.761   6.035  10.619 -2.4594  0.3160 -0.7650
14493TIP3    H264971   4.793   6.068  10.475 -0.6757  0.4931 -0.3358
14494TIP3   OH264972   0.172   5.336  16.917  0.6121  0.0368  1.2126
14494TIP3    H164973   0.246   5.300  16.967  2.4336 -0.1894 -1.4959
14494TIP3    H264974   0.196   5.427  16.901  1.3744 -0.5876 -1.4829
14495TIP3   OH264975   6.266   3.333   4.139 -0.0548 -0.2084 -0.2532
14495TIP3    H164976   6.200   3.266   4.156 -0.7171  1.2462  3.5614
14495TIP3    H264977   6.226   3.390   4.074 -1.4826 -0.8060  0.0721
14496TIP3   OH264978   4.525   6.130   0.265 -0.2242 -0.5575 -0.2780
14496TIP3    H164979   4.523   6.057   0.327 -1.7252  0.4938  0.9588
14496TIP3    H264980   4.498   6.092   0.182 -1.4357 -1.3342  0.4489
14497TIP3   OH264981   3.146   3.150  16.759 -0.4954  0.3658  0.0604
14497TIP3    H164982   3.089   3.221  16.730 -0.4931  0.5952  0.6248
14497TIP3    H264983   3.095   3.103  16.824 -0.4590 -0.0946 -0.2403
14498TIP3   OH264984   0.552   3.101   1.940  0.3134 -0.5689 -1.0418
14498TIP3    H164985   0.597   3.046   1.875  0.2366 -0.8235 -0.8802
14498TIP3    H264986   0.476   3.136   1.894  1.5998  1.2533 -1.8494
14499TIP3   OH264987   6.680   0.109   4.402  0.3102  0.1010 -0.3654
14499TIP3    H164988   6.748   0.151   4.349  1.0417 -0.7236 -0.0991
14499TIP3    H264989   6.677   0.019   4.370 -0.0808 -0.0855  0.1820
14500TIP3   OH264990   1.857   3.059   1.751  0.4604 -0.0713 -0.0466
14500TIP3    H164991   1.819   3.025   1.832 -1.1118 -1.0476 -1.1832
14500TIP3    H264992   1.786   3.055   1.687  1.6956  0.6577 -1.4882
14501TIP3   OH264993   4.311   1.157  13.069  0.1034  0.1659 -0.0791
14501TIP3    H164994   4.242   1.145  13.134  0.8198 -0.4281  0.5673
14501TIP3    H264995   4.338   1.249  13.080  1.2666 -0.3464  1.5017
14502TIP3   OH264996   3.539   4.311  15.017  0.0262 -0.0292 -0.1920
14502TIP3    H164997   3.546   4.321  14.923  1.9408 -0.5888 -0.1249
14502TIP3    H264998   3.552   4.399  15.052  2.8906 -0.3768 -0.2929
14503TIP3   OH264999   2.731   2.821  16.098 -0.2575 -0.3678  0.2746
14503TIP3    H165000   2.775   2.835  16.182  0.3057  2.6087 -0.4286
14503TIP3    H265001   2.799   2.787  16.041  0.2536  0.7857  0.1689
14504TIP3   OH265002   5.705   3.977  14.476  0.2697  0.3491 -0.3423
14504TIP3    H165003   5.739   4.061  14.507  0.8485  0.3410 -0.9440
14504TIP3    H265004   5.620   3.968  14.519  1.5739 -0.2482  2.2512
14505TIP3   OH265005   0.073   6.606  13.465 -0.7856  0.4515 -0.0592
14505TIP3    H165006   0.119   6.560  13.395  0.7610 -0.0048  1.2218
14505TIP3    H265007   0.083   6.699  13.443  0.5456  0.3491  0.0511
14506TIP3   OH265008   0.097   0.031  15.803  0.0343 -0.1708 -1.1471
14506TIP3    H165009   0.152   0.105  15.776  0.6702 -0.0165  0.5010
14506TIP3    H265010   0.008   0.063  15.794  0.3176  1.2502  0.7006
14507TIP3   OH265011   5.482   4.657  12.383 -0.4964  0.0421  0.2384
14507TIP3    H165012   5.423   4.723  12.349 -0.3746  1.2050  2.2489
14507TIP3    H265013   5.446   4.633  12.468  2.3275  1.3797  1.8814
14508TIP3   OH265014   4.965   4.143   1.088 -0.0976  0.2817  0.0303
14508TIP3    H165015   4.970   4.073   1.153  0.7104  1.0090  0.7571
14508TIP3    H265016   5.001   4.105   1.008 -0.8343 -0.5209  0.0706
14509TIP3   OH265017   0.832   1.772  12.840  0.3435 -0.3578 -0.4668
14509TIP3    H165018   0.866   1.820  12.915  0.6843 -0.1666 -0.7420
14509TIP3    H265019   0.755   1.726  12.873  0.5981 -0.4140  0.0404
14510TIP3   OH265020   4.489   5.957  15.331 -0.0941  0.0071 -0.0611
14510TIP3    H165021   4.424   5.977  15.398 -1.3119 -0.1351 -1.1669
14510TIP3    H265022   4.469   6.018  15.260  1.1821  0.1647 -0.2926
14511TIP3   OH265023   2.421   1.619  12.082 -0.1209 -0.5178  0.2840
14511TIP3    H165024   2.392   1.666  12.160 -0.3980  0.4878 -0.4138
14511TIP3    H265025   2.511   1.649  12.068 -0.4564  0.1705 -0.4296
14512TIP3   OH265026   1.997   3.395   4.812  0.0144  0.1472 -0.5995
14512TIP3    H165027   1.977   3.475   4.861  0.8638  0.0924 -0.1413
14512TIP3    H265028   1.914   3.347   4.808 -0.6759  1.4224 -1.5671
14513TIP3   OH265029   5.462   4.550   2.101  0.2328  0.2456 -0.0012
14513TIP3    H165030   5.372   4.528   2.124  0.2629  1.5078  1.4145
14513TIP3    H265031   5.463   4.549   2.006 -1.1272 -0.3604 -0.0257
14514TIP3   OH265032   6.266   1.536  13.940  0.0070 -0.3774  0.6019
14514TIP3    H165033   6.228   1.615  13.900  0.5428 -0.3405  0.1690
14514TIP3    H265034   6.223   1.464  13.894  0.5661 -0.3351  0.0103
14515TIP3   OH265035   1.955   3.802   4.675 -0.1558 -0.2603 -0.0048
14515TIP3    H165036   1.968   3.727   4.616 -1.1851  0.2592 -0.9035
14515TIP3    H265037   2.027   3.795   4.738  1.5179 -0.3096 -1.8668
14516TIP3   OH265038   6.046   5.000  16.605  0.4500 -0.5165 -0.0913
14516TIP3    H165039   6.036   5.073  16.544 -0.0035 -0.0686  0.5087
14516TIP3    H265040   6.017   5.035  16.689  0.7996 -1.2136  0.3260
14517TIP3   OH265041   4.547   6.051  14.432  0.1969 -0.0028 -0.1260
14517TIP3    H165042   4.584   6.008  14.509 -0.9259  0.3645  0.6317
14517TIP3    H265043   4.615   6.042  14.365  0.9898 -0.7536  0.7541
14518TIP3   OH265044   0.295   5.341  12.855  0.3248 -0.1788 -0.6190
14518TIP3    H165045   0.243   5.270  12.819  0.4331  0.3867 -1.9129
14518TIP3    H265046   0.359   5.362  12.787 -1.0855  2.5874 -1.2018
14519TIP3   OH265047   2.657   3.164  13.661 -0.6798 -0.0188  0.2926
14519TIP3    H165048   2.705   3.211  13.729 -2.0969 -0.0259  1.3260
14519TIP3    H265049   2.596   3.109  13.709 -1.0099 -0.7747 -0.9766
14520TIP3   OH265050   2.977   2.422   4.685  0.4233 -0.8384 -0.3331
14520TIP3    H165051   2.941   2.499   4.728  0.5833  0.0321 -1.7349
14520TIP3    H265052   3.030   2.379   4.753 -1.2032 -0.7759  0.9986
14521TIP3   OH265053   3.497   2.826  15.534  0.0759  0.2027 -0.2411
14521TIP3    H165054   3.414   2.862  15.565  0.5390 -0.4370  1.8034
14521TIP3    H265055   3.474   2.738  15.502 -0.0482  0.0265  0.3234
14522TIP3   OH265056   1.810   5.359  12.871  0.0109  0.2413 -0.1075
14522TIP3    H165057   1.811   5.276  12.919  1.2134 -0.0056 -0.5365
14522TIP3    H265058   1.878   5.348  12.803  0.4936  1.7335  0.1188
14523TIP3   OH265059   4.026   2.003   4.949 -0.2168 -0.7713 -0.1483
14523TIP3    H165060   4.028   1.955   5.032  0.1359  0.6563  0.6876
14523TIP3    H265061   3.954   2.065   4.959  0.9476  0.6109 -0.2198
14524TIP3   OH265062   0.544   6.336  15.450 -0.1643  0.5452  0.0694
14524TIP3    H165063   0.616   6.313  15.509  0.3543 -1.6612 -1.3664
14524TIP3    H265064   0.465   6.313  15.499  0.2533 -0.9516  0.0533
14525TIP3   OH265065   5.215   5.998  17.046 -0.1050 -0.0131 -0.9148
14525TIP3    H165066   5.164   6.010  17.127 -0.4633  1.1347 -1.2948
14525TIP3    H265067   5.247   6.086  17.026 -0.1134 -0.2812 -2.0944
14526TIP3   OH265068   5.144   2.150  14.962 -0.4240 -0.2738  0.3376
14526TIP3    H165069   5.084   2.134  14.889  0.1978 -1.0349 -0.0131
14526TIP3    H265070   5.204   2.217  14.930 -0.5895 -0.0974  0.3991
14527TIP3   OH265071   5.542   3.980  13.097  0.1711  0.2112 -0.1131
14527TIP3    H165072   5.524   3.955  13.187  1.0116  0.9729  0.2758
14527TIP3    H265073   5.458   4.008  13.062  0.1117  1.2962  0.8830
14528TIP3   OH265074   0.788   2.316  16.345 -0.0133  0.0151 -0.4195
14528TIP3    H165075   0.822   2.341  16.260  0.0864  0.8108 -0.1490
14528TIP3    H265076   0.849   2.354  16.408  0.0543 -0.7775  0.0010
14529TIP3   OH265077   5.233   0.488   1.911  0.1951 -0.2003  0.2724
14529TIP3    H165078   5.174   0.440   1.853 -0.8403  0.6144  0.6358
14529TIP3    H265079   5.175   0.535   1.971  1.1379  2.3129 -0.6993
14530TIP3   OH265080   2.290   6.016   5.027  0.2257  0.3700 -0.1794
14530TIP3    H165081   2.329   6.059   4.951  1.0339 -0.8710 -0.4823
14530TIP3    H265082   2.223   5.959   4.991  0.7735 -0.4012  0.0163
14531TIP3   OH265083   3.458   2.791   6.217 -0.1442 -0.1315 -0.0944
14531TIP3    H165084   3.401   2.864   6.243 -1.4134 -0.8353 -0.8253
14531TIP3    H265085   3.476   2.807   6.125 -0.0183 -0.4748 -0.1275
14532TIP3   OH265086   0.568   4.514   0.189  0.1947 -0.4451  0.1722
14532TIP3    H165087   0.649   4.469   0.168  0.2956 -1.1525  1.9201
14532TIP3    H265088   0.587   4.607   0.177  0.3555 -0.7680 -2.2772
14533TIP3   OH265089   2.362   2.447   0.991  0.9072 -0.5619  0.2105
14533TIP3    H165090   2.366   2.417   0.900 -1.3935 -0.7912  0.1512
14533TIP3    H265091   2.432   2.399   1.036  1.7246 -0.8240 -1.3230
14534TIP3   OH265092   2.382   0.070  13.126 -0.0062 -0.1844  0.5662
14534TIP3    H165093   2.429   0.054  13.044 -0.2014 -1.3091  0.6644
14534TIP3    H265094   2.440   0.127  13.176 -0.4105  1.5011 -0.8328
14535TIP3   OH265095   5.379   5.420   1.869  0.1362  0.1595 -0.2475
14535TIP3    H165096   5.472   5.433   1.885 -0.2627  0.9125  1.6187
14535TIP3    H265097   5.351   5.357   1.935 -1.0603  1.4421  0.5242
14536TIP3   OH265098   5.297   0.264   0.910  0.0253 -0.2727 -0.0124
14536TIP3    H165099   5.370   0.253   0.850 -0.1355 -2.6829  0.2157
14536TIP3    H265100   5.222   0.227   0.863 -0.4291 -0.6765  1.0338
14537TIP3   OH265101   0.816   4.784  17.191 -0.7595 -0.5319 -0.4154
14537TIP3    H165102   0.889   4.767  17.250 -1.1948  0.9267  0.5713
14537TIP3    H265103   0.849   4.851  17.131 -0.8782 -0.7885 -0.7688
14538TIP3   OH265104   4.881   1.910   2.321  0.1249 -0.3205  0.7761
14538TIP3    H165105   4.831   1.929   2.242 -0.2098 -1.2870  0.7420
14538TIP3    H265106   4.923   1.993   2.344  1.5222 -0.3995 -1.3238
14539TIP3   OH265107   4.874   4.051  15.758  0.1620  0.1677 -0.2865
14539TIP3    H165108   4.910   4.126  15.804  0.7341 -0.7724  0.8112
14539TIP3    H265109   4.820   4.089  15.688 -0.4357  1.5937  0.9352
14540TIP3   OH265110   3.201   3.549  13.271  0.4801  0.2582 -0.3323
14540TIP3    H165111   3.118   3.548  13.317  0.6559 -1.5965 -0.0348
14540TIP3    H265112   3.177   3.558  13.178 -0.0530 -0.5677 -0.2731
14541TIP3   OH265113   5.209   4.169  11.664  0.2353 -0.0333 -0.3697
14541TIP3    H165114   5.250   4.134  11.743 -0.4045 -0.0895 -0.0666
14541TIP3    H265115   5.189   4.092  11.611  2.4746  0.0972 -1.4933
14542TIP3   OH265116   1.873   5.488  13.954  0.1163  0.4452 -0.1506
14542TIP3    H165117   1.919   5.490  13.870 -1.9705  0.9239 -1.3116
14542TIP3    H265118   1.923   5.425  14.007  0.4104 -1.2584 -2.3649
14543TIP3   OH265119   5.627   2.274  14.156 -1.2484  0.6676 -0.1682
14543TIP3    H165120   5.573   2.214  14.207 -0.1248  0.6280  0.9696
14543TIP3    H265121   5.683   2.317  14.220 -1.2136  2.0740 -1.1199
14544TIP3   OH265122   6.556   5.055   4.714 -0.3999  0.4155  0.1215
14544TIP3    H165123   6.484   5.061   4.778 -1.1404 -2.8306 -0.3257
14544TIP3    H265124   6.520   5.094   4.634 -1.8878 -1.6643 -0.2543
14545TIP3   OH265125   5.248   3.912  15.888 -0.0320 -0.1918  0.2181
14545TIP3    H165126   5.193   3.970  15.835 -0.5126  0.6689  1.6219
14545TIP3    H265127   5.300   3.863  15.825 -1.0221  0.3886 -1.0589
14546TIP3   OH265128   4.959   2.880   2.163 -0.4594 -0.1673 -0.3649
14546TIP3    H165129   4.978   2.971   2.142 -0.0893 -0.3934 -1.0432
14546TIP3    H265130   4.883   2.858   2.109 -0.2001 -0.4245 -0.6263
14547TIP3   OH265131   2.254   3.071   5.638 -0.5659  0.0487  0.0106
14547TIP3    H165132   2.260   3.003   5.571 -1.0709 -1.1685  1.1647
14547TIP3    H265133   2.198   3.138   5.599 -1.2438 -0.8617 -0.6035
14548TIP3   OH265134   6.043   4.056  12.494 -0.3839 -0.8534  0.1653
14548TIP3    H165135   6.063   4.056  12.401  0.9579  0.9033  0.4396
14548TIP3    H265136   6.006   3.969  12.510  2.9907 -2.6489 -1.2391
14549TIP3   OH265137   5.496   2.222  14.749  0.4139  0.9350 -0.1751
14549TIP3    H165138   5.412   2.268  14.753 -0.9718 -1.5430  0.4492
14549TIP3    H265139   5.473   2.130  14.759  3.4973  0.3987  2.8887
14550TIP3   OH265140   6.296   1.990   1.268 -0.9066 -0.2220 -0.1150
14550TIP3    H165141   6.354   2.040   1.325  0.0759 -0.7734 -0.6282
14550TIP3    H265142   6.354   1.948   1.204 -1.4580 -3.8038  1.6105
14551TIP3   OH265143   3.342   5.784   6.103 -0.3824 -0.2198 -0.1116
14551TIP3    H165144   3.317   5.703   6.148 -0.3494 -0.2867 -0.2139
14551TIP3    H265145   3.430   5.803   6.137  0.5149 -1.4116 -1.7112
14552TIP3   OH265146   5.548   4.219   0.757  0.4640  0.0946 -0.0066
14552TIP3    H165147   5.633   4.188   0.789  1.8905  3.2023 -0.6297
14552TIP3    H265148   5.496   4.139   0.749  4.3102 -2.3237 -2.7039
14553TIP3   OH265149   1.168   6.098   6.429 -0.0940 -0.3500  0.0072
14553TIP3    H165150   1.191   6.172   6.373  0.6855 -1.4354 -1.1470
14553TIP3    H265151   1.251   6.073   6.470 -0.4747 -0.1958  0.8807
14554TIP3   OH265152   1.136   5.239  14.232 -0.8297  0.1921  0.1378
14554TIP3    H165153   1.213   5.293  14.212  0.0019 -0.6745  0.9352
14554TIP3    H265154   1.140   5.225  14.326 -1.0914 -1.1652 -0.0386
14555TIP3   OH265155   0.797   2.514   4.277  0.1637 -0.1015  0.1708
14555TIP3    H165156   0.885   2.548   4.294 -0.6516  1.9443  0.5309
14555TIP3    H265157   0.774   2.548   4.191 -0.7117  0.4035  0.5861
14556TIP3   OH265158   6.457   5.248   3.313 -0.7455 -0.6162 -0.1329
14556TIP3    H165159   6.376   5.284   3.350 -0.7839 -0.1351 -0.6729
14556TIP3    H265160   6.466   5.161   3.354 -0.6763 -0.0190  1.1478
14557TIP3   OH265161   3.590   5.898   0.105 -0.0705 -0.1458 -0.0562
14557TIP3    H165162   3.680   5.864   0.102  0.4502  1.2916 -1.1712
14557TIP3    H265163   3.599   5.990   0.127 -1.1674  0.3702 -1.6461
14558TIP3   OH265164   3.445   6.529   5.020 -0.3524 -0.4512  0.6228
14558TIP3    H165165   3.530   6.564   5.045 -0.1373 -1.5794  1.5241
14558TIP3    H265166   3.398   6.517   5.103 -1.1570 -0.4166  0.1807
14559TIP3   OH265167   6.242   4.842   1.694 -0.3240  0.6066  0.2063
14559TIP3    H165168   6.259   4.869   1.784 -2.9761  1.1685  0.5827
14559TIP3    H265169   6.274   4.752   1.689  1.2076  1.0687  1.2596
14560TIP3   OH265170   6.501   3.635  14.578 -0.1467 -0.3786  0.2837
14560TIP3    H165171   6.522   3.728  14.576  0.7144 -0.5621  0.8239
14560TIP3    H265172   6.409   3.633  14.606 -0.6575  0.3716 -1.2613
14561TIP3   OH265173   4.245   1.760   4.549  0.0371 -0.0461 -0.3457
14561TIP3    H165174   4.212   1.792   4.465  0.3344  0.6793 -0.1937
14561TIP3    H265175   4.314   1.698   4.527 -0.5550 -0.5942 -0.6483
14562TIP3   OH265176   1.129   4.409  11.124 -0.6458 -0.2415  0.1356
14562TIP3    H165177   1.048   4.434  11.168 -0.4640  0.6837 -0.0612
14562TIP3    H265178   1.135   4.467  11.049 -1.8083 -2.8872 -2.0966
14563TIP3   OH265179   2.793   1.236   4.310 -0.3947 -0.1403  0.0764
14563TIP3    H165180   2.748   1.184   4.377 -0.0574  1.2099  1.3596
14563TIP3    H265181   2.883   1.242   4.340 -0.5850  1.8020  0.3399
14564TIP3   OH265182   5.597   1.428  13.856  0.1262  0.2118 -0.6774
14564TIP3    H165183   5.515   1.434  13.906 -0.0426 -0.0093 -0.9270
14564TIP3    H265184   5.594   1.342  13.815  0.1692  0.4679 -1.2286
14565TIP3   OH265185   4.762   3.618   6.358 -0.0067 -0.0568  0.2434
14565TIP3    H165186   4.833   3.652   6.412 -0.2873  0.0162  0.5681
14565TIP3    H265187   4.720   3.552   6.413  0.6369 -1.0417 -0.4396
14566TIP3   OH265188   5.737   6.627   1.664  0.2722  0.2000  0.2230
14566TIP3    H165189   5.775   6.599   1.581  0.3476 -0.1967  0.3924
14566TIP3    H265190   5.811   6.656   1.717  0.5243 -1.9264  1.0904
14567TIP3   OH265191   2.302   5.481   0.244 -0.1676 -0.3418 -0.4227
14567TIP3    H165192   2.278   5.388   0.243 -2.1741  0.1169  1.4034
14567TIP3    H265193   2.221   5.526   0.221  0.7005  0.9910 -0.9221
14568TIP3   OH265194   6.368   4.246   4.355  0.0125 -0.3340 -0.0947
14568TIP3    H165195   6.451   4.245   4.403 -1.2291  0.1270  2.1091
14568TIP3    H265196   6.316   4.177   4.395 -0.8652 -0.2943 -1.1513
14569TIP3   OH265197   1.846   3.425   5.117  0.2939  0.0083 -0.2892
14569TIP3    H165198   1.798   3.342   5.105 -0.2354  0.3258 -0.3826
14569TIP3    H265199   1.805   3.485   5.056  1.3934  0.0527 -0.9808
14570TIP3   OH265200   5.493   1.027  13.491  0.4773 -0.2383  0.4642
14570TIP3    H165201   5.510   0.938  13.461 -1.5669 -0.6178  0.3211
14570TIP3    H265202   5.450   1.070  13.417 -0.5501  0.1682  1.2724
14571TIP3   OH265203   4.091   2.903  15.417 -0.2714 -0.2584 -0.3105
14571TIP3    H165204   4.018   2.927  15.360 -0.7056 -1.5010 -0.2876
14571TIP3    H265205   4.081   2.960  15.493 -0.6195  0.2829 -0.7529
14572TIP3   OH265206   0.668   4.887  13.365  0.0313 -0.1889  0.1141
14572TIP3    H165207   0.721   4.944  13.309  0.9273 -2.0511 -0.9625
14572TIP3    H265208   0.579   4.900  13.334  0.1551  1.0244  0.2309
14573TIP3   OH265209   6.698   0.311  14.963  0.4181  0.2730  0.0159
14573TIP3    H165210   6.786   0.316  15.001 -0.3056  1.2906  1.6298
14573TIP3    H265211   6.640   0.304  15.039 -0.9497  0.2945 -1.0077
14574TIP3   OH265212   0.509   2.949   3.330  0.2485 -0.0625  0.1789
14574TIP3    H165213   0.431   2.895   3.342  0.5851 -0.8173 -0.9673
14574TIP3    H265214   0.475   3.037   3.316 -0.3576 -0.2124  0.6967
14575TIP3   OH265215   4.317   6.575  15.362 -0.2238 -0.1986  0.3719
14575TIP3    H165216   4.299   6.659  15.318  0.5290  0.7952  1.9292
14575TIP3    H265217   4.273   6.510  15.307  1.0311  0.9538 -2.0928
14576TIP3   OH265218   0.383   6.006   6.165 -0.1544  0.3010  0.0137
14576TIP3    H165219   0.470   6.027   6.133 -0.7406  1.0313 -1.1028
14576TIP3    H265220   0.336   6.090   6.167 -1.1348 -0.2280 -0.3039
14577TIP3   OH265221   0.971   1.363   2.080  0.1769  0.2174 -0.4146
14577TIP3    H165222   0.933   1.324   2.001 -0.6654 -0.7508  0.4484
14577TIP3    H265223   1.062   1.379   2.058  0.2781 -1.2641 -1.1585
14578TIP3   OH265224   3.922   4.144  15.747  0.5150  0.1860  0.3516
14578TIP3    H165225   3.953   4.068  15.699 -0.1170 -0.3757  0.8032
14578TIP3    H265226   3.895   4.108  15.832 -1.9142  0.5052 -0.2281
14579TIP3   OH265227   1.108   4.890  14.915  0.2303  0.1513  0.0636
14579TIP3    H165228   1.095   4.947  14.991 -2.0702 -0.1028 -0.1128
14579TIP3    H265229   1.066   4.808  14.940 -1.2950  0.3396 -1.8041
14580TIP3   OH265230   0.597   5.329  14.259  0.1162  0.4887  0.0653
14580TIP3    H165231   0.692   5.316  14.261 -0.0316 -1.0111 -1.6456
14580TIP3    H265232   0.572   5.314  14.168 -1.8225  0.5089  0.5574
14581TIP3   OH265233   5.583   3.053   4.772 -0.3546  0.0158  0.5287
14581TIP3    H165234   5.489   3.043   4.787 -0.9692  3.4316 -0.5456
14581TIP3    H265235   5.612   3.115   4.838  1.1464 -0.9431  0.7921
14582TIP3   OH265236   3.622   5.435   5.598 -0.2346 -0.4187  0.2179
14582TIP3    H165237   3.649   5.440   5.690  0.0430 -1.1146  0.1752
14582TIP3    H265238   3.605   5.526   5.574 -0.3626 -0.2318  0.9740
14583TIP3   OH265239   1.526   0.826  16.564 -0.5891 -0.5529 -0.5434
14583TIP3    H165240   1.514   0.755  16.627 -1.9759  1.1598  1.2058
14583TIP3    H265241   1.564   0.898  16.615 -0.0146  0.2570 -2.0661
14584TIP3   OH265242   4.306   0.461  16.349 -0.0095 -0.1246  0.0925
14584TIP3    H165243   4.211   0.466  16.364  0.2248  0.8398  1.3159
14584TIP3    H265244   4.320   0.374  16.312 -1.0525 -1.3012  2.3531
14585TIP3   OH265245   1.084   3.046  12.223  0.0395 -0.3286 -0.0278
14585TIP3    H165246   1.085   3.124  12.279  1.7778 -0.2888 -0.1045
14585TIP3    H265247   1.098   2.973  12.283 -3.2994 -0.8077  0.3027
14586TIP3   OH265248   5.728   1.485   0.358  0.5033  0.3804  0.1551
14586TIP3    H165249   5.656   1.447   0.408 -0.6383  1.7751 -0.3839
14586TIP3    H265250   5.789   1.517   0.424  0.4282 -0.4201  0.6195
14587TIP3   OH265251   1.679   4.745  15.351 -0.1767  0.1206  0.5659
14587TIP3    H165252   1.706   4.655  15.336  0.9203  0.2423  1.7218
14587TIP3    H265253   1.605   4.759  15.292  2.3545 -0.1927 -2.8096
14588TIP3   OH265254   2.611   6.099   5.008  0.3549  0.9232  0.5325
14588TIP3    H165255   2.669   6.110   4.934 -0.5003  5.3900  0.3842
14588TIP3    H265256   2.523   6.111   4.972 -0.4008 -1.1262  1.5665
14589TIP3   OH265257   5.965   0.422  13.063  0.0027  0.3756 -0.1147
14589TIP3    H165258   6.050   0.423  13.019 -0.3746  1.0086 -0.8491
14589TIP3    H265259   5.922   0.342  13.032  0.5775 -0.2716  0.7469
14590TIP3   OH265260   5.782   2.446  14.772 -0.6088 -0.1548 -0.5511
14590TIP3    H165261   5.811   2.528  14.811 -2.0408 -0.9700  2.4167
14590TIP3    H265262   5.698   2.467  14.731 -2.0055 -0.5366  2.0284
14591TIP3   OH265263   3.302   0.452   2.544 -0.3562 -0.5213 -0.0356
14591TIP3    H165264   3.278   0.527   2.598 -0.0601 -1.9027  2.0566
14591TIP3    H265265   3.320   0.489   2.457 -1.7744  1.5911  0.5560
14592TIP3   OH265266   1.180   6.769   0.622 -0.3870  0.1506 -0.3266
14592TIP3    H165267   1.130   6.776   0.541  0.1025  1.8867 -0.4928
14592TIP3    H265268   1.218   6.856   0.635  0.3139 -0.3673  1.2642
14593TIP3   OH265269   2.061   3.833  12.309  0.8162  0.0911  0.3030
14593TIP3    H165270   2.009   3.864  12.383  0.4433 -0.8957  0.4534
14593TIP3    H265271   2.150   3.827  12.343  0.7538  0.2254  0.4930
14594TIP3   OH265272   3.365   3.402  13.845 -0.0797  0.5742 -0.1429
14594TIP3    H165273   3.409   3.462  13.785 -0.1300  0.3904 -0.3631
14594TIP3    H265274   3.433   3.340  13.871  0.0809  0.9715  0.4118
14595TIP3   OH265275   1.832   2.504   0.119 -0.6403 -0.4516 -0.6613
14595TIP3    H165276   1.869   2.417   0.130 -0.2358 -0.1418  0.6096
14595TIP3    H265277   1.873   2.538   0.040  0.3100 -0.8754 -0.3627
14596TIP3   OH265278   0.091   5.682   5.403  0.6876  0.3095  0.7448
14596TIP3    H165279   0.097   5.673   5.498 -1.0903 -0.1674  0.8403
14596TIP3    H265280   0.006   5.643   5.381 -0.1462  2.8384 -0.7290
14597TIP3   OH265281   6.690   2.230   3.209  0.4730 -0.2719 -0.2012
14597TIP3    H165282   6.631   2.166   3.248  1.2700  0.9122  3.0695
14597TIP3    H265283   6.758   2.177   3.167  1.0563 -1.6151  2.3487
14598TIP3   OH265284   2.053   3.300  13.649 -0.7528  0.1792  0.4775
14598TIP3    H165285   2.140   3.273  13.680 -0.1148  1.0422 -0.4950
14598TIP3    H265286   2.058   3.396  13.647 -1.3998  0.1937 -0.5188
14599TIP3   OH265287   2.605   2.839  14.173 -0.2737 -0.3016  0.4467
14599TIP3    H165288   2.577   2.917  14.222  0.9412  1.0543 -0.9567
14599TIP3    H265289   2.690   2.817  14.211 -0.5113 -0.8153  0.6847
14600TIP3   OH265290   5.209   3.638   0.859  0.1775  0.4433 -0.1191
14600TIP3    H165291   5.259   3.570   0.814  0.6816  0.9268 -0.2904
14600TIP3    H265292   5.235   3.720   0.816 -2.7854  0.4381 -2.0788
14601TIP3   OH265293   1.966   4.287   3.170 -0.0522  0.3579  0.3366
14601TIP3    H165294   2.036   4.273   3.234 -0.3612  1.3016  0.8918
14601TIP3    H265295   1.899   4.335   3.219 -0.5983  0.4401 -0.4990
14602TIP3   OH265296   1.003   4.777   4.612 -0.0110  0.4617  0.4846
14602TIP3    H165297   1.045   4.843   4.556  0.7691 -1.9192 -1.8517
14602TIP3    H265298   1.070   4.753   4.676  0.2040  0.8811  0.4178
14603TIP3   OH265299   5.488   6.205  13.372  0.4142 -0.2543 -0.3863
14603TIP3    H165300   5.580   6.231  13.362  0.0753  0.8752 -0.6131
14603TIP3    H265301   5.454   6.203  13.282  0.6649 -2.3455 -0.4452
14604TIP3   OH265302   2.722   1.857  15.791  0.1167 -0.1226  0.1594
14604TIP3    H165303   2.648   1.852  15.730 -1.2509  1.1701  1.6956
14604TIP3    H265304   2.688   1.821  15.873  0.9705  1.1485  1.0798
14605TIP3   OH265305   0.115   0.413   6.178  0.2334 -0.0281  0.3406
14605TIP3    H165306   0.025   0.384   6.162 -0.1006  0.6992  0.9100
14605TIP3    H265307   0.106   0.503   6.208  1.3791  1.6065 -3.8202
14606TIP3   OH265308   4.612   1.373   4.291  0.0261 -0.0140  0.0547
14606TIP3    H165309   4.547   1.436   4.322 -1.6832 -1.1792 -1.0681
14606TIP3    H265310   4.688   1.426   4.266 -1.2983  1.5733 -0.6714
14607TIP3   OH265311   5.226   5.564  13.535  0.1285 -0.1373 -0.4516
14607TIP3    H165312   5.224   5.555  13.630 -0.7256 -1.4187 -0.5860
14607TIP3    H265313   5.141   5.601  13.512  0.0696 -0.4738 -0.7818
14608TIP3   OH265314   1.751   0.366  16.753  0.3142  0.3088  0.3344
14608TIP3    H165315   1.687   0.382  16.822  0.6145  0.2464  0.6271
14608TIP3    H265316   1.750   0.271  16.741  0.5255  0.2851  0.5046
14609TIP3   OH265317   0.528   1.737  11.546 -0.5437  0.0877  0.4426
14609TIP3    H165318   0.589   1.801  11.585 -0.0105 -0.2906  0.2343
14609TIP3    H265319   0.465   1.791  11.497  0.4340  0.4134 -0.4798
14610TIP3   OH265320   2.777   5.026  12.265  0.0945 -0.0025 -0.7383
14610TIP3    H165321   2.730   5.066  12.338 -1.1524 -1.3120 -0.8137
14610TIP3    H265322   2.814   4.946  12.301  1.0323  0.2689 -1.0755
14611TIP3   OH265323   5.126   3.199  16.425  0.3768  0.5131 -0.2684
14611TIP3    H165324   5.053   3.244  16.468  0.7542  0.6925  0.1934
14611TIP3    H265325   5.133   3.116  16.472  1.9321  1.4550  1.2068
14612TIP3   OH265326   2.800   2.366  14.139 -0.3455 -0.4641  0.6797
14612TIP3    H165327   2.748   2.313  14.200  0.7850 -1.3674  0.8685
14612TIP3    H265328   2.782   2.327  14.053  0.0700 -0.8047  0.7511
14613TIP3   OH265329   5.198   2.656  16.983  0.1853 -0.1235 -0.0604
14613TIP3    H165330   5.119   2.636  17.034 -0.0767  1.0936  0.0285
14613TIP3    H265331   5.180   2.621  16.896 -1.3004  1.8907 -0.6120
14614TIP3   OH265332   2.620   1.956  14.568  0.6424 -0.1777 -0.1637
14614TIP3    H165333   2.708   1.986  14.547  0.4018  0.6700  0.0274
14614TIP3    H265334   2.563   2.026  14.538  0.0454 -0.6102 -0.0569
14615TIP3   OH265335   5.254   6.616   2.504  0.0009  0.0807 -0.3531
14615TIP3    H165336   5.260   6.711   2.516 -1.2716  0.1652 -0.3056
14615TIP3    H265337   5.341   6.583   2.526 -0.0591  1.0477  1.4346
14616TIP3   OH265338   3.612   1.846   2.956 -0.3207 -0.7853  0.5339
14616TIP3    H165339   3.694   1.813   2.992 -0.3334  0.1033  1.3962
14616TIP3    H265340   3.639   1.898   2.880 -0.1359 -0.9674  0.4733
14617TIP3   OH265341   5.273   4.116   5.625 -0.1069 -0.1687  0.3969
14617TIP3    H165342   5.356   4.143   5.663  0.0542 -0.2635  0.1128
14617TIP3    H265343   5.269   4.022   5.640  0.4122 -0.3715 -0.6931
14618TIP3   OH265344   6.336   0.214  14.237  0.4390  0.0279 -0.1102
14618TIP3    H165345   6.307   0.150  14.172  0.2477 -0.9836  0.9569
14618TIP3    H265346   6.282   0.291  14.220 -0.9883 -0.9032  0.0995
14619TIP3   OH265347   1.090   3.811  16.355 -0.4079 -0.2348 -0.3409
14619TIP3    H165348   1.042   3.866  16.417 -0.0354 -0.4737  0.1740
14619TIP3    H265349   1.023   3.775  16.297 -1.3185 -3.3676  2.5301
14620TIP3   OH265350   4.168   4.042   2.170 -0.1951  0.4252  0.3290
14620TIP3    H165351   4.115   3.983   2.117  0.2634  0.4257 -0.1296
14620TIP3    H265352   4.254   4.041   2.129 -0.1454  1.3102  0.4047
14621TIP3   OH265353   2.275   4.572   3.960  0.4357 -0.5734 -0.2834
14621TIP3    H165354   2.319   4.634   3.902 -0.4303 -0.4262 -0.7971
14621TIP3    H265355   2.257   4.623   4.039  2.5234 -1.0593  0.5232
14622TIP3   OH265356   4.977   1.560   0.942 -0.1217  0.2110  0.5558
14622TIP3    H165357   4.984   1.488   1.006  0.3847 -0.4328 -0.2195
14622TIP3    H265358   4.885   1.558   0.916 -0.1189 -0.1478  0.5586
14623TIP3   OH265359   4.382   6.085  16.215 -0.4454 -0.1513  0.1500
14623TIP3    H165360   4.292   6.103  16.190 -0.8829  0.1513  1.8905
14623TIP3    H265361   4.388   5.990  16.221 -0.5126 -0.1934 -0.4093
14624TIP3   OH265362   3.476   0.987   2.639 -0.3673  0.2302  0.5535
14624TIP3    H165363   3.513   0.905   2.604  0.3558  1.1657 -0.9450
14624TIP3    H265364   3.443   0.963   2.726  1.0498 -1.3373  0.6943
14625TIP3   OH265365   0.989   2.733   5.440 -0.5330  0.1815  0.3135
14625TIP3    H165366   0.945   2.677   5.503 -1.5288  2.1812  1.4331
14625TIP3    H265367   0.918   2.771   5.388  0.1276  0.3860 -0.4448
14626TIP3   OH265368   3.440   3.082  12.408  0.1278 -0.0666  0.3669
14626TIP3    H165369   3.499   3.058  12.479  0.4246  0.4852  0.3074
14626TIP3    H265370   3.417   3.173  12.426  0.0806  0.0237 -0.1561
14627TIP3   OH265371   3.111   6.668  12.891 -0.1892  0.2435  0.3808
14627TIP3    H165372   3.143   6.618  12.816 -1.6759 -1.1026  0.6180
14627TIP3    H265373   3.191   6.697  12.936  0.7095  0.1675 -1.1257
14628TIP3   OH265374   5.124   1.707  16.167  0.6564 -0.6150 -0.2336
14628TIP3    H165375   5.122   1.622  16.210  1.8360 -0.4885  0.0745
14628TIP3    H265376   5.216   1.724  16.150  0.7665  1.9139  2.3644
14629TIP3   OH265377   2.020   4.680  12.775 -0.2438  0.3728  0.3404
14629TIP3    H165378   2.094   4.736  12.751 -0.1245  0.6523  1.3343
14629TIP3    H265379   2.021   4.679  12.871 -0.5785 -0.8782  0.3418
14630TIP3   OH265380   3.285   4.735  14.884 -0.1811 -0.2428 -0.2690
14630TIP3    H165381   3.297   4.725  14.790 -0.1571  2.1939 -0.5611
14630TIP3    H265382   3.366   4.777  14.914  0.0430 -1.5053  0.9375
14631TIP3   OH265383   0.165   6.361  12.993 -0.0910  0.0661  0.2807
14631TIP3    H165384   0.256   6.347  13.018 -0.1449 -1.9817 -0.5630
14631TIP3    H265385   0.169   6.422  12.919  0.6351 -0.3040  0.0127
14632TIP3   OH265386   3.740   6.027  13.799 -0.1584  0.0379  0.0665
14632TIP3    H165387   3.836   6.033  13.804 -0.1683  0.7198 -0.4054
14632TIP3    H265388   3.710   6.054  13.886  0.0820 -0.3269  0.2633
14633TIP3   OH265389   2.543   1.860  15.551 -0.3815  0.4350 -0.0295
14633TIP3    H165390   2.478   1.919  15.513 -1.0928 -0.2191  0.1626
14633TIP3    H265391   2.573   1.807  15.477  1.8652  2.4700 -0.6552
14634TIP3   OH265392   5.147   5.594  17.123 -0.0886 -0.7953  0.3274
14634TIP3    H165393   5.069   5.559  17.166 -0.8104  0.7786  0.2983
14634TIP3    H265394   5.211   5.603  17.193 -0.2770 -1.0620  0.5348
14635TIP3   OH265395   3.852   1.747  17.056  0.4558 -1.0215  0.3091
14635TIP3    H165396   3.766   1.706  17.068 -0.1518  0.0495 -0.2268
14635TIP3    H265397   3.837   1.839  17.082  1.5552 -0.9387  0.6550
14636TIP3   OH265398   0.864   4.696  12.128  0.4637 -0.1609  0.2456
14636TIP3    H165399   0.781   4.690  12.081  0.6575 -2.5367  0.1395
14636TIP3    H265400   0.930   4.675  12.063  0.9043 -1.1247  0.9865
14637TIP3   OH265401   6.005   4.738   4.059 -0.2509 -0.4065 -0.1693
14637TIP3    H165402   5.971   4.788   3.985 -0.9229 -0.6818 -0.0476
14637TIP3    H265403   6.028   4.653   4.023 -0.9480 -0.6755  0.0127
14638TIP3   OH265404   1.944   6.572  14.654  0.2543  0.0408 -0.0195
14638TIP3    H165405   1.987   6.646  14.611  0.4311 -0.4213 -0.6436
14638TIP3    H265406   1.892   6.531  14.584 -0.0877 -0.2395  0.3961
14639TIP3   OH265407   1.032   2.321  11.821 -0.0653  0.4823 -0.0107
14639TIP3    H165408   1.025   2.251  11.756 -0.9237  1.4293 -0.9616
14639TIP3    H265409   0.962   2.304  11.883 -0.0780  0.3216 -0.0701
14640TIP3   OH265410   6.499   3.347  13.112  0.1489 -0.4386 -0.5232
14640TIP3    H165411   6.560   3.373  13.181 -0.8795 -0.0131  0.2519
14640TIP3    H265412   6.439   3.286  13.155 -1.2473  0.7823 -0.7003
14641TIP3   OH265413   3.151   1.197   5.517 -0.4766  0.5240 -0.2673
14641TIP3    H165414   3.128   1.112   5.554 -2.1176  0.4295 -1.4906
14641TIP3    H265415   3.111   1.261   5.576  1.0613  0.4736  0.8558
14642TIP3   OH265416   1.361   6.652  15.933  0.0029 -0.7104  0.0590
14642TIP3    H165417   1.319   6.720  15.880  0.2819  0.4661  1.3021
14642TIP3    H265418   1.315   6.571  15.910 -2.2457  0.3665  0.5921
14643TIP3   OH265419   5.702   4.514   3.475 -0.0164  0.0445  0.3088
14643TIP3    H165420   5.641   4.582   3.445  0.6690 -0.0624 -1.3965
14643TIP3    H265421   5.654   4.466   3.542 -0.8971  1.5342  0.7651
14644TIP3   OH265422   6.536   4.168   5.238  0.2593  0.2793 -0.6949
14644TIP3    H165423   6.483   4.109   5.290 -0.3281  0.1665 -1.4124
14644TIP3    H265424   6.609   4.193   5.296  1.0692 -1.9151 -0.7294
14645TIP3   OH265425   4.990   0.185  13.347  0.3588  1.1105 -0.1842
14645TIP3    H165426   5.001   0.092  13.363  0.0494  1.1924  0.5677
14645TIP3    H265427   5.049   0.205  13.275  1.6092  0.6484  0.6975
14646TIP3   OH265428   3.744   2.525   1.777  0.2170  0.4435 -0.0168
14646TIP3    H165429   3.690   2.447   1.788 -0.7860  0.9589 -1.1941
14646TIP3    H265430   3.681   2.597   1.774  1.1558  1.3733  1.6538
14647TIP3   OH265431   3.702   5.003  12.306 -0.2212 -0.2037 -0.1417
14647TIP3    H165432   3.780   4.999  12.252 -1.2653  1.3064 -1.8453
14647TIP3    H265433   3.675   4.912  12.318  0.3164 -0.5865 -1.7515
14648TIP3   OH265434   2.170   4.553  13.448 -0.6970 -0.0894  0.0582
14648TIP3    H165435   2.088   4.525  13.489 -1.3374  1.0459 -0.4616
14648TIP3    H265436   2.164   4.648  13.443  1.2697  0.1501  1.3359
14649TIP3   OH265437   0.575   5.610   1.870 -0.1146 -0.1960  0.8123
14649TIP3    H165438   0.482   5.593   1.861 -0.5232  2.6709 -0.8171
14649TIP3    H265439   0.612   5.588   1.785  0.4004  0.4036  0.8755
14650TIP3   OH265440   5.031   0.472  10.951  0.1685 -0.7081  0.0681
14650TIP3    H165441   4.998   0.541  11.009  1.7860  1.1544 -1.1374
14650TIP3    H265442   4.962   0.405  10.951 -1.9128  1.3672  0.4989
14651TIP3   OH265443   6.790   2.270  17.193 -0.3641  0.2709  0.8670
14651TIP3    H165444   6.816   2.202  17.254  1.3483  1.3157  1.3491
14651TIP3    H265445   6.707   2.240  17.156 -0.8487 -0.8965  2.8656
14652TIP3   OH265446   3.823   6.756  16.215 -0.6526 -0.0841 -0.0580
14652TIP3    H165447   3.858   6.736  16.301  0.1148 -2.9528 -0.9762
14652TIP3    H265448   3.750   6.696  16.203 -0.8527  0.3831 -1.3405
14653TIP3   OH265449   6.364   2.511   1.766 -0.8592  0.3931  0.0451
14653TIP3    H165450   6.377   2.588   1.711 -0.5304 -0.5388 -1.2158
14653TIP3    H265451   6.304   2.540   1.835  0.6452  2.2538  0.6276
14654TIP3   OH265452   2.657   5.823   5.347 -0.4656 -0.3735  0.2477
14654TIP3    H165453   2.723   5.877   5.303  0.7291 -1.8227  0.2336
14654TIP3    H265454   2.651   5.860   5.435  0.3750 -0.2431  0.2515
14655TIP3   OH265455   4.024   6.575  13.148 -0.2070 -0.3144  0.4809
14655TIP3    H165456   4.080   6.652  13.155  0.4593 -0.7612  0.1699
14655TIP3    H265457   4.020   6.540  13.237  1.5396 -1.3390  0.1689
14656TIP3   OH265458   0.349   1.199  16.731  0.5878 -0.1330  0.1604
14656TIP3    H165459   0.327   1.292  16.738  0.8880 -0.0649  0.1849
14656TIP3    H265460   0.441   1.193  16.756  0.5196 -0.4626  0.3404
14657TIP3   OH265461   1.422   6.076  15.839  0.2676 -0.6169 -0.6084
14657TIP3    H165462   1.470   6.070  15.757  0.2203 -0.4469 -0.6492
14657TIP3    H265463   1.456   6.004  15.892  0.9998 -0.1346 -0.4150
14658TIP3   OH265464   1.593   6.024  14.305  0.3749  0.0651  0.1273
14658TIP3    H165465   1.563   6.063  14.223 -1.5867 -1.4339  0.0896
14658TIP3    H265466   1.584   6.094  14.369 -1.6187  0.1773 -0.2377
14659TIP3   OH265467   3.737   2.273  14.177 -0.2160 -0.0304 -0.8554
14659TIP3    H165468   3.738   2.276  14.082 -0.4421  0.3392 -0.8455
14659TIP3    H265469   3.826   2.246  14.202  0.0074  0.4389 -1.1467
14660TIP3   OH265470   2.780   1.650  16.704 -0.0153 -0.1341  0.3648
14660TIP3    H165471   2.798   1.629  16.612  0.8168 -1.0402  0.7129
14660TIP3    H265472   2.752   1.741  16.703  0.7802  0.1118 -0.6970
14661TIP3   OH265473   2.140   5.121  11.715  0.4279  0.0372  0.0472
14661TIP3    H165474   2.094   5.134  11.799  1.3366  2.0984  0.2600
14661TIP3    H265475   2.071   5.125  11.649 -0.5351 -3.2750  0.7538
14662TIP3   OH265476   5.389   3.212  12.554 -0.1190  0.1942  0.2405
14662TIP3    H165477   5.389   3.278  12.624  1.0033  0.5818 -0.1087
14662TIP3    H265478   5.311   3.231  12.503  0.5023  1.6410 -0.1953
14663TIP3   OH265479   0.971   1.796   3.100 -0.1366  0.3863  0.0742
14663TIP3    H165480   1.023   1.716   3.093 -0.3334  0.2664 -0.0095
14663TIP3    H265481   0.972   1.833   3.012 -3.0588 -1.3998 -0.7633
14664TIP3   OH265482   4.046   1.439   4.943  0.3318 -0.1017  0.2610
14664TIP3    H165483   4.079   1.524   4.914 -0.5774 -0.3573 -1.5912
14664TIP3    H265484   3.954   1.438   4.915  0.3719 -1.7303  0.1550
14665TIP3   OH265485   0.660   0.700  12.838 -0.0377 -0.1225  0.5322
14665TIP3    H165486   0.675   0.776  12.781 -0.1427 -0.0382  0.6162
14665TIP3    H265487   0.663   0.625  12.779 -1.9355  0.0898  0.1216
14666TIP3   OH265488   5.479   0.900   1.924 -0.0393 -0.6571 -0.1749
14666TIP3    H165489   5.393   0.898   1.967  0.5038  0.8727  1.0473
14666TIP3    H265490   5.470   0.967   1.856  0.2163 -0.4243  0.0201
14667TIP3   OH265491   0.243   4.046   2.597  0.3724  0.0896  0.3298
14667TIP3    H165492   0.244   4.122   2.656 -0.2229  0.8887 -0.6663
14667TIP3    H265493   0.186   3.983   2.640  2.0433 -0.3911  1.8847
14668TIP3   OH265494   3.186   5.669   0.440  0.0143  0.3822 -0.0740
14668TIP3    H165495   3.177   5.723   0.519 -1.7047 -0.0043  0.0173
14668TIP3    H265496   3.172   5.730   0.368 -1.6242  0.1403  0.0210
14669TIP3   OH265497   5.248   5.494   4.309  0.1504 -0.3127 -0.1248
14669TIP3    H165498   5.252   5.452   4.223  0.1725 -1.2751  0.3433
14669TIP3    H265499   5.328   5.465   4.353 -0.2141 -0.3978  0.4786
14670TIP3   OH265500   5.555   1.946  13.702  0.7105  0.5282 -0.2665
14670TIP3    H165501   5.550   1.863  13.749 -0.1730  0.1103 -1.0751
14670TIP3    H265502   5.631   1.990  13.739 -0.5691  0.6700  2.2835
14671TIP3   OH265503   5.569   5.075  16.101 -0.0059  0.3482  0.4194
14671TIP3    H165504   5.646   5.117  16.063  0.3519 -0.8954 -0.2527
14671TIP3    H265505   5.576   4.983  16.075 -0.8567 -0.1072  1.7275
14672TIP3   OH265506   3.244   5.495   2.542 -0.1056 -0.8988  0.2272
14672TIP3    H165507   3.276   5.438   2.612 -0.2366  1.0009  1.8747
14672TIP3    H265508   3.306   5.568   2.541 -0.5304 -0.5428 -1.1546
14673TIP3   OH265509   6.105   0.083   5.298  0.0415 -0.5328  0.4778
14673TIP3    H165510   6.072   0.162   5.340 -0.5120 -0.5478  0.0769
14673TIP3    H265511   6.152   0.114   5.220 -0.9536 -0.6540 -0.1742
14674TIP3   OH265512   5.516   2.049   1.429 -0.1858 -0.1091 -0.6008
14674TIP3    H165513   5.611   2.042   1.438 -0.5169 -1.9424  1.9690
14674TIP3    H265514   5.491   1.972   1.379 -0.7408 -2.0649  2.5634
14675TIP3   OH265515   1.933   1.382   0.647 -0.5729 -0.9930  0.1445
14675TIP3    H165516   1.840   1.403   0.651 -1.0220 -2.4255 -2.0057
14675TIP3    H265517   1.963   1.387   0.738 -2.0385  2.4973  0.4995
14676TIP3   OH265518   6.692   6.212   5.192  0.2086  0.2610 -0.2697
14676TIP3    H165519   6.740   6.261   5.125 -0.5454  0.7458 -0.4526
14676TIP3    H265520   6.628   6.161   5.143  0.8078 -0.6964 -0.0541
14677TIP3   OH265521   0.386   5.296   5.831  0.2398 -0.4888  0.2279
14677TIP3    H165522   0.442   5.259   5.899 -1.7768 -1.9668  1.1363
14677TIP3    H265523   0.360   5.221   5.778  0.0503  0.3449 -0.8714
14678TIP3   OH265524   6.048   5.045  11.516 -0.6793 -0.4178 -0.0749
14678TIP3    H165525   6.106   5.050  11.440 -1.0055  0.2475 -0.2796
14678TIP3    H265526   5.978   5.108  11.498 -0.0314  0.7442  1.3892
14679TIP3   OH265527   4.078   2.477  12.215 -0.3316 -1.0254 -0.1641
14679TIP3    H165528   4.114   2.556  12.176 -1.7464 -0.2459  0.0605
14679TIP3    H265529   4.091   2.489  12.309 -1.2257 -0.7012 -0.0763
14680TIP3   OH265530   2.789   1.346  15.332  0.2958  0.6206 -0.1411
14680TIP3    H165531   2.806   1.438  15.352 -1.4972  0.9045  0.1494
14680TIP3    H265532   2.830   1.298  15.404 -1.2842  1.3618  1.3010
14681TIP3   OH265533   3.875   2.353  12.680  0.6608  0.3541 -0.0215
14681TIP3    H165534   3.904   2.267  12.650  2.5223  1.1775 -0.6797
14681TIP3    H265535   3.936   2.414  12.639  0.4935  1.8525  1.8632
14682TIP3   OH265536   5.055   4.915  17.045  0.3764  0.6912  0.2949
14682TIP3    H165537   5.013   4.993  17.010 -1.3333  0.3418  1.4841
14682TIP3    H265538   5.044   4.849  16.977 -0.1939  0.8662  0.2138
14683TIP3   OH265539   5.560   0.227   4.019 -0.1500  0.2358  0.0899
14683TIP3    H165540   5.625   0.290   3.987 -0.2076  0.5036  0.5034
14683TIP3    H265541   5.579   0.147   3.970  0.1621  0.4636 -0.1662
14684TIP3   OH265542   5.200   4.113  14.699 -0.4683 -0.1720  0.1175
14684TIP3    H165543   5.128   4.127  14.761 -0.8115 -1.6178  0.0600
14684TIP3    H265544   5.170   4.043  14.642  0.7839 -0.4306 -0.2481
14685TIP3   OH265545   0.610   1.019  12.668  0.7295  0.0655  0.1807
14685TIP3    H165546   0.543   1.088  12.670  0.1842 -0.4420 -0.1673
14685TIP3    H265547   0.693   1.065  12.679  0.3777  0.7826 -0.1469
14686TIP3   OH265548   1.185   6.130  14.972  0.0980 -0.3502 -0.1241
14686TIP3    H165549   1.211   6.038  14.985  1.9966 -0.0823 -1.7180
14686TIP3    H265550   1.258   6.168  14.923 -1.0536  1.8093 -0.1950
14687TIP3   OH265551   3.153   0.047  15.952 -0.1216 -0.3596  0.1494
14687TIP3    H165552   3.119   0.005  16.031 -1.7348  0.5854 -0.0296
14687TIP3    H265553   3.160   0.140  15.975 -0.7805 -0.0561 -0.8784
14688TIP3   OH265554   4.791   2.141   1.324  0.1549  0.0666  0.1673
14688TIP3    H165555   4.794   2.206   1.254  1.7101 -0.2906 -0.1055
14688TIP3    H265556   4.719   2.169   1.380 -1.5563 -0.0102 -1.9306
14689TIP3   OH265557   1.283   2.600   2.658 -0.2883 -0.2360  0.4340
14689TIP3    H165558   1.292   2.514   2.617 -0.6177 -1.3635  2.6746
14689TIP3    H265559   1.189   2.615   2.663 -0.2352  1.7929 -2.9829
14690TIP3   OH265560   6.475   0.246   2.766 -0.3263 -0.2312  0.3828
14690TIP3    H165561   6.529   0.281   2.837  0.4731  0.7437 -0.6754
14690TIP3    H265562   6.489   0.152   2.769  0.7052 -0.0809  0.7402
14691TIP3   OH265563   2.603   1.480  16.967  0.4351 -0.1257 -0.6467
14691TIP3    H165564   2.673   1.431  17.010  0.7472 -0.4592 -1.5123
14691TIP3    H265565   2.570   1.420  16.900  0.5936  0.7259 -1.4900
14692TIP3   OH265566   1.441   4.940   3.625  0.0210  0.4892  0.6073
14692TIP3    H165567   1.378   5.012   3.625  2.2669  2.5257  0.0280
14692TIP3    H265568   1.417   4.888   3.549  0.8188  2.9532 -1.4264
14693TIP3   OH265569   3.121   2.110  13.215  0.3414  0.2623 -0.1753
14693TIP3    H165570   3.104   2.036  13.274  0.5040 -0.0075 -0.4693
14693TIP3    H265571   3.133   2.070  13.129  1.8527  0.5102 -0.0879
14694TIP3   OH265572   0.693   2.429  15.782 -0.4179  0.4211  0.2121
14694TIP3    H165573   0.750   2.496  15.744 -0.0053  0.4222  0.8197
14694TIP3    H265574   0.737   2.404  15.863 -1.3259  0.4815  0.7284
14695TIP3   OH265575   2.722   5.919   2.998 -0.3806  0.2664 -0.2077
14695TIP3    H165576   2.785   5.851   2.973 -0.8269  0.0497 -0.7784
14695TIP3    H265577   2.727   5.923   3.093 -2.2997 -2.5208  0.0689
14696TIP3   OH265578   6.393   4.709  14.593  0.1146  0.2924 -0.5182
14696TIP3    H165579   6.361   4.778  14.535  1.4126  1.4001  0.0534
14696TIP3    H265580   6.483   4.736  14.614 -0.1720 -0.3471  1.6088
14697TIP3   OH265581   1.497   3.937  11.730  0.2773 -0.7030 -0.1374
14697TIP3    H165582   1.447   3.879  11.673  0.4031 -1.1907  0.2458
14697TIP3    H265583   1.561   3.979  11.672  0.4155 -1.2074 -0.3485
14698TIP3   OH265584   6.530   6.103  12.675 -0.1271 -0.3109  0.6953
14698TIP3    H165585   6.578   6.186  12.679 -1.5777  0.5005  1.6472
14698TIP3    H265586   6.514   6.081  12.767  0.0418 -1.5364  0.4405
14699TIP3   OH265587   4.553   0.639  13.405  0.3271  0.8025 -0.1019
14699TIP3    H165588   4.615   0.589  13.352  0.1969 -0.5377  0.9898
14699TIP3    H265589   4.595   0.724  13.417  1.1653  0.4990 -0.8320
14700TIP3   OH265590   4.549   0.655   6.021 -0.3015 -0.1739  0.4323
14700TIP3    H165591   4.557   0.617   6.108  2.4194  0.7800  0.6214
14700TIP3    H265592   4.501   0.588   5.971  0.1207 -1.7143  2.0323
14701TIP3   OH265593   4.752   3.062  14.469  0.1106  0.1862 -0.2811
14701TIP3    H165594   4.673   3.101  14.431 -0.4009  0.5324  1.1013
14701TIP3    H265595   4.729   2.970  14.482  0.9796 -0.3915 -2.6336
14702TIP3   OH265596   5.233   2.478   5.871 -0.3693 -0.3461 -0.1445
14702TIP3    H165597   5.138   2.487   5.864 -0.5832 -1.8932  0.4557
14702TIP3    H265598   5.261   2.554   5.921 -0.9692  1.4943 -2.5205
14703TIP3   OH265599   1.440   1.635   3.218  0.5337  0.2149 -0.1993
14703TIP3    H165600   1.534   1.615   3.224  0.3351 -0.6912  0.0307
14703TIP3    H265601   1.405   1.610   3.303 -0.2107 -1.1226 -0.8651
14704TIP3   OH265602   1.749   1.442  15.085 -0.4719 -0.4301  0.1471
14704TIP3    H165603   1.667   1.478  15.120  0.5950  1.6488  0.5643
14704TIP3    H265604   1.808   1.440  15.161  0.5799  0.2506 -0.6503
14705TIP3   OH265605   3.533   0.145  10.793  0.0813  0.2759 -0.0847
14705TIP3    H165606   3.539   0.177  10.703 -0.5453 -0.7951 -0.5162
14705TIP3    H265607   3.448   0.100  10.797 -0.4427  1.3395  1.3781
14706TIP3   OH265608   5.141   2.371  14.059  0.1671  0.0954 -0.1834
14706TIP3    H165609   5.142   2.280  14.089  0.0525 -0.3050 -1.3598
14706TIP3    H265610   5.221   2.409  14.095  0.0401 -0.3755  0.6011
14707TIP3   OH265611   2.712   0.122   2.279  0.4928  0.4258  0.5705
14707TIP3    H165612   2.727   0.127   2.373 -0.6216  3.3817  0.6592
14707TIP3    H265613   2.746   0.205   2.245 -0.1858 -0.0971 -1.4468
14708TIP3   OH265614   5.140   1.183   0.938 -0.2236 -0.0063  0.1219
14708TIP3    H165615   5.139   1.256   0.876 -0.3255  0.7141  0.9639
14708TIP3    H265616   5.195   1.117   0.896 -1.4739 -0.1170 -1.3952
14709TIP3   OH265617   5.921   4.466  17.199 -0.1049  0.7614 -1.0711
14709TIP3    H165618   5.844   4.409  17.201 -0.1603  0.7952 -2.0060
14709TIP3    H265619   5.933   4.492  17.291 -0.3921 -0.3301 -0.7048
14710TIP3   OH265620   1.967   1.715   5.408  0.8778 -0.1429  0.2889
14710TIP3    H165621   1.925   1.768   5.475 -0.0570 -0.6316  0.0992
14710TIP3    H265622   2.059   1.708   5.436  0.7410  0.5962  0.9157
14711TIP3   OH265623   1.817   1.309  12.727 -0.5816 -0.2010 -0.2062
14711TIP3    H165624   1.844   1.230  12.775  0.0961 -0.6629 -1.3354
14711TIP3    H265625   1.898   1.342  12.688 -1.2843 -0.3802 -1.8416
14712TIP3   OH265626   3.878   5.833   3.042  0.1712  0.3914 -0.1486
14712TIP3    H165627   3.785   5.854   3.037  0.3485  1.0639 -0.7446
14712TIP3    H265628   3.918   5.908   3.085  0.0347 -1.1977  2.8948
14713TIP3   OH265629   4.968   0.803  15.913 -0.0282 -0.0774  0.2816
14713TIP3    H165630   5.011   0.846  15.839 -2.3829  0.1738 -1.0146
14713TIP3    H265631   4.961   0.712  15.886 -0.4191 -0.0892  0.4215
14714TIP3   OH265632   1.287   1.953  16.030  0.1469  0.5011  0.7150
14714TIP3    H165633   1.321   2.041  16.015  0.3337  0.2732 -0.1902
14714TIP3    H265634   1.227   1.938  15.957 -0.0684 -0.0344  1.0004
14715TIP3   OH265635   6.727   0.339  16.646 -0.9371  0.0717 -0.0480
14715TIP3    H165636   6.670   0.268  16.675 -0.8313 -0.1799 -0.4449
14715TIP3    H265637   6.689   0.418  16.684 -1.5735 -0.0915 -0.3391
14716TIP3   OH265638   6.664   6.661  16.612 -0.4481  0.3469  0.3714
14716TIP3    H165639   6.648   6.692  16.701 -0.5030 -0.8084  0.7722
14716TIP3    H265640   6.648   6.567  16.616  0.3787  0.1544 -0.6684
14717TIP3   OH265641   5.303   6.616  13.675 -0.6996 -0.2556 -0.2377
14717TIP3    H165642   5.322   6.664  13.756 -0.0396 -1.1657  0.1544
14717TIP3    H265643   5.212   6.589  13.683 -1.0250  0.7605 -0.3805
14718TIP3   OH265644   2.339   2.942  11.949 -0.1538 -0.5979  0.0268
14718TIP3    H165645   2.269   2.944  12.014 -2.2271 -1.0660 -2.1246
14718TIP3    H265646   2.296   2.965  11.867  2.0327 -1.8324 -1.5084
14719TIP3   OH265647   0.977   4.216   2.728 -0.0771 -0.2185 -0.9958
14719TIP3    H165648   0.963   4.310   2.736  1.5093  0.0875 -1.5686
14719TIP3    H265649   0.978   4.184   2.818 -1.8867  0.1043 -0.8497
14720TIP3   OH265650   3.682   0.681   4.248 -0.3008  0.5164  0.0383
14720TIP3    H165651   3.754   0.637   4.202 -0.8553 -0.3013 -0.0560
14720TIP3    H265652   3.614   0.689   4.181 -0.2413  1.4277  0.0873
14721TIP3   OH265653   5.013   4.631  16.937  0.0346  0.0573  0.3205
14721TIP3    H165654   5.052   4.558  16.985  1.8333  1.5143  1.1165
14721TIP3    H265655   5.027   4.609  16.845 -2.1389 -2.0397  0.4429
14722TIP3   OH265656   3.065   6.300  10.831  0.1880  0.0583 -1.0692
14722TIP3    H165657   3.121   6.299  10.754  0.2890  0.9502 -1.0165
14722TIP3    H265658   3.026   6.212  10.834 -1.2954  0.5833 -3.2374
14723TIP3   OH265659   1.133   3.788  13.078 -0.3400 -0.5210 -0.5229
14723TIP3    H165660   1.125   3.713  13.136  1.0598 -0.7099 -0.5522
14723TIP3    H265661   1.227   3.794  13.060 -0.1458  2.5836  1.2631
14724TIP3   OH265662   4.234   4.757  15.821 -0.1772 -0.6265 -0.5877
14724TIP3    H165663   4.220   4.852  15.824 -2.5874 -0.9339 -1.1214
14724TIP3    H265664   4.154   4.722  15.783  1.0440 -2.8223 -1.2479
14725TIP3   OH265665   4.606   1.577   4.013  0.1253  0.2198 -0.1611
14725TIP3    H165666   4.651   1.615   3.937  1.1298 -3.6634 -1.5866
14725TIP3    H265667   4.676   1.558   4.075 -0.1537 -0.9837 -0.2137
14726TIP3   OH265668   6.360   0.438   1.567  0.1203  0.0550 -0.2242
14726TIP3    H165669   6.385   0.476   1.483 -2.0295  1.4329 -0.2755
14726TIP3    H265670   6.291   0.375   1.545  0.5955 -0.6747  0.3543
14727TIP3   OH265671   3.246   2.482  13.594 -0.5772 -0.0558  0.2643
14727TIP3    H165672   3.262   2.389  13.582 -0.8067  0.0231 -0.6961
14727TIP3    H265673   3.321   2.525  13.554 -1.4598  0.2156 -1.1626
14728TIP3   OH265674   5.180   5.645  10.424 -0.3402 -0.5781  0.8175
14728TIP3    H165675   5.218   5.733  10.423 -0.3298 -0.5793  1.2265
14728TIP3    H265676   5.254   5.586  10.423 -0.3435 -0.6139 -2.3436
14729TIP3   OH265677   2.385   2.360  14.321  0.0271 -0.2942  0.6292
14729TIP3    H165678   2.325   2.376  14.248  1.2940 -0.0668 -0.3900
14729TIP3    H265679   2.434   2.442  14.329  1.3569 -1.0377  0.3312
14730TIP3   OH265680   5.867   0.155  11.707 -0.4217 -0.0124 -0.0826
14730TIP3    H165681   5.776   0.132  11.728  0.1821 -1.5005  0.9754
14730TIP3    H265682   5.903   0.076  11.667  1.2257 -0.4268  2.1181
14731TIP3   OH265683   5.655   2.763  11.526  0.0027 -0.5777  0.0850
14731TIP3    H165684   5.598   2.687  11.521  0.0488 -0.6812  1.0449
14731TIP3    H265685   5.717   2.743  11.597 -1.4330  1.3136  1.9416
14732TIP3   OH265686   6.152   2.448   2.172 -0.0008  0.6145 -0.2453
14732TIP3    H165687   6.224   2.385   2.183 -0.2782  0.5935  1.6183
14732TIP3    H265688   6.108   2.448   2.257 -1.8192  1.1163 -1.1738
14733TIP3   OH265689   3.889   3.489   2.960 -0.0035 -0.0714 -0.3781
14733TIP3    H165690   3.827   3.418   2.944  0.1276 -0.5630  1.2562
14733TIP3    H265691   3.838   3.569   2.946 -0.7878 -0.4748  0.1580
14734TIP3   OH265692   0.559   6.608  15.334 -0.5420 -0.1873 -0.2188
14734TIP3    H165693   0.508   6.527  15.339 -0.7839  0.0945  3.4445
14734TIP3    H265694   0.595   6.619  15.422  1.2887  2.5723 -1.2322
14735TIP3   OH265695   5.197   5.339   0.091  0.0392  0.0735  0.0153
14735TIP3    H165696   5.154   5.417   0.125  0.9148  0.5615  0.0144
14735TIP3    H265697   5.127   5.274   0.085 -0.7236  0.8924 -0.1090
14736TIP3   OH265698   1.900   3.315  14.035 -0.4283  0.1851 -0.5739
14736TIP3    H165699   1.950   3.366  14.098  0.9815 -0.5132 -1.0818
14736TIP3    H265700   1.809   3.338  14.051 -0.3013 -1.4963  3.0739
14737TIP3   OH265701   0.517   4.082  15.772 -0.3010 -0.3536  0.2621
14737TIP3    H165702   0.453   4.020  15.806 -0.5106 -1.2843 -1.7581
14737TIP3    H265703   0.602   4.039  15.787 -0.0011  1.4946  4.2116
14738TIP3   OH265704   0.098   2.262  13.277 -0.4268  0.4173  0.5377
14738TIP3    H165705   0.099   2.313  13.357 -1.8849  0.6981  0.4013
14738TIP3    H265706   0.032   2.305  13.222  0.1178 -0.1329 -0.5631
14739TIP3   OH265707   6.177   4.260  10.806  0.1536  0.3424 -0.3491
14739TIP3    H165708   6.244   4.294  10.865  0.2526  0.1266 -0.3364
14739TIP3    H265709   6.094   4.281  10.849  0.2390 -0.4330  0.2166
14740TIP3   OH265710   4.573   2.541   3.935 -0.1068 -0.2280 -0.1544
14740TIP3    H165711   4.660   2.554   3.896  0.4226  0.3559  1.1559
14740TIP3    H265712   4.590   2.483   4.010 -0.7138  0.5348  0.5824
14741TIP3   OH265713   1.835   5.916   5.682 -0.4271  0.4937 -0.7510
14741TIP3    H165714   1.744   5.917   5.713 -0.0014  1.9141  0.5205
14741TIP3    H265715   1.832   5.965   5.599 -0.9546 -0.1761 -1.1348
14742TIP3   OH265716   4.756   2.304  15.061  0.3443  0.5938  0.2513
14742TIP3    H165717   4.815   2.376  15.039 -0.8762  1.7685  0.8065
14742TIP3    H265718   4.805   2.251  15.123  0.4882  2.0681  1.4241
14743TIP3   OH265719   2.568   4.699   5.046  0.4798  0.2089 -0.6018
14743TIP3    H165720   2.636   4.631   5.041  1.0288  0.7293 -0.2609
14743TIP3    H265721   2.511   4.669   5.117  0.3709 -0.2121 -0.8622
14744TIP3   OH265722   4.540   1.238   5.035  0.8651 -0.1324 -0.5173
14744TIP3    H165723   4.483   1.315   5.040  1.0352  0.0325 -1.0763
14744TIP3    H265724   4.487   1.173   4.989  0.2956 -0.7389  0.9852
14745TIP3   OH265725   5.289   3.221  16.172  0.2804  0.3507  0.2331
14745TIP3    H165726   5.256   3.194  16.258 -1.0572 -0.6861 -0.5729
14745TIP3    H265727   5.249   3.307  16.157  0.9622  0.7848  0.8839
14746TIP3   OH265728   0.230   5.385   6.522 -0.3267 -0.3749 -0.4508
14746TIP3    H165729   0.258   5.401   6.611  0.7725 -0.2897 -0.8031
14746TIP3    H265730   0.160   5.448   6.506  0.9956  1.1213 -0.3908
14747TIP3   OH265731   2.458   3.370  13.014  0.1840 -0.4144 -0.1905
14747TIP3    H165732   2.536   3.321  13.041  0.0566 -0.9269 -0.7520
14747TIP3    H265733   2.490   3.430  12.946  0.5721  1.1156  1.3105
14748TIP3   OH265734   1.736   6.107  13.921 -0.1793 -0.1889  0.3392
14748TIP3    H165735   1.751   6.166  13.995  0.6973  0.4290 -0.3066
14748TIP3    H265736   1.823   6.070  13.902 -0.2381  0.2597 -0.8655
14749TIP3   OH265737   1.077   3.502  13.144  0.1105 -0.0575 -0.0133
14749TIP3    H165738   1.074   3.446  13.221  0.7888  1.6060  1.2642
14749TIP3    H265739   1.160   3.480  13.102  0.3464 -0.0795  0.4521
14750TIP3   OH265740   0.479   0.049  11.622 -0.0892  0.0130 -0.7142
14750TIP3    H165741   0.453  -0.022  11.680 -2.2745  0.1769 -1.4796
14750TIP3    H265742   0.455   0.129  11.670 -0.4756  0.1809 -1.1905
14751TIP3   OH265743   1.472   6.146   4.093 -0.0353 -0.1840  0.3242
14751TIP3    H165744   1.426   6.103   4.021 -1.4864 -1.0291  1.7277
14751TIP3    H265745   1.455   6.239   4.080 -1.9294 -0.4658  0.6477
14752TIP3   OH265746   3.744   6.470  11.040  0.5238  0.5945 -0.2569
14752TIP3    H165747   3.760   6.484  10.946  1.2001  0.7214 -0.1274
14752TIP3    H265748   3.649   6.459  11.047  0.3418  1.6809 -0.8152
14753TIP3   OH265749   3.866   1.853   0.183 -0.3531  0.4701  0.1225
14753TIP3    H165750   3.815   1.774   0.200 -2.1003  1.9267  1.9040
14753TIP3    H265751   3.819   1.898   0.113  0.0542  0.4516 -0.1665
14754TIP3   OH265752   5.679   6.430   2.363  0.8946 -0.2990 -0.2239
14754TIP3    H165753   5.773   6.414   2.372  1.0730  1.0719  0.4987
14754TIP3    H265754   5.641   6.343   2.356  2.2623 -0.8553 -1.0390
14755TIP3   OH265755   3.441   0.326   0.637  0.6921  0.0266 -0.4535
14755TIP3    H165756   3.350   0.317   0.608  0.5809  0.0612 -0.1196
14755TIP3    H265757   3.479   0.239   0.624  0.1055 -0.4888  1.1077
14756TIP3   OH265758   4.109   4.786  16.443 -0.6067 -0.0152 -0.0543
14756TIP3    H165759   4.192   4.779  16.490 -2.3950 -1.4106  3.0114
14756TIP3    H265760   4.095   4.881  16.433  0.9246  0.2350  0.1140
14757TIP3   OH265761   6.677   5.446  15.872  0.0517 -0.1048 -0.3577
14757TIP3    H165762   6.750   5.498  15.906  0.1152 -0.8963  0.7059
14757TIP3    H265763   6.718   5.383  15.813  0.2675 -0.7851  0.5165
14758TIP3   OH265764   1.651   0.779   3.169  0.2708  0.9441  0.3219
14758TIP3    H165765   1.563   0.807   3.143  0.9002  1.5052 -1.2821
14758TIP3    H265766   1.650   0.684   3.158 -0.2889  0.8871  0.8194
14759TIP3   OH265767   0.830   4.431   2.640  0.3857  0.3858 -0.5638
14759TIP3    H165768   0.891   4.454   2.711 -1.3019  0.2636  0.9573
14759TIP3    H265769   0.787   4.514   2.619  0.3200  0.2620 -0.9053
14760TIP3   OH265770   1.852   0.895  13.075 -0.0352  0.4764  0.4435
14760TIP3    H165771   1.944   0.870  13.081 -0.5383 -1.4237  0.4238
14760TIP3    H265772   1.804   0.812  13.071 -1.7423  1.4400  0.2962
14761TIP3   OH265773   3.678   0.117  14.815 -0.5414  0.0314 -0.1900
14761TIP3    H165774   3.647   0.028  14.832 -1.1847  0.3956  0.6081
14761TIP3    H265775   3.598   0.167  14.799 -0.2517  0.6524  0.2818
14762TIP3   OH265776   4.163   5.049  16.378 -0.3752 -0.3615 -0.2054
14762TIP3    H165777   4.236   5.047  16.316  0.0215 -0.1959  0.2506
14762TIP3    H265778   4.205   5.051  16.464 -0.9250 -0.9756  0.0781
14763TIP3   OH265779   0.345   5.852   3.290  0.0899 -0.0147 -0.3339
14763TIP3    H165780   0.331   5.936   3.245 -1.5276 -0.3269 -0.4235
14763TIP3    H265781   0.374   5.793   3.221 -2.6529 -0.5632 -1.0611
14764TIP3   OH265782   5.653   4.729  15.564 -0.4684  0.4632 -0.0139
14764TIP3    H165783   5.690   4.788  15.629 -0.0164  1.6482 -1.3249
14764TIP3    H265784   5.627   4.786  15.492 -2.2131 -0.6782 -0.3193
14765TIP3   OH265785   2.428   2.800   2.071 -0.2874  0.5178 -0.1795
14765TIP3    H165786   2.361   2.732   2.066 -0.4902  0.6857  0.2099
14765TIP3    H265787   2.510   2.754   2.054 -0.4591  0.2392 -0.2635
14766TIP3   OH265788   2.312   1.404   4.953 -0.7715  0.0299  0.2877
14766TIP3    H165789   2.400   1.406   4.989 -1.5662  0.9772  2.2813
14766TIP3    H265790   2.318   1.349   4.875  1.8521  1.2015 -0.3713
14767TIP3   OH265791   5.383   4.979  11.356 -0.3888 -0.5194 -0.1155
14767TIP3    H165792   5.397   4.963  11.263 -1.0445 -1.6131 -0.0410
14767TIP3    H265793   5.465   5.016  11.387  1.0053 -3.2358 -0.4544
14768TIP3   OH265794   2.268   5.919  14.215 -0.2292 -0.3071  0.7262
14768TIP3    H165795   2.278   5.973  14.293  0.0505  0.9044 -0.1258
14768TIP3    H265796   2.355   5.883  14.199  0.3755  1.6326 -0.5589
14769TIP3   OH265797   1.259   6.447   0.248 -0.2613  0.0658  0.6308
14769TIP3    H165798   1.212   6.523   0.283 -0.1403  0.3459  0.1815
14769TIP3    H265799   1.209   6.421   0.171  1.1738  1.3047 -0.7408
14770TIP3   OH265800   1.308   6.295  16.255  0.0219 -0.5065  0.6455
14770TIP3    H165801   1.272   6.304  16.343 -1.8210 -1.6993  0.0307
14770TIP3    H265802   1.255   6.227  16.214  0.0928  0.8622 -1.8014
14771TIP3   OH265803   3.486   2.781  15.946 -0.0708 -0.1270 -0.1399
14771TIP3    H165804   3.417   2.721  15.921  0.5218 -0.2075 -1.6338
14771TIP3    H265805   3.562   2.753  15.896  0.5151  1.1693 -0.0010
14772TIP3   OH265806   1.150   1.294  11.629 -0.0872  0.0676 -0.6434
14772TIP3    H165807   1.104   1.226  11.677  0.8259  0.1576  0.3848
14772TIP3    H265808   1.095   1.372  11.640  1.1598  0.6108  2.0716
14773TIP3   OH265809   3.547   3.178  13.851 -0.9869 -0.1378  0.2090
14773TIP3    H165810   3.632   3.221  13.863 -1.6230  1.0771  0.3952
14773TIP3    H265811   3.553   3.098  13.904  0.1082 -0.1584  0.0716
14774TIP3   OH265812   2.738   0.027  11.771  0.6263  0.4532 -0.2065
14774TIP3    H165813   2.714   0.019  11.863  0.9995  1.1444 -0.0480
14774TIP3    H265814   2.823  -0.017  11.765 -0.0577 -0.8611 -0.5146
14775TIP3   OH265815   4.620   1.395   1.929 -0.2050  0.0830 -0.3368
14775TIP3    H165816   4.619   1.478   1.881  1.6774  1.5125  1.9161
14775TIP3    H265817   4.528   1.377   1.948 -0.7712  0.7388 -2.3470
14776TIP3   OH265818   2.184   6.290  12.266  0.3119  0.3700  0.8361
14776TIP3    H165819   2.152   6.355  12.328  2.4607  0.6670  1.6690
14776TIP3    H265820   2.115   6.224  12.263 -0.5727  1.2077  2.2359
14777TIP3   OH265821   1.544   5.788   4.848 -0.3980  0.2722  0.2250
14777TIP3    H165822   1.465   5.759   4.894 -0.6884  1.2023  0.3024
14777TIP3    H265823   1.563   5.875   4.884  0.2905  0.3285 -0.2640
14778TIP3   OH265824   5.568   0.073  16.860 -0.1588  0.9390  0.7383
14778TIP3    H165825   5.508   0.136  16.821  2.1705  2.7290 -0.1064
14778TIP3    H265826   5.619   0.040  16.786  0.2295 -0.1918  1.4922
14779TIP3   OH265827   6.705   4.658  11.796 -0.3334  0.1513 -0.2268
14779TIP3    H165828   6.613   4.652  11.822  0.0787 -0.9477  1.0566
14779TIP3    H265829   6.753   4.646  11.878  0.9401  1.2164 -0.8144
14780TIP3   OH265830   5.100   3.153  15.929  0.6809  0.0973 -0.0421
14780TIP3    H165831   5.140   3.144  16.015  0.2771 -0.3678  0.0967
14780TIP3    H265832   5.095   3.248  15.915  1.6544  0.1591  0.0163
14781TIP3   OH265833   1.223   6.274   5.277 -0.1689 -0.3286  0.2054
14781TIP3    H165834   1.240   6.249   5.368  1.2230 -0.4651 -0.0861
14781TIP3    H265835   1.140   6.230   5.255  0.6522 -2.1515  0.6875
14782TIP3   OH265836   3.954   1.591  12.764 -0.3590 -0.4563 -0.2842
14782TIP3    H165837   3.873   1.541  12.752 -0.3808 -0.7064  0.7879
14782TIP3    H265838   4.024   1.531  12.737 -0.5591 -0.0448 -1.7370
14783TIP3   OH265839   5.101   0.932   2.753  0.0882 -0.9434  0.3527
14783TIP3    H165840   5.156   0.926   2.831  2.7678 -2.3280 -1.5597
14783TIP3    H265841   5.018   0.892   2.778  0.7365 -0.8870  2.6307
14784TIP3   OH265842   6.491   0.385   2.101  0.0080 -0.4263  0.2522
14784TIP3    H165843   6.399   0.375   2.124 -0.5416 -0.4203 -1.8334
14784TIP3    H265844   6.517   0.299   2.069 -0.2015  0.3844 -2.2269
14785TIP3   OH265845   4.845   4.806  10.672 -0.0930 -0.0279  0.0839
14785TIP3    H165846   4.893   4.741  10.620  1.1058  0.2031  0.8838
14785TIP3    H265847   4.806   4.865  10.606 -0.0326 -0.7447 -0.5993
14786TIP3   OH265848   3.498   4.685  13.303 -0.4912  0.2812  0.1672
14786TIP3    H165849   3.429   4.680  13.237 -0.0249 -1.8768 -0.2124
14786TIP3    H265850   3.569   4.631  13.267  1.2001  2.0102  0.7842
14787TIP3   OH265851   4.976   1.863  12.719  0.4017  0.1735  0.4238
14787TIP3    H165852   5.018   1.833  12.638 -0.5698 -2.0216  0.6975
14787TIP3    H265853   4.920   1.790  12.746  0.3686  1.0359  2.8438
14788TIP3   OH265854   4.786   2.081  13.748  0.0670 -0.2016 -0.5771
14788TIP3    H165855   4.796   2.146  13.818 -0.0240 -1.3696  0.5490
14788TIP3    H265856   4.724   2.120  13.687  0.9126  1.2671 -0.5195
14789TIP3   OH265857   0.006   5.930  16.073 -0.7853 -0.0924 -0.2921
14789TIP3    H165858   0.085   5.938  16.126 -2.2481  2.7071  1.5781
14789TIP3    H265859   0.038   5.935  15.982  1.2018  0.8517  0.4243
14790TIP3   OH265860   6.413   4.097   0.720 -0.7567 -0.8197 -0.0901
14790TIP3    H165861   6.323   4.091   0.686 -0.9658  2.5372 -0.2921
14790TIP3    H265862   6.468   4.068   0.647 -1.5582 -0.5117 -0.8221
14791TIP3   OH265863   2.987   5.083   1.501  0.1318 -0.0994  0.8252
14791TIP3    H165864   3.042   5.133   1.561  1.4049 -0.2056 -0.2310
14791TIP3    H265865   2.993   5.130   1.418 -0.8915 -0.4535  0.5429
14792TIP3   OH265866   2.059   3.735  15.259  0.0067  0.6928 -0.3715
14792TIP3    H165867   2.008   3.805  15.300  2.1101  1.0125  1.8387
14792TIP3    H265868   2.117   3.704  15.329 -0.2332 -2.6602 -1.5457
14793TIP3   OH265869   3.527   2.313   3.939 -0.4236 -0.0330 -0.6216
14793TIP3    H165870   3.513   2.232   3.890  0.1007 -0.3916 -0.1830
14793TIP3    H265871   3.557   2.284   4.025  0.2433  0.6387 -0.6197
14794TIP3   OH265872   2.320   0.905  14.706 -0.3267 -1.0855 -0.2470
14794TIP3    H165873   2.327   0.818  14.745 -1.0279 -0.9582  0.1749
14794TIP3    H265874   2.279   0.890  14.621 -0.8810 -1.1110  0.0276
14795TIP3   OH265875   1.285   4.882  13.161  0.1746 -0.1599  0.4117
14795TIP3    H165876   1.218   4.813  13.153  1.8860 -1.6352 -1.7890
14795TIP3    H265877   1.248   4.957  13.115 -0.5173 -0.5428  0.3381
14796TIP3   OH265878   5.338   0.642  15.966 -0.4268 -0.0359  0.2031
14796TIP3    H165879   5.424   0.634  16.007 -1.5636  0.4174  2.7789
14796TIP3    H265880   5.350   0.707  15.897  1.6926 -1.3052 -0.6377
14797TIP3   OH265881   4.991   1.005   1.341  0.1826 -0.2722 -0.0371
14797TIP3    H165882   4.986   0.972   1.431  1.9860 -1.4954 -0.3481
14797TIP3    H265883   4.967   0.930   1.287  1.1176 -0.1395 -0.6421
14798TIP3   OH265884   1.316   5.228   2.970 -0.6625  0.4423 -0.2928
14798TIP3    H165885   1.406   5.257   2.980  0.1918 -1.9239 -0.8457
14798TIP3    H265886   1.308   5.204   2.878 -2.3654  2.1646 -0.6458
14799TIP3   OH265887   4.692   5.619  11.376 -0.0692  0.8927  0.0017
14799TIP3    H165888   4.637   5.682  11.331  0.2125  0.7714 -0.5142
14799TIP3    H265889   4.712   5.660  11.460 -1.6806  0.5630  0.5711
14800TIP3   OH265890   6.119   4.029   5.166  0.3167  0.0492  0.3220
14800TIP3    H165891   6.184   4.063   5.105 -1.8395  0.7449 -1.6982
14800TIP3    H265892   6.129   4.082   5.245  1.2759  1.0365 -0.4512
14801TIP3   OH265893   5.715   3.774   4.024  0.3571 -0.0575 -0.3097
14801TIP3    H165894   5.789   3.798   4.079 -0.0804 -0.1100  0.3103
14801TIP3    H265895   5.667   3.708   4.075  0.2004 -0.4499 -0.9469
14802TIP3   OH265896   4.787   0.606   3.097 -0.1629  0.0903 -0.5924
14802TIP3    H165897   4.716   0.637   3.042  0.6410  1.9928 -0.5756
14802TIP3    H265898   4.764   0.636   3.185 -0.2120 -0.8433 -0.2708
14803TIP3   OH265899   3.203   3.568   0.465  0.0821  0.3848  0.1881
14803TIP3    H165900   3.122   3.614   0.446 -1.8399 -1.9593  2.3321
14803TIP3    H265901   3.204   3.495   0.403  0.0621 -0.1327  0.7932
14804TIP3   OH265902   6.308   4.596   1.060  0.1048 -0.4236 -0.1614
14804TIP3    H165903   6.279   4.505   1.048 -0.3763 -0.5661  1.8951
14804TIP3    H265904   6.311   4.632   0.971 -1.0433 -2.0379 -0.8815
14805TIP3   OH265905   3.977   1.869   5.320  0.4431 -0.4903 -0.2336
14805TIP3    H165906   3.990   1.824   5.403 -0.8009 -1.6792 -0.6673
14805TIP3    H265907   4.043   1.832   5.262  1.4821  0.5243  0.2742
14806TIP3   OH265908   0.753   5.026   1.362 -0.4496 -0.9734  0.0260
14806TIP3    H165909   0.788   5.106   1.323 -1.6314 -0.8193 -0.7374
14806TIP3    H265910   0.828   4.986   1.405  0.9215 -1.1816 -2.4740
14807TIP3   OH265911   3.151   3.418  11.008 -0.4051 -0.8499 -0.6382
14807TIP3    H165912   3.241   3.431  10.980  0.9145 -1.1972  3.0949
14807TIP3    H265913   3.126   3.333  10.972  1.4210 -1.5822 -0.2241
14808TIP3   OH265914   3.148   0.011   4.459 -0.3680 -0.3691  0.7054
14808TIP3    H165915   3.212   0.024   4.530  1.4186 -2.3715 -0.4750
14808TIP3    H265916   3.125   0.099   4.431  0.5430  0.4094  2.3362
14809TIP3   OH265917   1.838   5.033  12.148 -0.2283  0.0712  0.1004
14809TIP3    H165918   1.804   5.050  12.236  2.9277  1.9732  1.0499
14809TIP3    H265919   1.760   5.019  12.094 -2.2928  0.5018  2.8740
14810TIP3   OH265920   2.204   5.982   3.059 -0.2802  0.2758  0.4465
14810TIP3    H165921   2.278   6.004   3.002 -1.2084 -2.0037 -1.6958
14810TIP3    H265922   2.168   6.067   3.084  2.9920  1.4478  1.5263
14811TIP3   OH265923   3.374   3.869  15.695 -0.3776  0.2643 -0.1286
14811TIP3    H165924   3.323   3.947  15.676 -0.9000  0.0565  0.4125
14811TIP3    H265925   3.408   3.841  15.610 -1.2841  0.3075 -0.5040
14812TIP3   OH265926   4.087   5.689  14.574  0.5776  0.0397 -0.3548
14812TIP3    H165927   4.092   5.727  14.486  2.7328  2.0623  0.6017
14812TIP3    H265928   4.064   5.763  14.630 -0.3058 -1.1486  0.8829
14813TIP3   OH265929   1.679   2.987  14.804 -0.3827  0.1854 -0.6853
14813TIP3    H165930   1.620   2.912  14.818  2.2585 -1.7620  0.3064
14813TIP3    H265931   1.705   3.014  14.892  0.5537  0.7476 -1.1263
14814TIP3   OH265932   3.703   2.402  16.951 -0.1513  0.0815  0.4779
14814TIP3    H165933   3.623   2.350  16.949  1.8693 -3.1620 -0.0044
14814TIP3    H265934   3.700   2.448  17.035 -3.1087  1.0236 -0.1090
14815TIP3   OH265935   4.875   2.567  11.848  0.3897 -0.3589 -0.2400
14815TIP3    H165936   4.925   2.571  11.766 -0.2977  1.4277 -0.5937
14815TIP3    H265937   4.922   2.624  11.908 -0.8566  0.8557 -0.3883
14816TIP3   OH265938   2.674   2.878  12.386 -0.2469 -0.0890 -0.5620
14816TIP3    H165939   2.709   2.960  12.350  2.0175 -0.9082 -0.3209
14816TIP3    H265940   2.749   2.838  12.431 -1.5109 -1.9411 -0.0590
14817TIP3   OH265941   5.496   4.191  16.465  0.0070 -0.4036 -0.0268
14817TIP3    H165942   5.534   4.276  16.488 -2.3484  0.6493  0.1302
14817TIP3    H265943   5.502   4.139  16.545 -0.8213  0.4875  0.6260
14818TIP3   OH265944   6.529   6.720   5.673  0.3714  0.1795 -0.0893
14818TIP3    H165945   6.582   6.671   5.609 -2.3295 -0.1237 -2.1675
14818TIP3    H265946   6.457   6.661   5.695 -1.3113  2.0669 -0.3955
14819TIP3   OH265947   5.898   4.769   4.332 -0.4563 -0.5493  0.1594
14819TIP3    H165948   5.810   4.742   4.305 -0.5192  0.7087 -0.9531
14819TIP3    H265949   5.949   4.771   4.251  0.5573 -1.0816  0.7704
14820TIP3   OH265950   1.367   6.508   5.971 -0.0598  0.1208 -0.3863
14820TIP3    H165951   1.360   6.463   5.887 -0.8628  0.6554 -0.6088
14820TIP3    H265952   1.278   6.505   6.007  0.1295  0.5145  0.1228
14821TIP3   OH265953   4.303   2.251  10.487 -0.1112  0.2209 -0.0397
14821TIP3    H165954   4.388   2.268  10.529  0.6689 -0.1091 -1.4665
14821TIP3    H265955   4.323   2.187  10.419 -1.4044  0.6450 -0.8214
14822TIP3   OH265956   6.794   2.822   3.839 -0.6605  0.4876  0.1696
14822TIP3    H165957   6.750   2.742   3.810 -1.2749  1.1792 -0.8355
14822TIP3    H265958   6.836   2.857   3.760  1.5751 -0.0594  1.0808
14823TIP3   OH265959   1.714   1.294  15.919  0.3423  0.2832  0.3942
14823TIP3    H165960   1.640   1.253  15.964 -0.8278  0.9210 -0.9259
14823TIP3    H265961   1.789   1.238  15.940 -0.8700 -1.4752  0.1523
14824TIP3   OH265962   0.976   6.294  12.078  0.0285  0.1784 -0.5295
14824TIP3    H165963   0.910   6.253  12.135  1.0965 -0.1962  0.4694
14824TIP3    H265964   1.001   6.226  12.016 -0.5038  0.3144 -0.8956
14825TIP3   OH265965   6.063   3.771  12.050  0.3603 -0.0307 -0.7578
14825TIP3    H165966   6.130   3.834  12.023  0.0974  0.1711 -0.9409
14825TIP3    H265967   5.995   3.778  11.983 -0.4611  0.7371  0.1416
14826TIP3   OH265968   4.657   5.758   2.515  0.4421 -0.0721 -0.2070
14826TIP3    H165969   4.617   5.782   2.432  0.5407  2.2474  0.3817
14826TIP3    H265970   4.704   5.677   2.496 -1.3628 -0.7819 -1.8383
14827TIP3   OH265971   2.716   5.037   1.036  0.3088  0.0486  0.3357
14827TIP3    H165972   2.791   4.977   1.037  0.7924  0.6040 -1.1174
14827TIP3    H265973   2.754   5.121   1.009 -0.9510  0.1866 -1.0157
14828TIP3   OH265974   0.624   1.613   1.502  0.3780 -0.5321 -0.4138
14828TIP3    H165975   0.547   1.650   1.459  2.1495  1.6917 -1.7612
14828TIP3    H265976   0.619   1.520   1.483 -1.8119 -0.3968 -0.7210
14829TIP3   OH265977   1.788   3.949  15.021  0.0960  0.6294 -0.7399
14829TIP3    H165978   1.823   3.957  15.110 -1.3966  0.8495 -0.1431
14829TIP3    H265979   1.865   3.949  14.964  1.2218 -1.8685  0.6856
14830TIP3   OH265980   4.080   4.854   5.867 -0.0810 -0.0177 -0.1764
14830TIP3    H165981   4.155   4.858   5.926 -0.1393 -0.5640 -0.0601
14830TIP3    H265982   4.035   4.773   5.891  0.7409 -1.0346 -1.9727
14831TIP3   OH265983   1.648   2.381  16.760 -0.6803 -0.7680  0.3293
14831TIP3    H165984   1.619   2.332  16.837  0.4481 -0.5623  0.8943
14831TIP3    H265985   1.732   2.343  16.737 -0.8345 -0.5693 -0.5732
14832TIP3   OH265986   4.605   2.981   4.171  0.1673 -0.3012  0.9290
14832TIP3    H165987   4.699   2.965   4.184  0.2307 -1.0873 -0.4497
14832TIP3    H265988   4.571   2.897   4.141 -1.0616 -0.1272  1.8209
14833TIP3   OH265989   3.488   2.319  12.130 -0.0190 -0.1457 -0.1544
14833TIP3    H165990   3.537   2.237  12.123  0.7705  0.2205  0.9884
14833TIP3    H265991   3.511   2.354  12.216 -0.7976  0.9920 -0.3948
14834TIP3   OH265992   3.568   0.228  10.543  0.3101  0.0837  0.1923
14834TIP3    H165993   3.655   0.256  10.517  0.3756 -0.7022 -0.4637
14834TIP3    H265994   3.534   0.180  10.467 -0.7202  0.4364  0.4156
14835TIP3   OH265995   3.759   2.915  13.570  0.7176  0.3581  0.2768
14835TIP3    H165996   3.814   2.993  13.571  0.3342  0.6520 -1.1369
14835TIP3    H265997   3.678   2.943  13.528  0.2237 -0.5697  0.5891
14836TIP3   OH265998   0.357   5.265   0.890 -0.3948 -0.1949  0.0496
14836TIP3    H165999   0.310   5.186   0.916  0.2511 -0.4376  0.4815
14836TIP3    H266000   0.438   5.264   0.941  1.0286 -0.8306 -2.1501
14837TIP3   OH266001   3.803   2.617  14.898  0.3651 -0.1583 -0.4421
14837TIP3    H166002   3.813   2.675  14.822  0.5425  2.8257  1.8069
14837TIP3    H266003   3.874   2.641  14.957 -0.9965 -1.0049  1.5927
14838TIP3   OH266004   2.662   6.045   3.454  0.5662  0.5489  0.0908
14838TIP3    H166005   2.600   5.984   3.493  1.0779 -0.5108 -0.7305
14838TIP3    H266006   2.608   6.114   3.416 -0.2092 -1.1533 -1.9705
14839TIP3   OH266007   2.315   4.528   0.975  0.4301  0.7548  0.0542
14839TIP3    H166008   2.405   4.497   0.966  0.8838  2.3761 -1.3496
14839TIP3    H266009   2.323   4.624   0.971 -1.1840  0.9747  1.6279
14840TIP3   OH266010   0.846   3.916  16.852 -0.3985  0.6705  0.0474
14840TIP3    H166011   0.754   3.926  16.827 -1.7503 -2.6695  3.2305
14840TIP3    H266012   0.856   3.822  16.868  3.1064  1.2267  1.4704
14841TIP3   OH266013   3.901   1.354  11.893 -0.0254 -0.0487 -0.3495
14841TIP3    H166014   3.833   1.288  11.901 -1.6768  1.4371 -1.6045
14841TIP3    H266015   3.977   1.306  11.859 -1.2357 -1.2827 -1.3746
14842TIP3   OH266016   4.006   5.095   1.648 -0.4946  0.4527 -0.5769
14842TIP3    H166017   4.085   5.047   1.671 -0.5066 -0.9716 -3.3529
14842TIP3    H266018   4.005   5.170   1.708  1.0864 -1.3892  1.7997
14843TIP3   OH266019   5.932   1.107   0.258  0.3731  0.2182  0.4399
14843TIP3    H166020   6.004   1.168   0.277 -0.1818  0.2896  2.3895
14843TIP3    H266021   5.975   1.031   0.218  1.3389  0.9056  0.1492
14844TIP3   OH266022   0.186   6.416   3.335  0.5317  0.5627 -0.3613
14844TIP3    H166023   0.274   6.392   3.363  1.1337  2.5605 -0.4662
14844TIP3    H266024   0.129   6.385   3.406  1.4539  0.5254  0.3660
14845TIP3   OH266025   0.621   6.458   1.842 -0.3428 -0.2027 -0.4684
14845TIP3    H166026   0.606   6.540   1.890 -0.3370 -0.0651 -0.7024
14845TIP3    H266027   0.656   6.486   1.757  1.4793 -0.5153  0.1556
14846TIP3   OH266028   6.037   0.920  13.226  0.3953 -0.3367 -0.0770
14846TIP3    H166029   6.043   0.882  13.313  0.0993  1.6124  0.8253
14846TIP3    H266030   5.943   0.923  13.207  0.4531 -0.6731 -0.4237
14847TIP3   OH266031   1.026   1.290  14.537  0.0201 -0.0110  0.3390
14847TIP3    H166032   1.047   1.373  14.580  1.4535 -0.6099  0.8232
14847TIP3    H266033   1.059   1.300  14.448 -2.1672  0.9057 -0.3862
14848TIP3   OH266034   6.435   1.834  17.024 -0.0040  0.0274  0.2908
14848TIP3    H166035   6.408   1.780  17.098 -0.9180 -1.1533 -0.8700
14848TIP3    H266036   6.480   1.908  17.063  1.1585 -1.5078  1.9477
14849TIP3   OH266037   6.626   6.648  13.467 -0.0076  1.0945 -0.6348
14849TIP3    H166038   6.719   6.651  13.490 -0.0711 -1.1243 -0.0299
14849TIP3    H266039   6.622   6.586  13.394 -1.0596  0.9657 -0.4698
14850TIP3   OH266040   4.269   6.060   1.063 -0.6596  0.2091 -0.3167
14850TIP3    H166041   4.310   6.136   1.105 -2.2118  0.3764  0.9647
14850TIP3    H266042   4.187   6.093   1.029  0.6365  0.0887 -3.7113
14851TIP3   OH266043   4.208   0.171   0.367  0.3765  0.0953  0.6386
14851TIP3    H166044   4.277   0.172   0.301  0.8369  0.8901  1.1401
14851TIP3    H266045   4.227   0.093   0.420  2.1772  1.5403  2.1503
14852TIP3   OH266046   0.029   2.896   3.045  0.4169  0.4815  0.1035
14852TIP3    H166047   0.004   2.933   3.130  0.5342  1.0343 -0.1001
14852TIP3    H266048   0.009   2.965   2.982  1.9501  0.7524 -0.1145
14853TIP3   OH266049   5.111   5.005  11.888 -0.0953  0.1449  0.7647
14853TIP3    H166050   5.121   5.097  11.910  1.6583  0.7497 -2.3959
14853TIP3    H266051   5.159   4.959  11.957  1.0008  1.7149  1.0653
14854TIP3   OH266052   5.091   0.582   5.302 -0.6353  0.2823  0.2427
14854TIP3    H166053   5.026   0.514   5.285  2.0989 -2.5461  0.7723
14854TIP3    H266054   5.126   0.562   5.389  2.3305  0.5556 -0.8177
14855TIP3   OH266055   3.566   4.205  11.638 -0.1547  0.8512 -0.0386
14855TIP3    H166056   3.545   4.165  11.723  1.4580 -0.7535 -0.3502
14855TIP3    H266057   3.637   4.266  11.658  1.0619 -0.4209 -0.3999
14856TIP3   OH266058   6.787   4.736  12.720  0.3259  0.3548  0.3852
14856TIP3    H166059   6.702   4.775  12.697 -0.5952 -1.2995  0.9143
14856TIP3    H266060   6.775   4.704  12.809  1.6616  0.4980  0.6209
14857TIP3   OH266061   2.179   3.616  13.077 -0.1486  0.1339  0.2217
14857TIP3    H166062   2.269   3.648  13.073  0.1396 -0.6955 -0.2451
14857TIP3    H266063   2.126   3.687  13.040  0.1735  1.1081  1.6215
14858TIP3   OH266064   3.057   6.640  16.943 -0.1638 -0.3208 -0.0239
14858TIP3    H166065   3.136   6.610  16.897 -1.0322 -2.0834 -0.4105
14858TIP3    H266066   3.069   6.735  16.952  0.7682 -0.1740 -2.4727
14859TIP3   OH266067   2.405   5.061   1.402  0.1495 -0.6843 -0.4785
14859TIP3    H166068   2.429   4.974   1.435  0.9204 -1.0533 -1.9402
14859TIP3    H266069   2.311   5.057   1.389 -0.2753 -0.3363  2.1672
14860TIP3   OH266070   2.211   0.819   4.259  0.3496  0.2199  1.2073
14860TIP3    H166071   2.258   0.735   4.260  0.8296  0.4701  0.3771
14860TIP3    H266072   2.278   0.883   4.233 -0.8687  0.3132 -1.8395
14861TIP3   OH266073   0.569   1.489   3.766  0.6998 -0.7612 -0.3585
14861TIP3    H166074   0.657   1.525   3.766 -0.0495  1.1894  2.3010
14861TIP3    H266075   0.551   1.468   3.858 -1.4276 -1.5590 -0.9243
14862TIP3   OH266076   5.877   4.908  13.539 -0.7037  0.1225  0.1037
14862TIP3    H166077   5.958   4.887  13.585  0.0483  1.6178 -0.4920
14862TIP3    H266078   5.868   4.840  13.472  0.3227  0.2221 -0.1368
14863TIP3   OH266079   5.187   3.338   0.571  0.1698  0.6561 -0.0358
14863TIP3    H166080   5.255   3.351   0.637 -0.2110 -0.9048  0.6779
14863TIP3    H266081   5.206   3.403   0.504  0.2142  2.6902  1.8825
14864TIP3   OH266082   1.002   0.646  12.836  0.0924 -0.3004 -0.1558
14864TIP3    H166083   0.953   0.642  12.918  0.9899  0.2733  0.4185
14864TIP3    H266084   1.082   0.597  12.854  0.4115  0.0525 -0.6082
14865TIP3   OH266085   3.513   0.637  14.385 -0.1435  0.0482 -0.2623
14865TIP3    H166086   3.604   0.642  14.353 -0.3055 -0.4132 -0.8043
14865TIP3    H266087   3.462   0.682  14.318 -0.1224  1.7502  0.8532
14866TIP3   OH266088   0.585   4.365  15.078  0.4549  0.8888 -0.5252
14866TIP3    H166089   0.498   4.393  15.049 -0.3620 -0.9768  0.0868
14866TIP3    H266090   0.576   4.354  15.173  1.0689 -0.4060 -0.6153
14867TIP3   OH266091   4.054   5.170   1.202 -0.4114 -0.5818  0.5905
14867TIP3    H166092   4.011   5.117   1.268 -2.5317 -0.2052 -0.4609
14867TIP3    H266093   4.102   5.106   1.148  0.9129 -0.9320  2.1404
14868TIP3   OH266094   5.714   1.717   3.093 -0.2577  0.1707 -0.2149
14868TIP3    H166095   5.626   1.688   3.117  0.2166 -0.7605  0.4534
14868TIP3    H266096   5.771   1.647   3.125  1.0054  2.1713  2.0950
14869TIP3   OH266097   4.691   5.413  14.466 -0.3140  0.7725 -0.5542
14869TIP3    H166098   4.628   5.364  14.414 -0.2806  0.8020 -0.6212
14869TIP3    H266099   4.642   5.488  14.500 -0.5457  0.3243  0.1166
14870TIP3   OH266100   5.704   4.475  15.632  0.5930 -0.7065 -0.3063
14870TIP3    H166101   5.628   4.418  15.621  0.5995 -0.7232 -0.2672
14870TIP3    H266102   5.673   4.562  15.605 -0.4591  0.0130  2.9599
14871TIP3   OH266103   1.812   0.031   1.942 -0.0844 -0.1875  0.3205
14871TIP3    H166104   1.815  -0.036   1.873  2.2793  0.7444 -0.5103
14871TIP3    H266105   1.841  -0.015   2.020 -0.0340 -0.5323  0.1034
14872TIP3   OH266106   2.269   2.084   4.921  0.1398  0.0560  0.4024
14872TIP3    H166107   2.183   2.048   4.901 -0.4655  1.3563  0.5951
14872TIP3    H266108   2.264   2.176   4.893  1.4523  0.1578  0.4411
14873TIP3   OH266109   3.438   6.732  11.009 -0.2474 -0.0330  0.3033
14873TIP3    H166110   3.465   6.641  10.996 -2.5681 -0.7024 -0.1232
14873TIP3    H266111   3.395   6.756  10.927 -0.1090  1.2789  0.6071
14874TIP3   OH266112   1.065   4.037   6.274  0.7300  0.2639 -0.2898
14874TIP3    H166113   1.057   4.128   6.246  2.8787  0.8473  0.8838
14874TIP3    H266114   1.096   3.991   6.197  0.2603  0.6633 -0.7165
14875TIP3   OH266115   1.555   1.300   3.241  0.5015 -0.0040 -0.0640
14875TIP3    H166116   1.574   1.285   3.334  0.6997  0.4576 -0.0289
14875TIP3    H266117   1.641   1.303   3.199  0.4795  1.0912 -0.0570
14876TIP3   OH266118   5.745   6.309  13.593 -0.0466 -0.0650  0.5073
14876TIP3    H166119   5.749   6.252  13.517  0.3388  2.5233 -1.5075
14876TIP3    H266120   5.672   6.369  13.574 -0.6725 -0.0828  2.7000
14877TIP3   OH266121   2.808   6.228  11.862  0.0896  0.3127 -0.2788
14877TIP3    H166122   2.713   6.216  11.859  0.1283  0.0237 -0.3406
14877TIP3    H266123   2.834   6.198  11.950  0.2969 -0.8578 -0.7360
14878TIP3   OH266124   3.078   3.553  14.382  0.0593 -0.2096 -0.7413
14878TIP3    H166125   2.996   3.522  14.344  0.3733 -0.7091 -1.0192
14878TIP3    H266126   3.084   3.645  14.356 -0.0659 -0.3627 -1.3158
14879TIP3   OH266127   0.981   0.706  13.825 -0.7497  0.1809 -0.1636
14879TIP3    H166128   1.050   0.739  13.767  2.3979 -3.2417  1.4090
14879TIP3    H266129   0.987   0.611  13.817 -3.6856 -0.2374  1.9152
14880TIP3   OH266130   5.200   3.846  13.744  0.0417  0.4276 -0.0715
14880TIP3    H166131   5.125   3.882  13.791 -1.2290 -0.1676 -1.5550
14880TIP3    H266132   5.194   3.751  13.759  0.1487  0.3212 -0.6934
14881TIP3   OH266133   5.494   2.688  14.840 -0.1447 -0.3003  0.2439
14881TIP3    H166134   5.543   2.766  14.814 -2.9779  0.8883 -1.7597
14881TIP3    H266135   5.502   2.628  14.767 -0.3179 -0.7294  0.5742
14882TIP3   OH266136   4.797   0.526   0.041 -0.1217  0.1846 -0.6479
14882TIP3    H166137   4.741   0.594   0.005  0.7369  0.9937 -0.4547
14882TIP3    H266138   4.878   0.571   0.065  0.5619 -0.9468 -0.7878
14883TIP3   OH266139   0.457   5.080  10.335 -0.0349 -0.3502 -0.1083
14883TIP3    H166140   0.504   5.159  10.307 -0.8552  0.1364 -0.1095
14883TIP3    H266141   0.516   5.008  10.310  1.2822  0.3066  1.0036
14884TIP3   OH266142   2.331   6.640  16.826  0.7572 -0.2775  0.4149
14884TIP3    H166143   2.322   6.685  16.910  2.8976  0.0814  0.4808
14884TIP3    H266144   2.367   6.707  16.767 -0.1221 -0.7059 -0.6233
14885TIP3   OH266145   1.911   3.088   0.965  0.4587  0.3247  0.0031
14885TIP3    H166146   1.831   3.138   0.945  1.2180  1.8339  0.6490
14885TIP3    H266147   1.880   3.013   1.015 -0.7302  0.0328 -1.1271
14886TIP3   OH266148   4.608   1.197  13.729  0.5488 -0.0936 -0.3246
14886TIP3    H166149   4.659   1.116  13.730  2.5516  1.1533  0.2222
14886TIP3    H266150   4.673   1.267  13.724 -1.0790  1.5456  0.7492
14887TIP3   OH266151   5.347   5.203  15.502  0.0917 -0.0014 -0.1581
14887TIP3    H166152   5.410   5.153  15.450  0.8578  1.4056 -0.6018
14887TIP3    H266153   5.272   5.216  15.444  0.2030  0.0081 -0.3004
14888TIP3   OH266154   1.577   5.145   4.692 -0.0323 -0.2147 -0.3512
14888TIP3    H166155   1.598   5.074   4.753 -0.6223  0.3257  0.4958
14888TIP3    H266156   1.481   5.151   4.694  0.1086  2.0917  1.3273
14889TIP3   OH266157   6.010   0.400   1.029 -0.3437 -0.7508 -0.3069
14889TIP3    H166158   5.931   0.436   1.070 -0.2770 -1.4093  0.4082
14889TIP3    H266159   6.005   0.430   0.938 -1.2934 -0.5732 -0.2081
14890TIP3   OH266160   2.100   4.430  15.909 -0.4214  0.2396 -0.7113
14890TIP3    H166161   2.018   4.463  15.944 -0.7468 -0.3926 -0.8706
14890TIP3    H266162   2.077   4.395  15.823 -0.0174 -0.0935 -0.6839
14891TIP3   OH266163   5.279   2.919   2.176  0.1052  0.2718  0.2202
14891TIP3    H166164   5.192   2.900   2.210  0.2757 -0.2001  0.4067
14891TIP3    H266165   5.271   3.004   2.133 -0.4380  0.2422  0.2653
14892TIP3   OH266166   5.365   4.764   4.154  0.2041 -0.6698  0.6038
14892TIP3    H166167   5.433   4.809   4.103 -0.6586 -0.5210 -0.4470
14892TIP3    H266168   5.284   4.785   4.108 -0.8255  0.8493  2.9988
14893TIP3   OH266169   3.083   3.423  14.796 -0.4004 -0.1232 -0.2636
14893TIP3    H166170   3.099   3.506  14.842 -0.0772  0.3693 -1.2599
14893TIP3    H266171   3.153   3.417  14.732 -0.5515 -1.0709 -0.3411
14894TIP3   OH266172   1.710   0.091  13.342 -0.0288 -0.1450  0.2125
14894TIP3    H166173   1.668   0.009  13.369  0.9458 -0.1212  1.8796
14894TIP3    H266174   1.644   0.158  13.357 -0.6082 -0.5273 -0.5504
14895TIP3   OH266175   6.097   4.887   1.458 -0.0567  0.4780 -0.2231
14895TIP3    H166176   6.144   4.878   1.541 -1.1706  0.4098  0.4163
14895TIP3    H266177   6.149   4.839   1.395  0.1494 -0.5466  0.7072
14896TIP3   OH266178   0.048   2.121  16.153  0.7086 -0.3601  0.3637
14896TIP3    H166179   0.105   2.045  16.141  0.4741 -0.5082  0.1731
14896TIP3    H266180   0.042   2.160  16.066  2.7019  1.2296  0.9160
14897TIP3   OH266181   5.673   0.268  13.975 -0.2377 -0.1484 -0.3621
14897TIP3    H166182   5.729   0.337  14.011  1.0505 -0.3815 -1.8436
14897TIP3    H266183   5.721   0.236  13.898 -0.6002 -2.9668  0.5126
14898TIP3   OH266184   2.999   6.101  15.175 -0.5092  0.2620 -0.3926
14898TIP3    H166185   2.910   6.088  15.140 -0.9475  1.7804  0.1396
14898TIP3    H266186   3.032   6.177  15.128 -0.7440  1.7464  1.8099
14899TIP3   OH266187   0.451   0.999  10.829  0.2947  0.5136  0.1039
14899TIP3    H166188   0.543   1.004  10.856  0.2333 -0.2180  0.4730
14899TIP3    H266189   0.452   0.948  10.748  0.3158  1.3838 -0.4499
14900TIP3   OH266190   0.671   0.653  15.305  0.2983 -0.3838  0.8817
14900TIP3    H166191   0.592   0.651  15.251 -0.0929 -1.6496  1.4963
14900TIP3    H266192   0.743   0.649  15.242 -0.1373 -0.2281  0.3712
14901TIP3   OH266193   3.375   4.605   0.129 -0.0848 -0.2086 -0.0233
14901TIP3    H166194   3.432   4.647   0.193 -0.9927  0.8519  0.1175
14901TIP3    H266195   3.317   4.549   0.181 -0.3008  0.0423  0.0071
14902TIP3   OH266196   2.062   2.548  12.404 -0.1556 -0.3873  0.0440
14902TIP3    H166197   2.083   2.526  12.494  0.2361 -0.1301  0.0154
14902TIP3    H266198   2.146   2.554  12.359 -0.1964  1.5229  0.1446
14903TIP3   OH266199   2.210   5.342   4.151  0.2448  0.0637 -0.2659
14903TIP3    H166200   2.237   5.255   4.121  0.7874  0.0227  0.3209
14903TIP3    H266201   2.136   5.326   4.209  0.1620  0.0151 -0.3856
14904TIP3   OH266202   2.889   0.770  13.827  0.2167  0.4463  0.7779
14904TIP3    H166203   2.897   0.788  13.921  0.4917 -2.3523  1.3378
14904TIP3    H266204   2.978   0.752  13.798 -0.3007 -2.3896  0.8187
14905TIP3   OH266205   2.987   3.123  11.887 -0.7442 -0.0731  0.8639
14905TIP3    H166206   2.912   3.107  11.944 -0.3250 -0.0234  1.4360
14905TIP3    H266207   3.059   3.145  11.947 -0.2730 -0.1186  0.3239
14906TIP3   OH266208   4.790   0.659  12.794 -0.6013  0.3830 -0.6499
14906TIP3    H166209   4.821   0.574  12.763  0.3352  0.4405  0.1197
14906TIP3    H266210   4.706   0.640  12.837 -0.7108 -0.0539 -1.0490
14907TIP3   OH266211   2.800   3.294   2.553 -0.1632  0.5782  0.4022
14907TIP3    H166212   2.776   3.220   2.497 -0.5779 -0.1881  1.5797
14907TIP3    H266213   2.771   3.371   2.505  0.2118 -0.0258 -0.8107
14908TIP3   OH266214   5.354   4.554  12.603 -0.2560  0.0108  0.9047
14908TIP3    H166215   5.351   4.632  12.659  0.7450 -0.6110  1.8548
14908TIP3    H266216   5.288   4.496  12.639 -0.4435  0.0984  0.6990
14909TIP3   OH266217   6.234   2.133  13.957 -0.2487 -0.0386 -0.4048
14909TIP3    H166218   6.310   2.080  13.982  0.5031  1.0666 -0.3016
14909TIP3    H266219   6.259   2.172  13.873 -0.9132 -0.0811 -0.6223
14910TIP3   OH266220   1.767   6.788   3.507  0.5554  0.1690  0.1407
14910TIP3    H166221   1.678   6.785   3.542  0.4510 -0.2941 -0.1632
14910TIP3    H266222   1.773   6.873   3.463 -0.7611 -1.0741 -2.5494
14911TIP3   OH266223   2.846   4.034   5.391  0.2030 -0.3891  0.8532
14911TIP3    H166224   2.901   3.996   5.322 -0.2003  2.0190 -0.8486
14911TIP3    H266225   2.876   3.991   5.472  1.8904 -1.9673 -0.5622
14912TIP3   OH266226   3.954   5.173  11.761  0.0692  0.0899 -0.1875
14912TIP3    H166227   3.864   5.145  11.781  0.0815 -0.6078 -1.0817
14912TIP3    H266228   3.958   5.263  11.793 -1.5054  0.7465 -1.7294
14913TIP3   OH266229   6.314   5.146  12.608  0.3789  0.1029  0.7599
14913TIP3    H166230   6.341   5.173  12.520  1.6349 -1.5696  0.5922
14913TIP3    H266231   6.335   5.052  12.610  0.0916  0.0783  2.7455
14914TIP3   OH266232   0.147   5.855   1.477  0.1005 -0.4049  0.3324
14914TIP3    H166233   0.153   5.881   1.569 -3.7351  1.6784  0.0961
14914TIP3    H266234   0.071   5.797   1.472 -0.9583  1.0851 -1.8203
14915TIP3   OH266235   3.076   4.461   5.822 -0.5400 -0.2894  0.1008
14915TIP3    H166236   3.048   4.547   5.790 -0.3527 -0.4507 -0.5074
14915TIP3    H266237   3.033   4.452   5.907  0.6882  1.0528  0.8698
14916TIP3   OH266238   6.644   3.827   1.796  0.0909  0.1478 -0.5552
14916TIP3    H166239   6.733   3.851   1.822  0.7513 -4.1904  1.5930
14916TIP3    H266240   6.597   3.814   1.878 -1.8112 -0.1891 -1.6620
14917TIP3   OH266241   2.325   4.131   1.362  0.2022  0.2747  0.2530
14917TIP3    H166242   2.333   4.074   1.285  0.5433 -1.6750  1.6971
14917TIP3    H266243   2.414   4.137   1.397 -0.4048 -1.4055  2.2382
14918TIP3   OH266244   4.564   4.634  16.643 -0.3026 -0.0964 -0.3289
14918TIP3    H166245   4.617   4.562  16.678  1.8088  1.1407 -0.9045
14918TIP3    H266246   4.562   4.699  16.713 -0.2219  0.2808 -0.6715
14919TIP3   OH266247   3.925   0.655  14.649  1.0654  0.1756  0.7125
14919TIP3    H166248   3.918   0.600  14.727  4.1868  0.4343  1.2530
14919TIP3    H266249   4.003   0.708  14.665  0.6520  1.6032 -1.7653
14920TIP3   OH266250   4.670   1.059  16.666  0.1110  0.7452 -0.0455
14920TIP3    H166251   4.671   1.131  16.603 -2.7647  2.1779  1.4483
14920TIP3    H266252   4.612   0.994  16.627 -0.0894  0.7693  0.2116
14921TIP3   OH266253   0.352   2.283   0.091  0.3218  0.0896 -0.0780
14921TIP3    H166254   0.447   2.288   0.084  0.2841  0.4669 -0.3711
14921TIP3    H266255   0.322   2.268   0.001  0.2612 -2.9153  0.3828
14922TIP3   OH266256   1.389   6.351  15.885  0.4534  0.0929 -0.3978
14922TIP3    H166257   1.429   6.355  15.972  0.5759  0.8935 -0.4828
14922TIP3    H266258   1.385   6.258  15.864 -0.1041 -0.1376  0.7090
14923TIP3   OH266259   6.219   0.259  11.450  0.5272  0.0200 -0.4478
14923TIP3    H166260   6.196   0.335  11.503 -0.6636  0.3125 -1.3822
14923TIP3    H266261   6.296   0.287  11.400 -0.1161  0.7344 -1.0474
14924TIP3   OH266262   0.866   1.491   2.303 -0.2028 -0.4687  0.5164
14924TIP3    H166263   0.888   1.441   2.381  0.7001 -0.7515  0.0802
14924TIP3    H266264   0.915   1.449   2.232 -0.5330  0.1657 -0.0976
14925TIP3   OH266265   6.733   6.149  16.721  0.3034  0.0740 -0.3044
14925TIP3    H166266   6.652   6.106  16.749 -0.5120  2.5605  1.2673
14925TIP3    H266267   6.787   6.152  16.800  0.7017  1.1447 -0.6084
14926TIP3   OH266268   6.579   3.027   2.693  0.3590 -0.4861 -0.4217
14926TIP3    H166269   6.494   3.067   2.672  0.4719  0.2036  0.4039
14926TIP3    H266270   6.557   2.953   2.749  0.5096  1.7301  2.6611
14927TIP3   OH266271   1.621   0.711   5.269  0.3354 -0.1766 -0.2009
14927TIP3    H166272   1.646   0.785   5.214  0.0075 -0.7199 -1.0882
14927TIP3    H266273   1.616   0.748   5.357  1.7880  0.4959 -0.3840
14928TIP3   OH266274   2.959   4.295   6.195 -0.0927  0.1843 -0.1070
14928TIP3    H166275   2.955   4.384   6.160 -1.2144 -0.4382 -1.6180
14928TIP3    H266276   3.051   4.270   6.187  0.4339  1.5876  1.3337
14929TIP3   OH266277   6.684   6.537   0.298  0.6126 -0.2111  0.3368
14929TIP3    H166278   6.684   6.627   0.328 -0.3793  0.0017 -0.2676
14929TIP3    H266279   6.664   6.485   0.376  0.8981  0.1082  0.6221
14930TIP3   OH266280   6.128   1.128   4.332  0.2463  0.2288  0.1447
14930TIP3    H166281   6.150   1.035   4.326 -1.6975 -0.1558 -1.8917
14930TIP3    H266282   6.116   1.156   4.241 -0.4904  2.1545  0.7888
14931TIP3   OH266283   5.597   1.982   4.836  0.0536 -0.4471  0.4869
14931TIP3    H166284   5.611   1.891   4.863  2.4267 -0.0051  0.9356
14931TIP3    H266285   5.679   2.007   4.793 -0.1339  1.7978  1.3445
14932TIP3   OH266286   4.817   2.722  12.677  0.2325  0.2233  0.7435
14932TIP3    H166287   4.788   2.765  12.758 -0.5502  0.9515  0.0803
14932TIP3    H266288   4.830   2.793  12.615 -2.2524 -0.5572 -0.7334
14933TIP3   OH266289   1.231   5.300  16.919 -0.1274  0.4799  0.0332
14933TIP3    H166290   1.283   5.327  16.843  3.3349 -4.7391  0.2690
14933TIP3    H266291   1.161   5.245  16.882 -1.5935  2.1474  0.2644
14934TIP3   OH266292   2.642   1.715   1.834 -0.1894 -0.6510  0.0671
14934TIP3    H166293   2.589   1.773   1.779  0.5830 -1.4945 -1.6271
14934TIP3    H266294   2.654   1.637   1.780  0.9587 -1.3256  1.2806
14935TIP3   OH266295   1.241   2.390   2.200  0.8049 -0.1153  0.3318
14935TIP3    H166296   1.169   2.450   2.179  1.1203  0.0255 -0.3613
14935TIP3    H266297   1.266   2.352   2.115  1.0667 -0.7049  0.6725
14936TIP3   OH266298   3.031   6.100   5.447 -0.1954  0.7654  0.0106
14936TIP3    H166299   3.018   6.093   5.542 -1.1004  2.8817  0.0742
14936TIP3    H266300   2.981   6.178   5.422  1.0849  0.9750 -2.0027
14937TIP3   OH266301   4.758   3.546   0.718 -0.1796  0.1388  0.2230
14937TIP3    H166302   4.732   3.638   0.715 -1.5022 -0.2509 -0.4721
14937TIP3    H266303   4.835   3.545   0.776 -1.2378  1.4176  1.7023
14938TIP3   OH266304   5.202   5.715  14.860 -0.1961  0.5691 -0.2164
14938TIP3    H166305   5.147   5.708  14.938 -0.0390 -0.9100 -0.2287
14938TIP3    H266306   5.208   5.626  14.827  1.4066  0.8681 -0.7741
14939TIP3   OH266307   1.228   2.420  15.016  0.2767 -0.0786  0.2232
14939TIP3    H166308   1.171   2.345  15.000 -0.8369  0.5271  1.2677
14939TIP3    H266309   1.287   2.421  14.941  0.1072 -1.8079  0.0340
14940TIP3   OH266310   1.078   0.780   2.895 -0.1273  0.0297  0.5967
14940TIP3    H166311   1.083   0.857   2.951  3.3598 -0.6685  1.3655
14940TIP3    H266312   1.093   0.814   2.807 -3.0527  0.7673  0.3175
14941TIP3   OH266313   5.003   6.205  13.879  0.2144  0.4308 -0.2949
14941TIP3    H166314   4.929   6.145  13.882 -0.1908  0.9274 -0.3179
14941TIP3    H266315   5.069   6.164  13.935 -0.0227 -0.0828 -0.3896
14942TIP3   OH266316   4.783   5.233   5.636  0.4985 -0.2797  0.6092
14942TIP3    H166317   4.846   5.217   5.707 -0.1943 -0.3843  1.2006
14942TIP3    H266318   4.764   5.326   5.642  2.8515  0.3964 -1.4491
14943TIP3   OH266319   2.008   6.132   5.100  0.0468 -0.6561 -0.0221
14943TIP3    H166320   2.081   6.093   5.149  1.1322 -0.6166 -1.5817
14943TIP3    H266321   1.989   6.067   5.032 -3.1181 -1.8802  1.9391
14944TIP3   OH266322   5.137   4.780   3.133  0.3971  0.0604  0.2226
14944TIP3    H166323   5.049   4.756   3.107  0.6055  0.5492 -0.9365
14944TIP3    H266324   5.192   4.707   3.103  0.2621 -0.7789  1.9249
14945TIP3   OH266325   5.198   3.617  11.638  0.0072 -0.3116 -0.6337
14945TIP3    H166326   5.117   3.566  11.640  0.1201 -0.5385 -1.4022
14945TIP3    H266327   5.265   3.554  11.610  0.6469 -0.3813  1.0146
14946TIP3   OH266328   3.522   6.105  14.719 -0.4227 -0.0026  0.4175
14946TIP3    H166329   3.615   6.115  14.739 -0.6637  0.6247  1.2325
14946TIP3    H266330   3.486   6.192  14.731 -1.1731 -0.3073  0.3625
14947TIP3   OH266331   4.847   2.565  15.765  0.0566 -0.1419 -0.0833
14947TIP3    H166332   4.927   2.522  15.798 -0.8119 -2.1450 -0.5225
14947TIP3    H266333   4.830   2.634  15.829  1.2583 -0.7152  0.8930
14948TIP3   OH266334   5.359   1.168  13.293 -0.4655 -0.3241  0.6970
14948TIP3    H166335   5.396   1.255  13.283 -1.5766  0.2227  1.2451
14948TIP3    H266336   5.305   1.155  13.215 -0.3064 -0.5190  0.6189
14949TIP3   OH266337   1.223   4.083  16.328  0.9921  0.1565  0.0157
14949TIP3    H166338   1.180   4.144  16.268  0.2969  0.7697  1.1229
14949TIP3    H266339   1.188   3.998  16.304  0.8578  0.3721 -0.5711
14950TIP3   OH266340   3.512   6.094  15.861 -0.3815 -0.4980 -0.7924
14950TIP3    H166341   3.472   6.167  15.814 -0.1443 -0.3136 -0.7073
14950TIP3    H266342   3.484   6.016  15.812 -1.4654 -0.4335 -0.2959
14951TIP3   OH266343   4.550   1.252  11.401  0.1300 -0.8546 -0.7034
14951TIP3    H166344   4.511   1.284  11.320  0.0559  0.4126 -0.1820
14951TIP3    H266345   4.554   1.330  11.458  2.8554 -1.0858 -0.5442
14952TIP3   OH266346   2.774   0.992  16.879 -0.4126 -0.1902 -0.2603
14952TIP3    H166347   2.749   0.941  16.801  0.0660 -2.6510  1.1319
14952TIP3    H266348   2.693   0.999  16.930 -0.1133 -1.0286  0.3441
14953TIP3   OH266349   1.104   6.398   3.829  0.1726 -0.1727  0.3699
14953TIP3    H166350   1.168   6.416   3.898  1.3206  2.7274 -1.3579
14953TIP3    H266351   1.152   6.414   3.748 -2.3463  0.6939 -0.9886
14954TIP3   OH266352   2.910   2.315  12.336  0.2813  0.0127  0.1737
14954TIP3    H166353   2.990   2.276  12.300  0.9101  2.1606 -0.8445
14954TIP3    H266354   2.858   2.339  12.259 -0.9652 -0.6002  0.8150
14955TIP3   OH266355   6.790   4.337   1.599 -0.4125  0.1772  0.1676
14955TIP3    H166356   6.737   4.267   1.637 -1.1479  1.0796  0.8307
14955TIP3    H266357   6.855   4.292   1.546 -0.8271 -1.0148  0.6577
14956TIP3   OH266358   2.283   1.767  12.294  0.3031 -1.0009 -0.3549
14956TIP3    H166359   2.246   1.813  12.219  2.6151 -1.3505 -1.7710
14956TIP3    H266360   2.341   1.831  12.336 -0.7326 -0.9040  0.9825
14957TIP3   OH266361   3.406   1.119  13.167 -0.1716 -0.1693  0.8050
14957TIP3    H166362   3.478   1.067  13.130 -0.3868  0.6010 -0.7436
14957TIP3    H266363   3.327   1.069  13.146 -0.3302  0.4788 -0.1792
14958TIP3   OH266364   6.595   0.017  15.658  0.1118 -0.1501 -0.1026
14958TIP3    H166365   6.524  -0.006  15.717  0.0730 -0.3381 -0.2236
14958TIP3    H266366   6.605  -0.058  15.600  0.3458 -0.0874 -0.1474
14959TIP3   OH266367   6.084   5.217   5.281  0.4051 -0.3770  0.3624
14959TIP3    H166368   6.152   5.282   5.300  0.4558  0.1910 -1.6346
14959TIP3    H266369   6.022   5.224   5.354  0.1023  2.3497 -0.1186
14960TIP3   OH266370   5.957   4.810   2.080 -0.1614 -0.1355  0.0848
14960TIP3    H166371   5.916   4.879   2.027 -0.3271 -0.2681  0.0387
14960TIP3    H266372   5.932   4.729   2.037 -0.4005 -0.2518  0.4339
14961TIP3   OH266373   3.237   3.219   2.104  0.1986 -0.0774 -0.4667
14961TIP3    H166374   3.191   3.292   2.145  0.0343 -1.0735  1.1485
14961TIP3    H266375   3.262   3.252   2.017  1.1010  2.2573  0.6444
14962TIP3   OH266376   6.431   0.044   4.858  0.4683  0.3955 -0.4503
14962TIP3    H166377   6.526   0.055   4.855  0.6440 -0.2050  2.0579
14962TIP3    H266378   6.397   0.113   4.801  2.3152  1.7662  0.0865
14963TIP3   OH266379   4.994   5.284   4.119 -0.4725 -0.4383  0.0223
14963TIP3    H166380   4.989   5.196   4.080 -1.5044  0.1863 -1.2815
14963TIP3    H266381   4.939   5.279   4.197  0.7723 -1.3984  0.8682
14964TIP3   OH266382   1.236   5.441   0.232 -0.1231 -0.3224  0.0271
14964TIP3    H166383   1.303   5.455   0.166  0.6337  1.9504  1.2175
14964TIP3    H266384   1.158   5.417   0.183  0.8522 -0.3156 -1.5612
14965TIP3   OH266385   6.272   3.433   1.547 -0.5040  0.4644  0.5028
14965TIP3    H166386   6.275   3.358   1.608 -3.4132 -0.8605 -0.8707
14965TIP3    H266387   6.202   3.488   1.582 -0.5043  0.9485 -0.2743
14966TIP3   OH266388   5.572   5.105  16.951 -0.4096 -0.1444 -0.0290
14966TIP3    H166389   5.493   5.086  17.002 -0.2256 -3.2855 -0.7805
14966TIP3    H266390   5.559   5.194  16.919 -2.0814  0.6265  2.6393
14967TIP3   OH266391   0.092   2.424   3.320 -1.1215  0.8899 -0.8224
14967TIP3    H166392   0.084   2.453   3.411 -0.6496  0.3898 -0.6210
14967TIP3    H266393   0.024   2.359   3.308 -0.8200  0.5444 -0.6626
14968TIP3   OH266394   4.380   0.707  13.140 -0.0553 -0.1778  0.5689
14968TIP3    H166395   4.388   0.776  13.206  1.4066 -0.1148  0.3555
14968TIP3    H266396   4.315   0.740  13.078 -0.4923  0.3306  1.2915
14969TIP3   OH266397   2.114   6.582  15.044  0.2558  0.4581  0.1420
14969TIP3    H166398   2.031   6.617  15.075 -0.6873 -0.1779 -1.5458
14969TIP3    H266399   2.090   6.533  14.965  2.4355  1.4312 -1.1532
14970TIP3   OH266400   5.510   4.623  12.897 -0.1023 -0.4607  0.2227
14970TIP3    H166401   5.478   4.713  12.909 -0.9004 -0.5928 -0.7873
14970TIP3    H266402   5.573   4.629  12.826 -0.3426 -0.7309 -0.0180
14971TIP3   OH266403   3.062   5.532   1.471  0.6594  0.0481  0.5198
14971TIP3    H166404   3.043   5.615   1.428  0.0406 -0.6337 -0.5322
14971TIP3    H266405   2.976   5.495   1.492  0.9135 -0.6863  0.2876
14972TIP3   OH266406   3.288   1.204  13.659 -0.3409  0.1051 -0.1749
14972TIP3    H166407   3.272   1.138  13.726 -1.4382  0.8308  0.2839
14972TIP3    H266408   3.363   1.170  13.609  0.6556 -0.3002  1.5731
14973TIP3   OH266409   3.547   4.213  15.847  0.2605  0.4924  0.1758
14973TIP3    H166410   3.570   4.152  15.917  1.6350 -0.8039 -1.3742
14973TIP3    H266411   3.612   4.282  15.852  1.2330 -0.3375 -0.6986
14974TIP3   OH266412   5.505   4.414  11.556  0.2832  0.3148  0.1038
14974TIP3    H166413   5.445   4.488  11.549  0.9892  0.9635  0.7353
14974TIP3    H266414   5.501   4.390  11.649 -1.4359 -1.7209 -0.4635
14975TIP3   OH266415   4.437   3.440  16.843 -0.5687  0.2721  0.7585
14975TIP3    H166416   4.411   3.391  16.765 -0.0734 -0.3381  0.9736
14975TIP3    H266417   4.473   3.522  16.809 -0.9136  0.2664  0.3722
14976TIP3   OH266418   4.930   2.089  11.144 -0.2630  0.5710  0.7181
14976TIP3    H166419   4.996   2.033  11.104 -0.7000  2.1313 -2.3868
14976TIP3    H266420   4.847   2.056  11.109 -0.6646  1.9431  0.3567
14977TIP3   OH266421   0.087   1.312   1.388  0.1767 -0.1039 -0.1666
14977TIP3    H166422   0.100   1.259   1.467  0.8568 -0.9333 -0.8244
14977TIP3    H266423   0.003   1.282   1.353 -0.1857  0.3522  0.3071
14978TIP3   OH266424   3.020   0.123   3.341 -0.4958  0.4280  0.1312
14978TIP3    H166425   3.042   0.085   3.256 -2.8798 -1.8787  0.4909
14978TIP3    H266426   3.044   0.056   3.404 -0.5621  1.3496  1.1605
14979TIP3   OH266427   4.221   4.357  11.378  0.1269  0.9790 -0.7023
14979TIP3    H166428   4.269   4.407  11.445 -1.5496  2.1826 -0.3516
14979TIP3    H266429   4.213   4.418  11.305 -2.1535  1.3504 -0.1846
14980TIP3   OH266430   5.048   2.151  12.037  0.2210 -0.1348  0.0764
14980TIP3    H166431   5.097   2.118  11.963 -1.0920  1.0712 -1.3689
14980TIP3    H266432   4.971   2.194  11.999 -0.9746 -0.3113  2.1627
14981TIP3   OH266433   1.868   3.552   1.209  0.4654  0.8003 -0.2833
14981TIP3    H166434   1.958   3.553   1.178  0.7837  1.0318  0.6427
14981TIP3    H266435   1.854   3.639   1.246  0.2183  0.4001  0.5821
14982TIP3   OH266436   1.451   5.877  14.787 -0.2730  0.5467  0.1882
14982TIP3    H166437   1.387   5.828  14.838 -0.7288 -2.1245 -2.7847
14982TIP3    H266438   1.404   5.901  14.707  1.3166  1.8993 -0.3620
14983TIP3   OH266439   5.849   1.267   0.701  0.0830  0.1786  0.6143
14983TIP3    H166440   5.922   1.212   0.673  1.0989  1.4601  0.7079
14983TIP3    H266441   5.883   1.357   0.697 -2.2461  1.0361 -1.8100
14984TIP3   OH266442   6.498   1.545  15.935 -0.2146 -0.2708  0.2402
14984TIP3    H166443   6.411   1.554  15.895 -0.8653  0.1439  1.7431
14984TIP3    H266444   6.511   1.626  15.983  1.0648 -0.2835 -0.0758
14985TIP3   OH266445   3.259   1.322  11.124 -0.2806  0.6236 -0.1308
14985TIP3    H166446   3.312   1.395  11.094  0.1108  0.6028  0.4909
14985TIP3    H266447   3.169   1.348  11.106  0.0277 -0.0719 -2.7676
14986TIP3   OH266448   3.146   3.276  11.657 -0.1682  0.0977 -0.6893
14986TIP3    H166449   3.098   3.248  11.735  2.6582  0.1707  1.1731
14986TIP3    H266450   3.112   3.363  11.638 -0.4434  0.3493  0.8662
14987TIP3   OH266451   5.520   1.396  13.281  0.2803 -0.0024 -0.1517
14987TIP3    H166452   5.531   1.454  13.357 -0.5804 -2.9302  2.2938
14987TIP3    H266453   5.609   1.382  13.249  0.5318  2.3988 -0.6290
14988TIP3   OH266454   5.938   3.267   2.183  0.0664 -0.3971 -0.0365
14988TIP3    H166455   5.900   3.188   2.222 -0.8919 -0.2899 -0.7412
14988TIP3    H266456   5.870   3.301   2.126  0.3904  1.0846  0.4458
14989TIP3   OH266457   1.861   0.157  11.450 -0.7457 -0.0124 -0.3833
14989TIP3    H166458   1.937   0.103  11.473 -0.1024  0.6982 -0.8166
14989TIP3    H266459   1.875   0.180  11.358 -0.6629  1.4494 -0.0215
14990TIP3   OH266460   1.620   0.056  17.235 -0.0653  0.2457  0.2950
14990TIP3    H166461   1.715   0.064  17.247 -0.1445 -0.1848  1.2689
14990TIP3    H266462   1.609   0.035  17.142  0.9062 -1.4052  0.5257
14991TIP3   OH266463   3.402   1.950  14.333 -0.3616 -0.3704  0.0692
14991TIP3    H166464   3.365   2.028  14.290  2.7765  1.0687 -0.1691
14991TIP3    H266465   3.441   1.984  14.414  0.2844 -1.8549  0.3938
14992TIP3   OH266466   2.316   3.618  11.249  0.2048 -0.7171  0.5805
14992TIP3    H166467   2.398   3.600  11.204  0.3015  0.7572  0.1405
14992TIP3    H266468   2.248   3.603  11.183  0.3853  2.1080 -0.3129
14993TIP3   OH266469   0.255   6.264   2.407 -0.0632 -0.5049  0.1602
14993TIP3    H166470   0.228   6.172   2.403  2.0652 -1.0990 -1.1666
14993TIP3    H266471   0.197   6.304   2.472 -1.1380 -2.7337  0.5887
14994TIP3   OH266472   0.496   5.643  12.776  0.6084  0.0885  0.0617
14994TIP3    H166473   0.581   5.667  12.738  0.1710  0.6969 -0.5429
14994TIP3    H266474   0.473   5.560  12.732  0.1482  0.7400 -0.9483
14995TIP3   OH266475   2.955   3.128   6.015 -0.8118  0.4499  0.0602
14995TIP3    H166476   3.035   3.131   6.068 -0.2411 -0.8172 -0.6924
14995TIP3    H266477   2.913   3.212   6.030 -0.3049  0.3849  1.9705
14996TIP3   OH266478   3.801   0.243   3.425 -0.3291  0.8867  0.4590
14996TIP3    H166479   3.839   0.190   3.355 -3.3953  0.9099 -1.3203
14996TIP3    H266480   3.720   0.198   3.449 -1.1766  2.8421  1.4420
14997TIP3   OH266481   0.688   4.882   2.434  0.5826  0.2664  0.2588
14997TIP3    H166482   0.625   4.950   2.457  0.4638  0.5964 -1.0145
14997TIP3    H266483   0.676   4.868   2.340  0.2832 -1.8507  0.5911
14998TIP3   OH266484   1.727   1.601   2.586 -0.1886 -0.0781 -0.0665
14998TIP3    H166485   1.781   1.536   2.631  1.0559  2.1136  1.7364
14998TIP3    H266486   1.742   1.584   2.493  1.4972 -1.2505  0.3863
14999TIP3   OH266487   2.535   5.572  14.212 -0.6331 -0.1984  0.9538
14999TIP3    H166488   2.495   5.491  14.183 -2.3191 -0.0029  2.6845
14999TIP3    H266489   2.466   5.619  14.258  0.1630  2.4682 -0.4415
15000TIP3   OH266490   5.240   4.112  15.673 -0.4835  0.2303  0.4216
15000TIP3    H166491   5.161   4.163  15.657 -0.6458  0.3409  1.5226
15000TIP3    H266492   5.267   4.137  15.762  0.2929 -0.4559  0.3853
15001TIP3   OH266493   5.084   5.277   3.734 -0.3259  0.2949  0.0470
15001TIP3    H166494   5.006   5.229   3.760 -0.9395  1.0355 -0.4157
15001TIP3    H266495   5.079   5.283   3.639  0.1281  0.6175  0.0376
15002TIP3   OH266496   4.564   1.202   3.962 -0.0751 -0.0753  0.3580
15002TIP3    H166497   4.515   1.234   4.038  1.3325  3.7092 -0.2726
15002TIP3    H266498   4.655   1.203   3.990  0.2838 -0.4764 -0.7817
15003TIP3   OH266499   1.347   1.724   5.100 -0.6573 -0.1695  0.1029
15003TIP3    H166500   1.382   1.742   5.013  0.1074 -1.4490  0.1446
15003TIP3    H266501   1.272   1.667   5.085 -0.1374 -0.9191  0.3226
15004TIP3   OH266502   6.802   4.116  16.090 -0.4261 -0.7127  0.3365
15004TIP3    H166503   6.778   4.116  16.183  1.1751  0.4276  0.7627
15004TIP3    H266504   6.819   4.208  16.070 -0.5848 -0.9789 -1.0573
15005TIP3   OH266505   1.423   4.531   4.859 -0.5514  0.3781  0.1728
15005TIP3    H166506   1.388   4.510   4.945  0.1907  0.4507  0.4986
15005TIP3    H266507   1.518   4.539   4.873 -0.2004 -1.3094 -0.9664
15006TIP3   OH266508   3.073   5.436   1.175  0.0315 -0.1488  0.6333
15006TIP3    H166509   2.991   5.482   1.158  0.4457  0.3760  0.0849
15006TIP3    H266510   3.116   5.487   1.244  1.1642  1.1135 -0.9810
15007TIP3   OH266511   3.034   2.793  12.494  0.4339 -0.2112  0.1859
15007TIP3    H166512   2.990   2.725  12.444  1.4140 -0.3276 -0.5301
15007TIP3    H266513   3.032   2.870  12.438 -1.0255  0.4675  1.1545
15008TIP3   OH266514   4.924   2.699  16.276  0.9119  0.1264 -0.3109
15008TIP3    H166515   4.931   2.783  16.231  0.2282  0.6368  0.5214
15008TIP3    H266516   4.853   2.653  16.230  1.7439 -0.2814 -1.2030
15009TIP3   OH266517   3.501   3.015   4.527  0.1100 -0.6799 -0.0966
15009TIP3    H166518   3.489   3.094   4.580 -0.2390 -0.3892 -0.6005
15009TIP3    H266519   3.586   2.981   4.553  0.8399  0.5806 -0.7998
15010TIP3   OH266520   2.491   5.724   0.366 -0.5873 -0.4087 -0.1634
15010TIP3    H166521   2.407   5.705   0.406 -1.2688 -0.9653 -1.8125
15010TIP3    H266522   2.544   5.646   0.383 -0.7693 -0.5140 -0.0874
15011TIP3   OH266523   3.026   4.851   4.785  0.7924 -0.0886  0.2205
15011TIP3    H166524   3.058   4.920   4.844 -1.3342  0.3600  0.8985
15011TIP3    H266525   3.068   4.771   4.817  0.6657  0.3590  1.5294
15012TIP3   OH266526   2.415   6.699  11.095  0.5406 -0.3156 -0.5686
15012TIP3    H166527   2.425   6.718  11.188 -2.0721  0.9051 -0.5033
15012TIP3    H266528   2.348   6.631  11.092  0.2454  0.0156 -1.5791
15013TIP3   OH266529   4.016   2.349   3.957  0.7122  0.3847  0.1684
15013TIP3    H166530   3.941   2.345   3.898  0.7777 -1.3497  0.1855
15013TIP3    H266531   4.010   2.435   3.999 -1.8885 -0.1669  0.9751
15014TIP3   OH266532   3.584   3.267   1.255  0.5907 -0.1371  0.1585
15014TIP3    H166533   3.521   3.200   1.228  0.7762  0.0434 -0.7575
15014TIP3    H266534   3.539   3.350   1.239  0.6159 -0.0332  0.6346
15015TIP3   OH266535   3.048   4.123   1.629 -0.0359  0.1194  0.6593
15015TIP3    H166536   3.076   4.178   1.556  0.6014  0.0155  0.8212
15015TIP3    H266537   3.087   4.037   1.611 -0.6190 -0.1428  0.6597
15016TIP3   OH266538   0.429   1.729   5.117 -0.6208  0.5909  0.5149
15016TIP3    H166539   0.521   1.701   5.116 -0.2814  1.6682 -1.2119
15016TIP3    H266540   0.408   1.738   5.210  0.4357 -1.4670  1.0054
15017TIP3   OH266541   0.679   1.491  14.673  0.2512  0.1969  0.0771
15017TIP3    H166542   0.690   1.586  14.680 -1.0123  0.3151  0.4707
15017TIP3    H266543   0.633   1.466  14.753 -1.2011 -0.4676 -0.9439
15018TIP3   OH266544   2.734   4.259  15.164 -0.2254 -0.7710 -0.0236
15018TIP3    H166545   2.770   4.180  15.125  1.6587  0.1154 -0.1293
15018TIP3    H266546   2.640   4.255  15.143  0.1833 -1.9515 -1.8005
15019TIP3   OH266547   2.954   2.253   5.302 -0.0609 -0.4064  0.1639
15019TIP3    H166548   2.938   2.266   5.209  0.3095  1.0170  0.2991
15019TIP3    H266549   2.919   2.331   5.344 -0.6310 -1.2482  1.2621
15020TIP3   OH266550   1.804   4.736   5.693  0.4242 -0.6502  1.2721
15020TIP3    H166551   1.754   4.680   5.633 -0.5210  1.3913  0.0769
15020TIP3    H266552   1.757   4.730   5.776  0.0755 -1.2858  1.0382
15021TIP3   OH266553   1.955   1.261  15.238 -0.8684  0.1704  0.0575
15021TIP3    H166554   1.931   1.224  15.323  0.6121  0.2785  0.5393
15021TIP3    H266555   1.903   1.212  15.175 -2.2270  0.3122  1.0585
15022TIP3   OH266556   0.670   1.653  12.096  0.3631 -0.0224  0.1431
15022TIP3    H166557   0.711   1.569  12.117 -1.4842 -1.3986 -1.5430
15022TIP3    H266558   0.577   1.640  12.115 -0.0745  1.3129 -1.0220
15023TIP3   OH266559   1.746   3.097  10.852 -0.1988 -0.5813  0.1345
15023TIP3    H166560   1.747   3.004  10.875  1.3958  0.0231  2.6894
15023TIP3    H266561   1.810   3.105  10.781 -0.2156 -1.3934  0.0186
15024TIP3   OH266562   5.428   0.564   5.329 -0.0716 -0.4883 -0.3174
15024TIP3    H166563   5.376   0.524   5.399 -0.2931  0.6649  0.1935
15024TIP3    H266564   5.516   0.570   5.365  0.0302 -0.8055 -0.5124
15025TIP3   OH266565   1.097   0.553   1.932  0.9995  0.3404  0.4676
15025TIP3    H166566   1.035   0.626   1.922 -1.6007 -1.7108  1.1198
15025TIP3    H266567   1.141   0.570   2.015 -1.9767 -0.4743  2.3078
15026TIP3   OH266568   4.285   6.616   0.771  0.3032  0.3215  0.9679
15026TIP3    H166569   4.292   6.672   0.849  2.3495  0.6406  0.6010
15026TIP3    H266570   4.375   6.612   0.738 -0.5828  0.3816 -1.5143
15027TIP3   OH266571   2.298   2.897   1.180  0.5905  0.0723 -0.3411
15027TIP3    H166572   2.212   2.935   1.198 -0.6040 -1.7161 -2.0495
15027TIP3    H266573   2.357   2.972   1.181 -1.1823  1.5214 -0.4183
15028TIP3   OH266574   5.407   2.147  17.044  0.0366  0.1785  0.2365
15028TIP3    H166575   5.360   2.229  17.055  0.2445  0.3391 -0.0767
15028TIP3    H266576   5.450   2.131  17.128  1.3546  1.2307 -0.2243
15029TIP3   OH266577   0.148   1.747   2.988  0.1537 -0.0730 -0.0151
15029TIP3    H166578   0.125   1.830   2.947  0.3679  1.1742  2.3167
15029TIP3    H266579   0.241   1.755   3.007 -0.0634 -0.3911  1.2206
15030TIP3   OH266580   3.619   6.787  11.695 -0.3206  0.5280 -0.1898
15030TIP3    H166581   3.615   6.693  11.678 -1.8616  0.1582  1.9879
15030TIP3    H266582   3.540   6.822  11.653  1.0952  1.1552 -2.4523
15031TIP3   OH266583   2.147   3.554  11.022 -0.6425 -0.5109 -0.5194
15031TIP3    H166584   2.130   3.460  11.021  1.9676 -1.0330 -0.2828
15031TIP3    H266585   2.195   3.570  10.941  0.4059  0.3140  0.2510
15032TIP3   OH266586   6.694   0.838   1.664  0.0092  0.4535  0.0937
15032TIP3    H166587   6.677   0.907   1.729  0.3628 -0.1983  0.8924
15032TIP3    H266588   6.785   0.854   1.636 -0.5213  1.4352 -1.1114
15033TIP3   OH266589   1.443   4.091  14.717  0.0794 -0.2904  0.2752
15033TIP3    H166590   1.499   4.024  14.756  0.8362  0.0297 -0.2471
15033TIP3    H266591   1.367   4.043  14.683  0.2187 -0.7749  0.6502
15034TIP3   OH266592   3.614   4.990   2.575 -0.4655 -0.5003 -0.4818
15034TIP3    H166593   3.676   5.050   2.534 -2.9005  1.7110 -1.0211
15034TIP3    H266594   3.601   5.025   2.663 -0.8308 -1.0511 -0.3148
15035TIP3   OH266595   5.220   5.269   0.918 -0.2925  0.2873  0.6541
15035TIP3    H166596   5.273   5.207   0.868 -1.6536  0.6206 -1.2553
15035TIP3    H266597   5.191   5.334   0.854 -2.7867  0.2560  1.6994
15036TIP3   OH266598   5.508   6.002  14.103 -0.1923  0.6726  0.3718
15036TIP3    H166599   5.505   5.992  14.008 -0.2677  1.3059  0.3047
15036TIP3    H266600   5.495   6.095  14.118 -1.0638  0.4610  1.0403
15037TIP3   OH266601   0.056   0.501  17.077  0.1608 -0.1649 -0.1527
15037TIP3    H166602  -0.005   0.447  17.127 -1.0698 -0.4538 -1.9406
15037TIP3    H266603   0.143   0.475  17.108 -0.5845  0.0801  2.2340
15038TIP3   OH266604   3.370   2.244   0.320  0.9446 -0.7248  1.1206
15038TIP3    H166605   3.323   2.221   0.240  0.1338  0.1671  1.3352
15038TIP3    H266606   3.311   2.302   0.367  1.8022 -0.4913  1.9283
15039TIP3   OH266607   0.052   2.745  14.836 -0.0644 -0.0177 -0.3337
15039TIP3    H166608  -0.011   2.673  14.840 -0.4274  0.1410 -2.4045
15039TIP3    H266609   0.125   2.717  14.892 -0.9719 -1.2090  0.2742
15040TIP3   OH266610   1.948   2.864   1.367  0.2201 -0.2107  0.3188
15040TIP3    H166611   1.997   2.939   1.332 -1.1645 -0.2421 -1.7956
15040TIP3    H266612   1.929   2.810   1.291 -1.9329 -0.8709  1.2686
15041TIP3   OH266613   2.127   1.859   3.676 -0.2878  0.2951 -0.2597
15041TIP3    H166614   2.167   1.784   3.631 -1.0743  1.0203 -2.1863
15041TIP3    H266615   2.033   1.838   3.678 -0.2442  0.1376  1.3446
15042TIP3   OH266616   3.856   4.152  14.912 -0.3833  0.3373 -0.1835
15042TIP3    H166617   3.884   4.180  14.999 -0.1614  3.6691 -1.2438
15042TIP3    H266618   3.771   4.111  14.927 -1.3852  2.8593  1.3927
15043TIP3   OH266619   4.014   5.350   3.497  0.1323  0.2048  0.5744
15043TIP3    H166620   3.945   5.322   3.558 -0.2299 -0.5126 -0.1629
15043TIP3    H266621   4.018   5.445   3.508  1.9984 -0.1562  3.7732
15044TIP3   OH266622   1.427   3.706  11.117  0.1954  0.2116  0.2549
15044TIP3    H166623   1.480   3.687  11.040 -0.3932  0.1974 -0.1495
15044TIP3    H266624   1.475   3.665  11.190  0.6020 -0.0221 -0.1416
15045TIP3   OH266625   4.425   0.620   5.342  0.0503 -0.5813 -0.1079
15045TIP3    H166626   4.378   0.678   5.401  1.3158 -0.6392  0.9737
15045TIP3    H266627   4.359   0.558   5.311 -1.3018  1.3635 -1.2135
15046TIP3   OH266628   1.010   5.129  13.921  0.3519 -0.1265 -0.1141
15046TIP3    H166629   0.957   5.123  13.842  2.0744 -0.6298 -1.2801
15046TIP3    H266630   0.966   5.072  13.984 -1.2037  0.5219 -0.5975
15047TIP3   OH266631   2.488   1.153  11.950  0.6893 -0.0726  0.7682
15047TIP3    H166632   2.572   1.189  11.980  1.0733 -2.1215  2.2474
15047TIP3    H266633   2.428   1.227  11.953  1.7963  0.7885  2.3313
15048TIP3   OH266634   0.085   3.775  15.941  0.5447 -0.4235  0.1010
15048TIP3    H166635   0.159   3.803  15.888  1.6739  0.4023  2.0697
15048TIP3    H266636   0.095   3.680  15.949  1.6490 -0.2626  0.7150
15049TIP3   OH266637   6.445   6.369   0.274 -0.1550  0.7333 -0.4098
15049TIP3    H166638   6.519   6.381   0.332  0.2491 -0.0276 -0.7469
15049TIP3    H266639   6.375   6.334   0.330  0.7152 -1.4766 -0.6340
15050TIP3   OH266640   3.729   4.083   3.271  0.2197 -0.0849  0.0526
15050TIP3    H166641   3.694   4.003   3.232 -1.1827 -0.3257  1.7382
15050TIP3    H266642   3.652   4.136   3.291  0.8408 -0.0231  2.5240
15051TIP3   OH266643   3.471   6.391  16.010 -0.0281  0.1592 -0.1550
15051TIP3    H166644   3.455   6.298  15.992 -0.3304  0.3916 -1.1272
15051TIP3    H266645   3.390   6.435  15.987 -0.0917  0.6030  0.8906
15052TIP3   OH266646   1.972   2.831  16.089 -0.2470  0.4043 -0.1727
15052TIP3    H166647   1.948   2.761  16.028  0.3921  0.3694 -0.3915
15052TIP3    H266648   2.068   2.830  16.090 -0.2499  0.5074  0.7108
15053TIP3   OH266649   6.129   4.775  11.353  0.4425  0.0388 -0.1152
15053TIP3    H166650   6.124   4.711  11.283  0.2069  0.6598 -0.6750
15053TIP3    H266651   6.176   4.850  11.315 -0.8253  0.8962 -0.0275
15054TIP3   OH266652   4.872   2.966  15.091  0.1383  0.8713  0.1656
15054TIP3    H166653   4.805   3.033  15.075 -0.0359  0.4762 -0.7656
15054TIP3    H266654   4.885   2.967  15.186 -2.6507 -0.4661  0.5938
15055TIP3   OH266655   6.343   4.702  13.671 -0.3804 -0.3177 -0.1858
15055TIP3    H166656   6.324   4.611  13.647  0.4612 -0.4310 -0.4129
15055TIP3    H266657   6.438   4.705  13.681 -0.4457  0.4363  0.2446
15056TIP3   OH266658   0.085   4.919  12.536 -0.0857  0.3499 -0.6487
15056TIP3    H166659   0.062   4.828  12.514 -0.3255 -0.0705  1.2013
15056TIP3    H266660   0.017   4.945  12.598  0.6200  1.4146 -0.3210
15057TIP3   OH266661   1.870   4.461   0.401 -0.0046 -0.1838  0.8325
15057TIP3    H166662   1.838   4.382   0.445 -0.0302 -0.8221 -0.3150
15057TIP3    H266663   1.930   4.500   0.464 -1.4729 -0.0601  2.1942
15058TIP3   OH266664   2.063   5.898   0.416 -0.6802  0.5445  0.1226
15058TIP3    H166665   2.042   5.804   0.414 -0.8814  0.5572  1.2098
15058TIP3    H266666   2.031   5.927   0.501  0.7005  1.3073  0.3798
15059TIP3   OH266667   1.551   0.120   3.314  0.0378 -0.3072  0.0167
15059TIP3    H166668   1.589   0.063   3.248 -0.3225  0.7873 -1.1474
15059TIP3    H266669   1.624   0.175   3.343  0.1990 -0.7967  0.5468
15060TIP3   OH266670   3.127   3.699  12.781 -0.0226 -0.3955 -0.1499
15060TIP3    H166671   3.084   3.708  12.696 -0.2298  0.4506  0.0379
15060TIP3    H266672   3.219   3.721  12.765 -0.3881  1.4513  0.1659
15061TIP3   OH266673   3.830   1.738   6.531  0.0565 -0.3716 -0.0248
15061TIP3    H166674   3.800   1.682   6.602 -3.4399  1.4976  0.0998
15061TIP3    H266675   3.850   1.822   6.572 -0.7340  0.3327 -1.0374
15062TIP3   OH266676   1.989   0.188   5.124 -0.3674  0.1707 -0.3244
15062TIP3    H166677   1.964   0.163   5.035 -1.4720  0.0004  0.0210
15062TIP3    H266678   2.077   0.224   5.115 -0.0900 -0.7157 -1.3443
15063TIP3   OH266679   0.129   1.078  14.329 -0.3321 -0.3971  0.2357
15063TIP3    H166680   0.036   1.070  14.310 -0.2139  2.3784 -2.0060
15063TIP3    H266681   0.162   0.988  14.330 -2.7139 -1.3216 -0.7526
15064TIP3   OH266682   2.524   0.309  11.968 -0.2076 -0.3389  0.1272
15064TIP3    H166683   2.496   0.359  12.045  0.4780  1.8604 -1.0107
15064TIP3    H266684   2.600   0.259  11.998 -0.2809  0.0812  1.0204
15065TIP3   OH266685   6.180   4.774   0.862 -0.0569  0.3481  0.2715
15065TIP3    H166686   6.200   4.865   0.882 -0.1809  0.4467 -0.0468
15065TIP3    H266687   6.205   4.763   0.770  1.9151 -0.5084  0.8836
15066TIP3   OH266688   5.010   5.773  16.513  0.2077 -0.9203 -0.0077
15066TIP3    H166689   4.969   5.850  16.473 -0.0322 -1.1837 -0.2760
15066TIP3    H266690   5.042   5.804  16.598 -1.8454 -1.0486  0.8587
15067TIP3   OH266691   5.504   4.894   0.702 -0.0303 -0.6445 -0.6050
15067TIP3    H166692   5.556   4.954   0.755 -1.3513  0.8655 -0.9824
15067TIP3    H266693   5.480   4.945   0.624 -0.6473 -1.8668 -1.2336
15068TIP3   OH266694   4.405   5.834  16.312  0.3194 -0.1605 -0.3714
15068TIP3    H166695   4.378   5.784  16.235  1.1387 -0.1968 -0.6407
15068TIP3    H266696   4.461   5.774  16.362  0.4350  0.1264 -0.1522
15069TIP3   OH266697   3.931   6.122   1.377 -0.1604  0.4766 -0.1738
15069TIP3    H166698   3.873   6.048   1.396 -0.0215  0.3348 -0.3030
15069TIP3    H266699   3.877   6.182   1.326  0.3616 -0.5119 -1.9450
15070TIP3   OH266700   0.364   5.035  13.093 -0.1197  0.0462  0.5318
15070TIP3    H166701   0.355   4.989  13.176  1.2664  0.0966  0.7238
15070TIP3    H266702   0.385   5.125  13.117 -0.8551  0.3369  0.1301
15071TIP3   OH266703   2.633   6.636   4.352 -0.3846 -0.1859 -0.2857
15071TIP3    H166704   2.603   6.694   4.421 -0.6391 -0.2672 -0.3285
15071TIP3    H266705   2.690   6.691   4.298  0.8988 -0.4779  0.7546
15072TIP3   OH266706   5.365   0.058  15.929  0.4343  0.0191 -0.3650
15072TIP3    H166707   5.459   0.061  15.912  0.5337 -1.5833 -0.1514
15072TIP3    H266708   5.351   0.124  15.997  1.0382  1.8900 -1.9874
15073TIP3   OH266709   6.760   0.609   0.417 -0.1581  0.0064  0.3340
15073TIP3    H166710   6.759   0.693   0.464 -0.1420  0.9996 -1.4269
15073TIP3    H266711   6.808   0.550   0.475  0.3947  1.3845  1.2917
15074TIP3   OH266712   6.644   2.799  13.672  0.1570 -0.0759 -0.1947
15074TIP3    H166713   6.681   2.887  13.669  1.3131 -0.5527  0.0564
15074TIP3    H266714   6.690   2.751  13.604  0.0406 -0.6907  0.1547
15075TIP3   OH266715   0.218   0.862   6.566 -0.3563  0.6283  0.0746
15075TIP3    H166716   0.259   0.940   6.531  1.6883 -0.6628 -0.5009
15075TIP3    H266717   0.130   0.862   6.529 -0.3085  2.5257 -0.0718
15076TIP3   OH266718   2.071   0.581   1.647 -0.4291  0.2373 -0.2179
15076TIP3    H166719   2.040   0.670   1.632  0.1476  0.3822 -0.5750
15076TIP3    H266720   2.150   0.574   1.594 -0.3835 -0.4368 -0.0663
15077TIP3   OH266721   3.889   0.077  15.977 -0.6920  0.3181  0.2257
15077TIP3    H166722   3.857   0.026  16.052 -1.3658  1.2236  0.5601
15077TIP3    H266723   3.912   0.011  15.912 -1.8797 -0.4252  0.5355
15078TIP3   OH266724   4.854   2.363   1.619  0.0472 -0.1255 -0.3948
15078TIP3    H166725   4.775   2.311   1.614  0.0979 -0.1061 -1.5262
15078TIP3    H266726   4.924   2.305   1.591  0.6809 -0.5964  1.9976
15079TIP3   OH266727   3.756   2.904  10.826  0.5540  0.5296 -0.4790
15079TIP3    H166728   3.809   2.876  10.752  0.5251  0.3540 -0.4330
15079TIP3    H266729   3.804   2.978  10.864  1.2392 -0.2185  0.1269
15080TIP3   OH266730   3.631   1.883   4.865 -0.5076  0.2333 -0.1939
15080TIP3    H166731   3.557   1.938   4.890  0.0483  0.9447 -0.0993
15080TIP3    H266732   3.611   1.798   4.904 -0.3185  0.9511  1.5111
15081TIP3   OH266733   6.120   1.264  14.734  0.0490 -0.6522  0.0219
15081TIP3    H166734   6.028   1.258  14.762  0.4788 -2.8080  1.0770
15081TIP3    H266735   6.116   1.259  14.638 -1.0095  0.3719  0.0051
15082TIP3   OH266736   2.831   2.172   2.227  0.4553  0.4508 -0.3532
15082TIP3    H166737   2.828   2.225   2.147  0.3639 -0.0646 -0.6937
15082TIP3    H266738   2.908   2.204   2.274 -0.7725  2.3231  0.4559
15083TIP3   OH266739   0.493   4.066  12.656 -0.6411 -0.0017  0.7417
15083TIP3    H166740   0.438   4.069  12.578 -0.3959  1.6257  0.6210
15083TIP3    H266741   0.445   4.008  12.716 -0.3757 -2.0165 -0.9114
15084TIP3   OH266742   4.687   3.867  11.145 -0.1477  0.8189 -0.1978
15084TIP3    H166743   4.637   3.946  11.126 -0.9762 -0.0782 -1.7973
15084TIP3    H266744   4.747   3.857  11.071 -0.2936 -0.2494 -0.1823
15085TIP3   OH266745   3.658   3.467  14.812  0.2468  0.4942 -0.4377
15085TIP3    H166746   3.584   3.475  14.872  0.5654  0.0916  0.0203
15085TIP3    H266747   3.618   3.447  14.728 -0.1065 -1.3904  0.1459
15086TIP3   OH266748   1.823   1.102  12.880 -0.2121  0.0007  0.7411
15086TIP3    H166749   1.841   1.034  12.944 -0.2837 -2.1782 -1.4955
15086TIP3    H266750   1.728   1.117  12.888  0.2086  1.7963  3.0607
15087TIP3   OH266751   4.340   6.209  17.246  0.0981 -0.3210 -0.1719
15087TIP3    H166752   4.343   6.280  17.310  0.8609 -0.1265 -0.4185
15087TIP3    H266753   4.367   6.131  17.294  0.3678 -0.2324 -0.1821
15088TIP3   OH266754   3.295   3.121  11.970 -0.8925 -0.0010 -0.4735
15088TIP3    H166755   3.292   3.187  12.039 -0.0948 -0.7579  0.3076
15088TIP3    H266756   3.334   3.165  11.895  0.1870  0.2684  0.2316
15089TIP3   OH266757   2.935   1.535   0.773  0.2427 -0.7706 -0.1495
15089TIP3    H166758   2.841   1.526   0.791  0.2721 -0.5916  0.0880
15089TIP3    H266759   2.960   1.449   0.738 -0.0911 -0.6959 -0.5781
15090TIP3   OH266760   0.976   6.347  16.265  0.9118  0.0513 -0.3577
15090TIP3    H166761   1.026   6.357  16.184  1.4237 -0.2190 -0.0770
15090TIP3    H266762   0.995   6.258  16.294  0.0660 -0.1456 -0.3806
15091TIP3   OH266763   4.522   5.277  14.911 -0.3697  0.2257  0.1770
15091TIP3    H166764   4.574   5.212  14.864 -0.6619  0.5205 -0.5463
15091TIP3    H266765   4.575   5.357  14.908  0.1308 -0.0423  1.3315
15092TIP3   OH266766   6.782   1.504  12.194  0.4103 -0.9693 -0.1847
15092TIP3    H166767   6.869   1.513  12.232  0.6402  0.3516 -1.0067
15092TIP3    H266768   6.723   1.539  12.260  0.4168 -2.6316  0.7196
15093TIP3   OH266769   6.658   2.936  11.373  0.1312 -0.0662 -0.4548
15093TIP3    H166770   6.665   2.919  11.279  0.0107 -0.8685 -0.3279
15093TIP3    H266771   6.747   2.962  11.399  0.5371 -1.3427 -0.5196
15094TIP3   OH266772   3.465   5.014   4.568 -0.2076  0.0346 -0.2616
15094TIP3    H166773   3.513   5.011   4.651 -0.4417  2.6277 -0.0035
15094TIP3    H266774   3.460   4.922   4.540  2.8098 -0.5282  0.8805
15095TIP3   OH266775   3.474   0.491  11.258  0.4289  0.0870  0.5406
15095TIP3    H166776   3.451   0.557  11.192 -1.0341 -0.9190  0.0120
15095TIP3    H266777   3.397   0.488  11.315  0.1600 -1.7154  0.1062
15096TIP3   OH266778   3.621   0.718  14.888  1.0460  0.0281 -0.1508
15096TIP3    H166779   3.689   0.784  14.875  0.3370  0.3933 -2.0400
15096TIP3    H266780   3.579   0.709  14.803 -0.2095 -1.3882  0.5972
15097TIP3   OH266781   3.984   4.784  14.440 -0.0674  0.2952  0.8310
15097TIP3    H166782   3.958   4.872  14.411  1.7736  0.3327 -0.8037
15097TIP3    H266783   3.902   4.734  14.437 -1.1031  1.8897  1.6039
15098TIP3   OH266784   5.064   2.916  12.869  0.2143 -0.2841  0.2369
15098TIP3    H166785   5.048   2.831  12.909  0.8961  0.0160  1.1639
15098TIP3    H266786   4.978   2.944  12.836  0.1046 -1.5796 -0.5897
15099TIP3   OH266787   0.748   4.914   2.090 -0.2834  0.3166 -0.2989
15099TIP3    H166788   0.838   4.916   2.123 -0.1826  0.8007 -0.6105
15099TIP3    H266789   0.744   4.835   2.036 -0.2269 -0.0513  0.2289
15100TIP3   OH266790   0.438   3.412   2.540  0.3548 -0.1827 -0.0514
15100TIP3    H166791   0.406   3.326   2.513 -0.5647  0.0336  0.3253
15100TIP3    H266792   0.420   3.469   2.465 -2.2222  0.4237  0.9490
15101TIP3   OH266793   0.012   4.288   2.219 -0.5690 -0.2798 -0.4276
15101TIP3    H166794  -0.005   4.333   2.302 -1.5170 -0.2281 -0.6447
15101TIP3    H266795   0.096   4.245   2.232 -0.2026  0.6010  0.1961
15102TIP3   OH266796   3.447   3.118  13.096  0.0745  0.1050 -0.2427
15102TIP3    H166797   3.502   3.175  13.150  0.2543 -0.1825 -0.1203
15102TIP3    H266798   3.419   3.048  13.156  1.6485 -1.1396 -0.9377
15103TIP3   OH266799   6.197   6.400  12.370  0.0054  0.1735  0.0838
15103TIP3    H166800   6.275   6.347  12.382  0.0834 -0.0688 -1.4113
15103TIP3    H266801   6.159   6.407  12.458 -0.1026 -2.4723  0.2820
15104TIP3   OH266802   2.708   0.674   1.024 -0.3518 -0.2242 -0.4858
15104TIP3    H166803   2.792   0.657   1.067 -0.2459 -0.3277 -0.7323
15104TIP3    H266804   2.704   0.610   0.953 -0.0465  0.6309 -1.2975
15105TIP3   OH266805   1.153   0.708   0.637  0.2422  0.1930  0.0008
15105TIP3    H166806   1.235   0.722   0.684  1.3782  0.0565 -1.9155
15105TIP3    H266807   1.085   0.736   0.699  1.7274  0.5037  1.5190
15106TIP3   OH266808   3.784   2.408  12.930 -0.0320  0.0404  0.3270
15106TIP3    H166809   3.802   2.376  12.842 -0.2175 -0.5126  0.4921
15106TIP3    H266810   3.746   2.334  12.976  3.3584 -0.8133  1.9477
15107TIP3   OH266811   2.172   0.684  12.331  0.7028 -0.0379 -0.2240
15107TIP3    H166812   2.119   0.758  12.361  0.4645 -0.2812 -0.0436
15107TIP3    H266813   2.209   0.713  12.247  2.8342  1.3521  1.1244
15108TIP3   OH266814   0.324   2.093   5.973  0.0169 -0.2884  0.2306
15108TIP3    H166815   0.315   2.154   6.046 -1.4069 -0.3042  0.0798
15108TIP3    H266816   0.295   2.009   6.008  0.0643 -0.4616 -0.1430
15109TIP3   OH266817   1.410   6.337   0.622 -0.0223  0.0304  0.1855
15109TIP3    H166818   1.493   6.289   0.631  0.5962  0.3352 -3.2608
15109TIP3    H266819   1.434   6.428   0.639 -0.6553 -0.4038  3.9170
15110TIP3   OH266820   6.732   6.698   3.076  0.3379 -0.0631 -0.9637
15110TIP3    H166821   6.657   6.706   3.136  0.3350 -1.3376 -0.7711
15110TIP3    H266822   6.808   6.723   3.129 -0.0102  1.9118 -1.3565
15111TIP3   OH266823   1.923   6.073   3.941 -0.4963  0.1247 -0.4988
15111TIP3    H166824   2.009   6.082   3.982  0.7302  1.7698 -3.2322
15111TIP3    H266825   1.861   6.064   4.013  1.7729  0.8418  1.5619
15112TIP3   OH266826   6.617   3.855  15.781 -0.3055  0.4188  0.0286
15112TIP3    H166827   6.593   3.777  15.831 -1.8004  0.4842 -0.5614
15112TIP3    H266828   6.708   3.840  15.755 -1.0398 -1.8752 -1.4200
15113TIP3   OH266829   5.990   3.499   2.565 -0.6309 -0.0454 -0.5374
15113TIP3    H166830   5.964   3.419   2.519 -0.8832  1.0792 -2.4014
15113TIP3    H266831   5.934   3.568   2.528 -0.4977  0.9716  1.1218
15114TIP3   OH266832   0.842   6.733   4.904 -0.0536  0.3920 -0.2898
15114TIP3    H166833   0.827   6.799   4.836 -0.8229  0.0390 -0.4752
15114TIP3    H266834   0.914   6.680   4.870  0.1769  0.7796 -0.4088
15115TIP3   OH266835   0.318   4.362  14.427 -0.5172  0.3575 -0.9979
15115TIP3    H166836   0.332   4.267  14.436 -1.5627  0.3860  1.2221
15115TIP3    H266837   0.401   4.394  14.391  1.6256 -0.8117  2.5451
15116TIP3   OH266838   3.065   2.614   0.531  0.5462  0.5077 -0.0181
15116TIP3    H166839   3.052   2.662   0.613  0.4541 -0.1449  0.3571
15116TIP3    H266840   2.976   2.600   0.497  0.2893 -2.5962  1.7542
15117TIP3   OH266841   0.607   5.559  11.455  0.1857 -0.0704  0.0754
15117TIP3    H166842   0.681   5.547  11.396 -0.0385  1.2235 -0.4844
15117TIP3    H266843   0.577   5.648  11.438 -2.2794 -0.9732 -0.6325
15118TIP3   OH266844   0.338   4.887   0.174 -0.3633 -0.7183  0.4613
15118TIP3    H166845   0.294   4.820   0.120 -0.9805  0.3058 -0.3154
15118TIP3    H266846   0.323   4.858   0.264 -0.0783 -1.9775  0.1206
15119TIP3   OH266847   3.855   4.838   0.809  0.0568 -0.1753 -0.1124
15119TIP3    H166848   3.928   4.779   0.830  0.8286  0.7760 -0.0716
15119TIP3    H266849   3.892   4.926   0.819 -1.1940  0.3183  0.2085
15120TIP3   OH266850   5.165   2.540   0.631 -0.2777  0.4403 -0.1750
15120TIP3    H166851   5.216   2.593   0.568  0.1697  0.6203  0.3331
15120TIP3    H266852   5.210   2.553   0.714  0.0368 -1.0147 -0.1100
15121TIP3   OH266853   3.524   6.713  14.660  0.0381  0.0851  0.2192
15121TIP3    H166854   3.503   6.795  14.706 -2.0630 -0.9951  1.2510
15121TIP3    H266855   3.442   6.664  14.660  0.9144 -1.4425 -1.6398
15122TIP3   OH266856   6.207   1.072   3.038 -0.0301  0.2331 -0.2586
15122TIP3    H166857   6.137   1.075   3.103  0.3570 -1.1883  0.2603
15122TIP3    H266858   6.277   1.022   3.081 -0.3321 -1.9983 -2.2689
15123TIP3   OH266859   1.286   6.198   1.958 -0.1207 -0.0505 -0.0543
15123TIP3    H166860   1.367   6.241   1.984 -0.0717 -0.2393  0.1097
15123TIP3    H266861   1.293   6.188   1.863  0.7356 -1.4435  0.1461
15124TIP3   OH266862   0.638   0.634   5.269  0.2708 -0.0630  0.3066
15124TIP3    H166863   0.596   0.549   5.257  1.4373 -0.5116 -0.7260
15124TIP3    H266864   0.632   0.652   5.363 -1.4624 -0.5043  0.2843
15125TIP3   OH266865   2.566   2.795   1.277 -0.4418 -0.0442  0.2141
15125TIP3    H166866   2.642   2.851   1.266 -0.4921 -0.2465 -1.1955
15125TIP3    H266867   2.499   2.833   1.220 -1.9801  1.1349  2.7069
15126TIP3   OH266868   3.379   2.036   1.965 -0.1425 -0.3756 -0.1975
15126TIP3    H166869   3.308   2.094   1.993  0.9119  1.5229 -1.4060
15126TIP3    H266870   3.339   1.981   1.898 -0.6736  0.1634 -0.3302
15127TIP3   OH266871   6.029   0.932  16.237  0.0203  0.1583  0.6852
15127TIP3    H166872   5.978   0.943  16.318  0.6767 -0.8371  1.2443
15127TIP3    H266873   5.987   0.858  16.193  0.4864 -0.1439  0.7540
15128TIP3   OH266874   4.058   3.024   4.639  0.2340 -0.5763 -0.1943
15128TIP3    H166875   4.126   3.091   4.626  1.3776 -1.5498  0.7006
15128TIP3    H266876   3.976   3.070   4.623  1.0730  0.7570 -0.7546
15129TIP3   OH266877   2.897   2.271   3.736  0.3761 -0.0974  0.6558
15129TIP3    H166878   2.926   2.346   3.789  2.7390 -2.5944  3.0757
15129TIP3    H266879   2.973   2.251   3.681 -0.8223  0.2580 -1.1389
15130TIP3   OH266880   4.454   3.815   3.475 -0.0404  0.0112 -0.8047
15130TIP3    H166881   4.375   3.820   3.422 -0.1488 -0.6727 -0.7215
15130TIP3    H266882   4.431   3.857   3.557 -0.6926 -1.2123 -0.3475
15131TIP3   OH266883   1.194   1.441   4.817  0.3693 -0.2426 -0.3802
15131TIP3    H166884   1.279   1.435   4.773  0.3306 -0.8073 -0.3854
15131TIP3    H266885   1.134   1.472   4.749  0.7188  0.8936 -0.1754
15132TIP3   OH266886   5.025   1.959   3.536  0.1709 -0.1279  0.1610
15132TIP3    H166887   5.014   2.052   3.555  0.9031 -0.1050  0.5170
15132TIP3    H266888   4.949   1.935   3.484 -1.2900  0.1097  2.1255
15133TIP3   OH266889   2.110   6.546   1.024 -0.2392  0.1697  0.4605
15133TIP3    H166890   2.158   6.596   1.090  1.4359  1.3888 -1.5912
15133TIP3    H266891   2.095   6.609   0.953  1.6956 -2.1526 -2.0876
15134TIP3   OH266892   4.307   4.982  11.811  0.2522 -0.3132  0.1248
15134TIP3    H166893   4.321   5.075  11.832 -1.7715  0.0688 -0.1256
15134TIP3    H266894   4.396   4.947  11.800  1.0410  2.1669 -2.2452
15135TIP3   OH266895   2.550   0.429  16.441 -0.3393  0.5489  0.6631
15135TIP3    H166896   2.632   0.404  16.399 -0.1023 -0.9668  1.9700
15135TIP3    H266897   2.483   0.383  16.390 -0.1334 -0.5012  1.3233
15136TIP3   OH266898   0.988   2.722  11.978 -0.0206  0.3021 -0.3593
15136TIP3    H166899   0.923   2.661  12.013  0.0821 -1.0616 -2.4436
15136TIP3    H266900   1.068   2.670  11.971 -0.3040  0.1852 -3.5474
15137TIP3   OH266901   1.816   2.673  12.387 -0.3468 -0.0058  0.3404
15137TIP3    H166902   1.849   2.757  12.418 -0.0618  0.6077 -1.5742
15137TIP3    H266903   1.895   2.618  12.380 -0.4716 -0.2880  1.1463
15138TIP3   OH266904   0.126   4.243  12.747  0.1854 -0.9959  0.2174
15138TIP3    H166905   0.055   4.305  12.736 -0.0451 -1.3440 -0.2667
15138TIP3    H266906   0.187   4.262  12.675  0.0418 -1.4254 -0.0206
15139TIP3   OH266907   0.629   6.290  16.586 -0.0556  0.2245  0.6713
15139TIP3    H166908   0.638   6.328  16.673 -2.6146 -0.1815  1.1578
15139TIP3    H266909   0.535   6.295  16.566  0.2187 -1.3351 -1.2908
15140TIP3   OH266910   3.282   1.120  16.387  0.0591 -0.2712 -0.7711
15140TIP3    H166911   3.310   1.176  16.314 -0.3705 -1.6312 -2.0076
15140TIP3    H266912   3.358   1.118  16.446  0.9736 -0.4024 -1.9367
15141TIP3   OH266913   2.451   5.277   4.643 -0.1633 -0.6371  0.8320
15141TIP3    H166914   2.484   5.291   4.732 -0.3954 -2.0749  1.1520
15141TIP3    H266915   2.359   5.302   4.647 -0.0964 -0.4069  0.9250
15142TIP3   OH266916   2.765   0.620   5.242  0.0630  0.2105 -0.2766
15142TIP3    H166917   2.747   0.586   5.329 -0.5074  1.7225  0.2176
15142TIP3    H266918   2.685   0.605   5.193 -0.5800  1.7492  0.2543
15143TIP3   OH266919   3.379   5.208   0.534 -0.4233  0.4420 -0.1279
15143TIP3    H166920   3.307   5.190   0.474 -1.5593  0.0451  1.3099
15143TIP3    H266921   3.430   5.126   0.536 -1.3393 -0.1145  0.7204
15144TIP3   OH266922   4.056   1.282  16.749 -0.1569 -0.6421  0.0425
15144TIP3    H166923   3.990   1.217  16.723 -0.9106  0.2875 -0.3841
15144TIP3    H266924   4.012   1.337  16.814  1.0528 -1.6495  1.7720
15145TIP3   OH266925   0.728   6.124   2.774  0.1390 -0.0430 -0.0562
15145TIP3    H166926   0.823   6.126   2.763  0.1304  1.0238  0.0333
15145TIP3    H266927   0.701   6.216   2.771 -0.9937 -0.3978 -0.9374
15146TIP3   OH266928   0.822   4.720   0.930  0.8118  0.3751  0.0725
15146TIP3    H166929   0.874   4.673   0.996 -0.4384  1.3329  1.7964
15146TIP3    H266930   0.736   4.728   0.970 -0.7952 -1.4363 -2.8647
15147TIP3   OH266931   5.819   1.108   5.308 -0.1709 -0.3889 -0.3057
15147TIP3    H166932   5.879   1.164   5.357  0.1787 -0.4237 -0.6832
15147TIP3    H266933   5.771   1.169   5.251  0.4341 -0.4992 -0.9465
15148TIP3   OH266934   4.382   1.615   3.725  0.4512  0.2580  0.1389
15148TIP3    H166935   4.295   1.624   3.687  0.6648 -1.2713 -0.7309
15148TIP3    H266936   4.408   1.705   3.746 -0.8458  0.8390 -0.6701
15149TIP3   OH266937   2.541   0.845  11.400  0.1551  0.2066  0.1493
15149TIP3    H166938   2.562   0.796  11.321  2.1629 -0.4932  1.0902
15149TIP3    H266939   2.495   0.783  11.456 -0.2925  0.3851 -0.0166
15150TIP3   OH266940   4.609   3.774   2.907  0.3309  0.4547 -0.0035
15150TIP3    H166941   4.529   3.726   2.925  0.1055  0.2950 -1.3359
15150TIP3    H266942   4.579   3.860   2.878  0.6722  0.7131  0.3988
15151TIP3   OH266943   2.505   0.332   2.942  0.3728  0.2365 -0.0013
15151TIP3    H166944   2.549   0.385   2.876  1.8301 -1.7394 -0.6751
15151TIP3    H266945   2.413   0.333   2.917  0.5872  1.3195 -0.7746
15152TIP3   OH266946   5.385   4.606   3.633 -0.0996 -0.0011  0.1575
15152TIP3    H166947   5.422   4.517   3.626  1.0362  0.6027 -2.1652
15152TIP3    H266948   5.425   4.654   3.560 -2.1260  1.9185  0.2641
15153TIP3   OH266949   1.660   1.452  14.815  0.3418  0.0374 -0.4386
15153TIP3    H166950   1.606   1.376  14.836  0.1828  0.4271  0.5689
15153TIP3    H266951   1.691   1.484  14.899 -0.5014  1.7713 -0.7733
15154TIP3   OH266952   3.959   3.987   2.399  0.0673 -0.0875 -0.3017
15154TIP3    H166953   4.011   3.992   2.480  0.1281 -1.1472 -0.2635
15154TIP3    H266954   4.013   4.031   2.333  1.1046 -1.3212 -0.2979
15155TIP3   OH266955   1.854   4.198  10.564 -0.0456  0.0993  0.3192
15155TIP3    H166956   1.855   4.288  10.533  0.4543 -0.0500 -0.1072
15155TIP3    H266957   1.912   4.198  10.640  0.0232  0.1194  0.2667
15156TIP3   OH266958   0.751   5.059   0.543 -0.1892  0.0758 -0.8068
15156TIP3    H166959   0.833   5.009   0.548  0.0879  0.5470 -0.5774
15156TIP3    H266960   0.729   5.059   0.450  0.7002  0.9372 -1.0327
15157TIP3   OH266961   1.477   1.424   3.881  0.4567 -0.5318  0.0874
15157TIP3    H166962   1.526   1.469   3.950 -0.1187  0.7708 -0.3408
15157TIP3    H266963   1.509   1.334   3.884  0.9276 -0.3283  1.5994
15158TIP3   OH266964   2.036   1.812  15.079 -0.0202  0.8011 -0.0553
15158TIP3    H166965   2.116   1.768  15.108  0.4566  1.7872  0.1412
15158TIP3    H266966   1.976   1.800  15.153 -1.2592 -2.9076 -1.5415
15159TIP3   OH266967   3.265   5.817  13.534  0.1411 -0.1445 -0.3997
15159TIP3    H166968   3.193   5.816  13.597  0.6708  2.2221  0.2953
15159TIP3    H266969   3.222   5.805  13.449 -0.9092 -0.3674  0.1514
15160TIP3   OH266970   6.768   3.326  11.092  0.1642  0.3550  0.0548
15160TIP3    H166971   6.758   3.261  11.022 -2.3063  1.0883 -0.3174
15160TIP3    H266972   6.718   3.290  11.165  0.3682  0.9460  0.4846
15161TIP3   OH266973   3.676   2.783  13.326  0.0873 -0.5932 -0.0295
15161TIP3    H166974   3.704   2.813  13.240  0.7179 -0.8761  0.0802
15161TIP3    H266975   3.756   2.773  13.377 -0.3562  0.8061  1.0023
15162TIP3   OH266976   5.909   5.244  12.677 -0.1510  0.2396  0.3026
15162TIP3    H166977   5.966   5.314  12.643 -0.7188  0.2622 -0.6023
15162TIP3    H266978   5.821   5.282  12.676 -0.9706 -1.5399 -3.2450
15163TIP3   OH266979   4.414   2.250   0.422 -0.4628 -0.2840 -0.2751
15163TIP3    H166980   4.360   2.325   0.396 -1.8448 -0.9160  0.7163
15163TIP3    H266981   4.372   2.174   0.382  1.9884 -0.3613 -2.8097
15164TIP3   OH266982   3.154   3.823  13.868  0.1095 -0.1343  0.0086
15164TIP3    H166983   3.179   3.872  13.946 -2.6802  1.0667  0.2143
15164TIP3    H266984   3.152   3.732  13.896 -2.0218  0.3932  1.7141
15165TIP3   OH266985   2.071   4.201   3.457  0.2255  0.3707 -0.2435
15165TIP3    H166986   2.063   4.181   3.550  2.6308  0.8367  0.0820
15165TIP3    H266987   2.068   4.115   3.414  0.2304  0.0737  0.3392
15166TIP3   OH266988   3.804   0.289  13.464 -0.1873  0.2943 -0.1673
15166TIP3    H166989   3.855   0.208  13.463  0.2204  0.5493 -1.1455
15166TIP3    H266990   3.807   0.319  13.554  0.9179  0.0017 -0.1041
15167TIP3   OH266991   0.110   6.636  12.578  0.2271 -0.6985 -0.7527
15167TIP3    H166992   0.197   6.673  12.571  0.5187 -1.0955  0.6661
15167TIP3    H266993   0.119   6.562  12.639 -1.3467  0.0979  0.5039
15168TIP3   OH266994   4.691   5.187  13.324 -0.0245 -0.3355 -0.6334
15168TIP3    H166995   4.745   5.228  13.257 -0.3093 -0.0993 -0.7194
15168TIP3    H266996   4.619   5.249  13.339 -0.1880 -0.5760 -0.4100
15169TIP3   OH266997   4.837   3.301   4.139 -0.4730 -0.4595 -0.2613
15169TIP3    H166998   4.809   3.242   4.209  1.6067  1.0848  1.9591
15169TIP3    H266999   4.929   3.280   4.125 -0.6592 -0.1922 -1.9946
15170TIP3   OH267000   4.366   5.275  16.208 -0.3425  0.0420 -0.5744
15170TIP3    H167001   4.300   5.258  16.275  1.2181 -1.8577  0.5250
15170TIP3    H267002   4.384   5.369  16.216  2.1404 -0.6477  3.9571
15171TIP3   OH267003   1.611   0.433  12.074 -0.3215 -0.9090 -0.5099
15171TIP3    H167004   1.627   0.454  11.982 -1.4435 -1.3552 -0.8222
15171TIP3    H267005   1.515   0.432  12.082 -0.2351 -0.6325  0.7202
15172TIP3   OH267006   1.221   2.642  15.788  0.0839 -0.0399  0.0342
15172TIP3    H167007   1.150   2.683  15.737  0.8368  0.5328 -0.5576
15172TIP3    H267008   1.175   2.592  15.856 -0.9323 -1.1625 -1.4614
15173TIP3   OH267009   6.251   5.233  13.012  0.0617  0.3651  0.3989
15173TIP3    H167010   6.334   5.192  12.987 -0.1487  1.1544 -1.6963
15173TIP3    H267011   6.269   5.327  13.009 -1.2508  0.5796 -1.3926
15174TIP3   OH267012   2.798   1.200   5.492 -0.7289 -0.3355 -0.8566
15174TIP3    H167013   2.849   1.121   5.479 -1.3507 -0.8344 -0.3061
15174TIP3    H267014   2.845   1.268   5.444  1.0780 -0.5177  0.6160
15175TIP3   OH267015   5.306   3.404  11.998  0.2467 -0.1300 -0.0404
15175TIP3    H167016   5.401   3.405  11.991  0.1869 -1.1549 -1.2104
15175TIP3    H267017   5.285   3.321  12.041  0.0186  1.5035  3.1816
15176TIP3   OH267018   6.435   2.665  16.329  0.0632 -0.3842 -0.4425
15176TIP3    H167019   6.452   2.706  16.414 -1.1170  0.8820 -0.8066
15176TIP3    H267020   6.512   2.686  16.276  0.3517 -0.3200  0.0026
15177TIP3   OH267021   6.051   4.685  12.102 -0.6008  0.0324  0.1515
15177TIP3    H167022   5.980   4.727  12.054 -1.5584  0.3216  1.7859
15177TIP3    H267023   6.026   4.592  12.105 -1.0810  0.1848  1.0045
15178TIP3   OH267024   6.246   0.991  12.920 -0.1344  0.3031 -0.2940
15178TIP3    H167025   6.152   0.973  12.919 -0.1806  0.5336 -0.1046
15178TIP3    H267026   6.264   1.028  12.834 -0.6994  2.7070  0.5900
15179TIP3   OH267027   3.916   0.182  14.275 -0.3701 -0.1899  0.0098
15179TIP3    H167028   3.926   0.218  14.186  0.8308  2.2481  1.0807
15179TIP3    H267029   3.826   0.151  14.278 -0.4084 -0.3737 -2.0998
15180TIP3   OH267030   1.593   0.902   3.702 -0.1200 -0.3037 -0.0244
15180TIP3    H167031   1.502   0.911   3.674 -0.3606 -3.0771 -0.2675
15180TIP3    H267032   1.635   0.985   3.677 -1.6635 -0.4782 -3.3498
15181TIP3   OH267033   3.327   3.434   5.866  0.0097 -0.5212 -0.6825
15181TIP3    H167034   3.239   3.456   5.899 -0.0532 -1.5919 -0.1103
15181TIP3    H267035   3.368   3.519   5.851 -0.8106 -0.0047 -0.0996
15182TIP3   OH267036   5.447   4.660   1.275  0.0528  0.5253 -0.1125
15182TIP3    H167037   5.410   4.588   1.224  0.0830  0.2861  0.1939
15182TIP3    H267038   5.400   4.656   1.359  0.5318  0.4291  0.1555
15183TIP3   OH267039   5.896   0.060  13.177  0.1357 -0.3382  0.0012
15183TIP3    H167040   5.961   0.042  13.245  1.3997 -0.7470 -1.2785
15183TIP3    H267041   5.914  -0.005  13.109 -1.6576 -0.4833 -0.3659
15184TIP3   OH267042   2.581   6.573   0.271 -0.3407  0.7621  0.3694
15184TIP3    H167043   2.620   6.491   0.299 -1.5030 -0.1572 -0.6358
15184TIP3    H267044   2.526   6.600   0.345 -0.6331  0.1836  0.3655
15185TIP3   OH267045   0.455   0.880  16.762 -0.0269 -0.0246 -0.2500
15185TIP3    H167046   0.543   0.867  16.798 -0.8058  1.5407  2.3517
15185TIP3    H267047   0.400   0.818  16.811 -0.9806  1.5969  0.7628
15186TIP3   OH267048   4.671   4.667  15.234 -0.0944  0.0366 -0.2896
15186TIP3    H167049   4.725   4.687  15.157 -0.6158 -0.2460 -0.7298
15186TIP3    H267050   4.733   4.632  15.298 -0.0618 -2.3944 -1.5788
15187TIP3   OH267051   3.510   3.096  12.697 -0.1757  0.4326  0.1031
15187TIP3    H167052   3.534   3.064  12.784  0.3896  1.6133  0.3859
15187TIP3    H267053   3.419   3.066  12.685 -0.7359  1.4396  1.6729
15188TIP3   OH267054   2.896   4.960  15.233 -0.3200  0.1745 -0.2558
15188TIP3    H167055   2.872   5.049  15.257  1.6150  0.6887 -0.1334
15188TIP3    H267056   2.836   4.936  15.163 -1.4255  1.2416  0.3179
15189TIP3   OH267057   3.549   1.045  15.535  0.2348  0.1044 -0.3476
15189TIP3    H167058   3.513   1.096  15.462  0.7585  1.7018  0.4874
15189TIP3    H267059   3.643   1.065  15.535  0.3203 -0.2612  0.4665
15190TIP3   OH267060   1.071   6.558   4.985 -0.3487 -0.2562  0.2246
15190TIP3    H167061   0.994   6.593   5.030 -0.1841  0.3947  0.0052
15190TIP3    H267062   1.143   6.616   5.011 -0.2032 -0.0331 -0.6509
15191TIP3   OH267063   4.260   2.450  14.959 -0.5801 -0.3158 -0.3171
15191TIP3    H167064   4.179   2.463  15.009 -0.3914 -0.7649  0.1096
15191TIP3    H267065   4.329   2.453  15.025 -0.1577  1.0792 -0.8161
15192TIP3   OH267066   3.570   2.488   1.286  0.7637  0.0098 -0.2453
15192TIP3    H167067   3.544   2.563   1.340  0.8520 -0.9569  1.1568
15192TIP3    H267068   3.513   2.493   1.210  2.3895  2.8946 -1.3549
15193TIP3   OH267069   0.366   5.161  11.836  0.1506 -0.1799  0.6136
15193TIP3    H167070   0.432   5.158  11.768 -0.4710  0.4083 -0.0276
15193TIP3    H267071   0.368   5.075  11.877 -0.5584 -1.0729 -1.1849
15194TIP3   OH267072   3.272   3.715   5.102  0.0600 -0.1331 -0.3734
15194TIP3    H167073   3.195   3.727   5.047  0.1250 -0.8607 -0.6172
15194TIP3    H267074   3.304   3.627   5.082  0.7173  0.0071  0.0251
15195TIP3   OH267075   5.243   5.009   3.851 -0.4048  0.1337 -0.3046
15195TIP3    H167076   5.172   5.066   3.880 -0.4684  0.1625 -0.5155
15195TIP3    H267077   5.218   4.983   3.763 -0.3514 -0.1837 -0.2248
15196TIP3   OH267078   6.484   4.924   6.469 -0.1656 -0.2361 -0.2090
15196TIP3    H167079   6.471   5.018   6.458 -0.6442 -0.3376 -0.5116
15196TIP3    H267080   6.541   4.899   6.396  1.0812  0.0610  0.6467
15197TIP3   OH267081   4.513   0.868  17.024  0.5746 -0.4727  0.2699
15197TIP3    H167082   4.508   0.963  17.036 -2.0492 -0.4000 -0.9219
15197TIP3    H267083   4.487   0.831  17.108  1.4215 -0.1165  0.6805
15198TIP3   OH267084   6.176   2.659   1.109  0.6271  0.1100  0.3698
15198TIP3    H167085   6.190   2.710   1.029  1.7783 -1.9760 -0.8180
15198TIP3    H267086   6.217   2.712   1.178  1.3341  1.0472 -0.7385
15199TIP3   OH267087   2.305   4.803   5.508 -0.2693 -0.2748 -0.1832
15199TIP3    H167088   2.325   4.783   5.417  0.1516  2.1464 -0.6408
15199TIP3    H267089   2.279   4.895   5.508 -0.9232 -0.4223  2.0469
15200TIP3   OH267090   5.146   3.575  13.750 -0.5386  0.4864  0.3060
15200TIP3    H167091   5.139   3.577  13.845 -2.1644 -0.6033  0.2344
15200TIP3    H267092   5.219   3.516  13.733 -2.2068 -1.8061  0.8539
15201TIP3   OH267093   0.881   0.787  14.723  0.3911 -0.0863 -0.1731
15201TIP3    H167094   0.937   0.864  14.724  1.7581 -1.0554  0.6608
15201TIP3    H267095   0.810   0.809  14.664  0.9638  1.6675 -0.2270
15202TIP3   OH267096   3.412   1.255   5.490 -0.2654  0.4449  0.0857
15202TIP3    H167097   3.417   1.344   5.455 -0.0029  0.9225  1.3336
15202TIP3    H267098   3.320   1.230   5.479 -0.4425  1.0525  0.1820
15203TIP3   OH267099   6.419   5.601   2.136 -0.4099 -0.8101 -0.6166
15203TIP3    H167100   6.379   5.630   2.218 -1.0742 -0.5182 -1.0323
15203TIP3    H267101   6.357   5.628   2.068  1.3809  1.3509 -1.4529
15204TIP3   OH267102   3.359   1.635   2.453  0.5978 -0.1845  0.2535
15204TIP3    H167103   3.425   1.703   2.438  1.1746 -1.0540 -1.2735
15204TIP3    H267104   3.411   1.557   2.473 -0.0537 -0.3054  1.5359
15205TIP3   OH267105   5.715   1.842  16.183 -0.1892  0.2611 -0.4858
15205TIP3    H167106   5.693   1.900  16.110  0.8934  1.9458  0.4703
15205TIP3    H267107   5.809   1.856  16.198 -0.3238 -0.2781  0.9887
15206TIP3   OH267108   3.128   3.451  12.539  0.4326  0.1433  0.1499
15206TIP3    H167109   3.163   3.513  12.603  0.4367  1.7573 -1.3610
15206TIP3    H267110   3.140   3.495  12.455 -0.9900 -1.2722 -0.8150
15207TIP3   OH267111   4.983   1.032  12.904  0.5709  0.2104  0.0321
15207TIP3    H167112   5.047   0.968  12.937  0.6759  0.9167  1.2351
15207TIP3    H267113   4.946   0.991  12.826  0.3227 -1.5099  1.0237
15208TIP3   OH267114   1.285   6.471  17.007  0.3794  0.3886 -1.3188
15208TIP3    H167115   1.309   6.524  17.083 -1.3869 -1.7030  0.8234
15208TIP3    H267116   1.281   6.381  17.042 -1.2310 -0.5063 -3.6907
15209TIP3   OH267117   4.775   3.921   2.335  0.2170 -0.0672 -0.0611
15209TIP3    H167118   4.720   3.848   2.364 -2.3627  1.5959 -0.6803
15209TIP3    H267119   4.717   3.996   2.331  2.4144  1.6514 -1.2621
15210TIP3   OH267120   2.646   1.051  15.554  0.2803 -0.2266  0.3091
15210TIP3    H167121   2.723   1.106  15.571  0.8968 -0.6716 -1.0362
15210TIP3    H267122   2.595   1.100  15.489  0.0958 -0.5567  0.2012
15211TIP3   OH267123   1.091   3.585  15.932 -0.3033  0.5304  0.0876
15211TIP3    H167124   1.139   3.568  15.851 -0.5285 -1.9085  0.4183
15211TIP3    H267125   1.131   3.526  15.996 -0.8936  1.5940  1.4538
15212TIP3   OH267126   5.391   6.543   5.472  0.2999  0.6352 -0.5708
15212TIP3    H167127   5.444   6.487   5.416 -0.7416  0.7926 -1.7467
15212TIP3    H267128   5.394   6.502   5.558 -0.6574 -1.3927 -1.4746
15213TIP3   OH267129   1.085   3.875   4.387 -0.4126  0.8512  0.2060
15213TIP3    H167130   1.030   3.817   4.441  0.9359 -0.4823  0.1783
15213TIP3    H267131   1.032   3.954   4.375 -2.6431 -0.6914 -0.4285
15214TIP3   OH267132   4.244   5.207  13.460  0.5275 -0.3538 -0.1112
15214TIP3    H167133   4.311   5.198  13.528  1.2243  0.6998 -0.6281
15214TIP3    H267134   4.175   5.147  13.485  0.0584  1.1685  2.4208
15215TIP3   OH267135   5.710   5.108   0.370  0.0993 -0.4680  0.1937
15215TIP3    H167136   5.727   5.018   0.399  1.7402 -0.5323 -0.9032
15215TIP3    H267137   5.787   5.157   0.399  0.0622  0.2012 -0.8365
15216TIP3   OH267138   1.243   3.360  10.546  0.8069  0.6830  0.4848
15216TIP3    H167139   1.303   3.434  10.535 -1.1944  2.6999  2.6022
15216TIP3    H267140   1.156   3.398  10.534 -0.1752 -1.7688 -0.4357
15217TIP3   OH267141   3.259   4.294   4.131  0.1729 -0.0189  0.0093
15217TIP3    H167142   3.182   4.349   4.116 -0.7570 -1.0587  0.9034
15217TIP3    H267143   3.333   4.350   4.106 -0.7330  1.7119  1.0869
15218TIP3   OH267144   0.221   6.533  10.783  0.3810 -0.1231  0.3414
15218TIP3    H167145   0.196   6.614  10.827  0.6165 -0.5491  1.2932
15218TIP3    H267146   0.307   6.512  10.820  1.0849  0.0796 -1.1445
15219TIP3   OH267147   4.803   6.653   0.265  0.1955 -0.2252 -0.3036
15219TIP3    H167148   4.738   6.597   0.223  0.5032 -2.3477  1.8915
15219TIP3    H267149   4.752   6.715   0.317 -0.1247  0.1798 -1.1046
15220TIP3   OH267150   4.937   6.733   3.347  0.0788  0.1211 -0.4538
15220TIP3    H167151   4.970   6.745   3.258  1.7191 -0.0701  0.1005
15220TIP3    H267152   4.842   6.742   3.339  0.2199  0.3166 -2.1803
15221TIP3   OH267153   0.739   0.975  14.187  0.0271 -0.5250 -0.0460
15221TIP3    H167154   0.673   0.933  14.243  1.0560 -1.0176  0.8246
15221TIP3    H267155   0.727   0.935  14.101 -2.5421  1.2964 -0.5694
15222TIP3   OH267156   6.375   0.357   0.340  0.5681 -0.2709  0.5907
15222TIP3    H167157   6.323   0.421   0.389  1.2895 -0.0512  1.0828
15222TIP3    H267158   6.353   0.373   0.248 -1.7348 -1.5138  0.9007
15223TIP3   OH267159   0.113   1.232   2.971  0.2537 -0.1153  0.4870
15223TIP3    H167160   0.083   1.322   2.975 -1.4708 -0.6760  0.4451
15223TIP3    H267161   0.164   1.220   3.051 -0.3744  0.5802  0.9915
15224TIP3   OH267162   5.625   1.110  14.312  0.4686  0.0040  0.7554
15224TIP3    H167163   5.720   1.099  14.313  0.3556 -1.2618 -0.6059
15224TIP3    H267164   5.600   1.095  14.221 -0.6118  4.5173  0.1893
15225TIP3   OH267165   6.407   3.272   1.343  0.1262 -0.2145  0.1196
15225TIP3    H167166   6.392   3.274   1.249 -2.1329 -3.4614  0.3099
15225TIP3    H267167   6.325   3.301   1.382  0.2684 -1.0483  1.0786
15226TIP3   OH267168   3.191   1.125   2.014 -0.4807  0.2630  0.6334
15226TIP3    H167169   3.260   1.098   1.953 -0.1720 -0.8538  1.4541
15226TIP3    H267170   3.114   1.139   1.959  0.0111  0.0597 -0.1078
15227TIP3   OH267171   2.404   2.735   3.940 -0.2355  0.2268  0.0758
15227TIP3    H167172   2.471   2.701   3.999 -0.4007  1.9868  1.3188
15227TIP3    H267173   2.346   2.787   3.996 -0.8476  1.2814 -1.4897
15228TIP3   OH267174   2.655   2.566   5.020  0.4414 -0.5301  0.6206
15228TIP3    H167175   2.629   2.533   4.934 -0.0602  1.2096  0.0751
15228TIP3    H267176   2.598   2.642   5.034  0.3920 -0.9192  2.5840
15229TIP3   OH267177   6.622   5.134  16.671 -0.4476  0.5154  0.1675
15229TIP3    H167178   6.701   5.082  16.684 -0.3982  0.9703  1.9663
15229TIP3    H267179   6.639   5.214  16.721 -1.7736  0.8912  0.0205
15230TIP3   OH267180   1.020   1.709  15.627 -0.5328  0.5975 -0.0208
15230TIP3    H167181   1.086   1.741  15.566 -0.9792  0.4437 -0.5897
15230TIP3    H267182   1.012   1.780  15.691  0.2248  0.5877  0.0901
15231TIP3   OH267183   0.256   1.438   4.204  1.3300  0.3422  0.2495
15231TIP3    H167184   0.203   1.400   4.133  1.8793 -3.0800  1.5853
15231TIP3    H267185   0.198   1.502   4.244 -0.0920  0.1046 -1.3422
15232TIP3   OH267186   6.703   5.856  14.984 -0.5808 -0.1391  0.4183
15232TIP3    H167187   6.779   5.799  14.971  0.1613  1.2418 -1.4858
15232TIP3    H267188   6.675   5.838  15.074  1.7164 -1.0074  0.9989
15233TIP3   OH267189   1.254   5.593  16.634  0.9221  0.3549 -0.0985
15233TIP3    H167190   1.194   5.665  16.656 -1.3727 -1.3088 -0.7643
15233TIP3    H267191   1.259   5.595  16.538  2.4070  0.8401 -0.0220
15234TIP3   OH267192   0.620   2.042  14.737 -0.0745  0.2223  0.1718
15234TIP3    H167193   0.614   2.129  14.698  0.5472  0.1209 -0.1462
15234TIP3    H267194   0.563   2.047  14.814 -0.8722  0.5832 -0.4397
15235TIP3   OH267195   5.439   1.030   3.589  0.2378  0.0191 -0.0560
15235TIP3    H167196   5.467   0.973   3.660 -1.6699  0.7473  1.3317
15235TIP3    H267197   5.469   1.118   3.615 -2.5196  0.6734  1.0651
15236TIP3   OH267198   3.802   6.571   0.635  0.1183 -0.5669  0.2096
15236TIP3    H167199   3.782   6.495   0.579 -0.6914 -0.2670  0.0850
15236TIP3    H267200   3.893   6.558   0.661  0.4347 -0.8159 -1.0095
15237TIP3   OH267201   1.360   3.849  10.882 -0.0286 -0.1141 -0.7806
15237TIP3    H167202   1.382   3.901  10.959  0.5653 -0.9422 -0.3776
15237TIP3    H267203   1.422   3.776  10.884  0.6808  0.4053 -2.6084
15238TIP3   OH267204   0.564   6.635   0.032 -0.4964 -0.1567  0.0033
15238TIP3    H167205   0.543   6.631   0.125 -1.7642 -1.0020 -0.3127
15238TIP3    H267206   0.599   6.548   0.011 -0.2160  0.0299 -0.3120
15239TIP3   OH267207   4.594   4.287  15.260  0.8072 -0.4022  0.0593
15239TIP3    H167208   4.584   4.301  15.354  0.4372  0.5469 -0.1187
15239TIP3    H267209   4.687   4.302  15.243  0.8830 -0.6149  0.2742
15240TIP3   OH267210   3.264   2.990  14.320  0.5946  0.0401 -0.5227
15240TIP3    H167211   3.239   2.908  14.278 -1.5111  0.4839 -0.2182
15240TIP3    H267212   3.189   3.048  14.305  0.4680  0.7287  2.4211
15241TIP3   OH267213   0.858   3.255   2.816 -0.5154  0.1552  0.2929
15241TIP3    H167214   0.779   3.293   2.777  0.3596  0.9179 -0.7735
15241TIP3    H267215   0.929   3.284   2.759  0.5243 -0.6455  1.1596
15242TIP3   OH267216   1.610   5.456  11.156 -0.0660 -0.2973 -0.0509
15242TIP3    H167217   1.627   5.365  11.130  1.4048  0.3996 -1.6132
15242TIP3    H267218   1.519   5.472  11.131 -0.2822 -1.2949  0.0831
15243TIP3   OH267219   2.337   4.712   0.653 -0.1455  0.3410 -0.0964
15243TIP3    H167220   2.379   4.769   0.589  1.3768  0.7304  1.2235
15243TIP3    H267221   2.362   4.749   0.738 -1.8861 -0.3411  0.7334
15244TIP3   OH267222   0.863   4.593  16.957 -0.7023 -0.3695  0.1931
15244TIP3    H167223   0.875   4.688  16.952  0.0674 -0.4466  0.5343
15244TIP3    H267224   0.846   4.576  17.050  1.1889 -0.7932  0.4777
15245TIP3   OH267225   5.054   0.898   0.878  0.2431 -0.2349  0.1573
15245TIP3    H167226   4.983   0.955   0.852  0.0348 -0.3430  0.4842
15245TIP3    H267227   5.074   0.846   0.800 -1.2887 -1.5116  0.5949
15246TIP3   OH267228   4.279   4.662   1.194  0.1053 -0.1717  0.6252
15246TIP3    H167229   4.350   4.725   1.205  0.2541 -0.2502  0.1252
15246TIP3    H267230   4.322   4.580   1.170 -0.2799  0.4102 -2.2949
15247TIP3   OH267231   3.332   1.831  16.232  0.3823 -0.1190 -0.3486
15247TIP3    H167232   3.358   1.815  16.323 -1.2668  1.4062  0.4058
15247TIP3    H267233   3.311   1.744  16.197 -2.5417 -0.3497  1.8372
15248TIP3   OH267234   6.218   5.290   4.503 -0.5100  0.3604 -0.0340
15248TIP3    H167235   6.296   5.327   4.545  0.1731  0.4832 -1.3790
15248TIP3    H267236   6.218   5.198   4.527 -1.5789  0.9495  2.3859
15249TIP3   OH267237   1.658   5.962  17.199  0.6245 -0.0529 -0.0046
15249TIP3    H167238   1.619   5.877  17.219  1.2733 -0.0540  1.3639
15249TIP3    H267239   1.646   5.973  17.105 -2.5048 -0.1232  0.3497
15250TIP3   OH267240   2.599   6.778  13.447  0.0849 -0.2409 -0.0164
15250TIP3    H167241   2.608   6.811  13.358 -0.9901  1.5383  0.5080
15250TIP3    H267242   2.688   6.780  13.482  0.6423 -1.7730 -1.3201
15251TIP3   OH267243   6.501   0.702  14.433  0.2912 -0.6557  0.0558
15251TIP3    H167244   6.545   0.627  14.394  1.3424 -0.1305  0.2100
15251TIP3    H267245   6.570   0.767  14.445 -1.0471  1.3845 -2.5966
15252TIP3   OH267246   2.321   0.955   5.299 -0.4611  0.0485  0.4960
15252TIP3    H167247   2.415   0.935   5.292 -0.4961  0.2761 -0.7349
15252TIP3    H267248   2.319   1.047   5.326 -0.3147  0.2937 -0.2874
15253TIP3   OH267249   3.104   4.561  12.633  0.6111 -0.9520  0.1835
15253TIP3    H167250   3.090   4.591  12.543 -0.9011 -1.4656  0.2466
15253TIP3    H267251   3.063   4.475  12.637  1.5908 -1.3888  1.0811
15254TIP3   OH267252   4.868   2.592   6.127  0.2274 -0.0286  0.2754
15254TIP3    H167253   4.774   2.610   6.122  0.4925  1.3292 -0.1647
15254TIP3    H267254   4.895   2.584   6.036  0.5972 -0.1005  0.3945
15255TIP3   OH267255   2.257   3.214  16.803 -0.4475  0.6300 -0.1813
15255TIP3    H167256   2.250   3.293  16.856 -3.0889 -0.5131  1.3158
15255TIP3    H267257   2.249   3.243  16.713  1.9327  2.3870  0.1320
15256TIP3   OH267258   6.597   1.517  15.592 -0.3153 -0.2378  0.0119
15256TIP3    H167259   6.608   1.565  15.675  0.1151 -0.5033  0.1086
15256TIP3    H267260   6.506   1.485  15.595 -1.1642  1.9744 -0.7992
15257TIP3   OH267261   2.495   0.063   4.835 -0.1032  0.7782 -0.2947
15257TIP3    H167262   2.417   0.071   4.890  0.1257 -2.3772  0.5968
15257TIP3    H267263   2.564   0.037   4.896  0.4465 -1.4922 -1.8301
15258TIP3   OH267264   3.459   1.084  11.892 -0.2225 -0.1959 -0.2050
15258TIP3    H167265   3.439   1.134  11.813 -1.1192 -2.0375 -1.1867
15258TIP3    H267266   3.514   1.012  11.861 -0.6662 -0.9796  0.8040
15259TIP3   OH267267   5.913   0.999   4.962 -0.0397 -0.3774  0.1392
15259TIP3    H167268   5.825   0.990   4.924  0.8642 -0.8529 -1.8910
15259TIP3    H267269   5.919   0.928   5.025 -0.9561 -0.6145 -0.0322
15260TIP3   OH267270   4.822   4.619  14.578 -0.6079  0.2324  0.2174
15260TIP3    H167271   4.764   4.573  14.517  0.7986 -1.4309  0.0831
15260TIP3    H267272   4.764   4.668  14.636 -2.0422  0.2817 -1.2359
15261TIP3   OH267273   3.951   3.573   0.035 -0.0019 -0.3296  0.4590
15261TIP3    H167274   3.958   3.615   0.120  1.3161 -1.2563  0.8151
15261TIP3    H267275   4.010   3.498   0.040 -1.3559 -1.4807 -0.6201
15262TIP3   OH267276   2.729   0.723  15.491 -0.2218  0.1918  0.2741
15262TIP3    H167277   2.722   0.818  15.502 -0.7653  0.1570  0.2345
15262TIP3    H267278   2.761   0.692  15.575  0.8344  0.5071 -0.0073
15263TIP3   OH267279   4.366   0.300   4.565  0.1327 -0.2255  0.2289
15263TIP3    H167280   4.285   0.308   4.615  0.3714 -0.0954  0.5995
15263TIP3    H267281   4.368   0.377   4.509  0.3300  0.1165  0.7043
15264TIP3   OH267282   3.921   4.445   4.118 -0.3760 -0.6737 -0.3838
15264TIP3    H167283   3.967   4.503   4.057  0.0427 -0.3775  0.2052
15264TIP3    H267284   3.828   4.465   4.104 -0.3206 -1.1027 -1.4079
15265TIP3   OH267285   1.558   4.945   1.745  0.0775  0.1860 -0.6632
15265TIP3    H167286   1.502   4.903   1.680  0.9656 -1.1437 -0.6000
15265TIP3    H267287   1.565   5.035   1.716  0.0762 -0.2848 -2.1611
15266TIP3   OH267288   6.010   0.595   4.067  0.5075 -0.1339 -0.7573
15266TIP3    H167289   6.067   0.531   4.025  1.2896  0.7429 -1.0319
15266TIP3    H267290   5.957   0.631   3.996 -0.9474 -1.4870 -0.3980
15267TIP3   OH267291   4.318   0.276  14.411 -1.2195  0.2632  0.3503
15267TIP3    H167292   4.283   0.361  14.437 -2.3839 -0.0965  0.0350
15267TIP3    H267293   4.240   0.220  14.406 -0.4293 -0.8750  0.8051
15268TIP3   OH267294   2.473   2.697  12.041  0.8232  0.1762 -0.1618
15268TIP3    H167295   2.431   2.768  11.994 -0.1832 -0.3100 -0.0064
15268TIP3    H267296   2.413   2.623  12.033  1.1306 -0.2117  0.9932
15269TIP3   OH267297   1.692   3.909   2.701 -0.0514 -0.5057  0.8048
15269TIP3    H167298   1.608   3.865   2.710 -0.4282  0.4818  2.3127
15269TIP3    H267299   1.701   3.960   2.781  0.5498  1.8652 -0.7113
15270TIP3   OH267300   0.784   5.846   6.161  0.8658  0.2021  0.0799
15270TIP3    H167301   0.763   5.754   6.178 -0.2819  0.7803  1.9141
15270TIP3    H267302   0.814   5.880   6.245 -1.2507  2.1757  0.0749
15271TIP3   OH267303   3.622   0.090   5.413  0.0448  0.4123  0.6681
15271TIP3    H167304   3.536   0.058   5.386 -0.1479  0.4013  1.2688
15271TIP3    H267305   3.648   0.031   5.484  2.3004 -2.0104 -2.0501
15272TIP3   OH267306   0.028   4.121   2.816  0.0635  0.0202  0.2848
15272TIP3    H167307   0.026   4.174   2.895 -2.6056  0.4759 -0.0411
15272TIP3    H267308   0.042   4.031   2.848 -0.9002  0.2132  1.2824
15273TIP3   OH267309   1.709   2.659   5.229  0.2089  0.2630  0.0165
15273TIP3    H167310   1.794   2.702   5.231  0.2797  0.2524 -1.8884
15273TIP3    H267311   1.701   2.617   5.315  1.1968  2.0059  0.9903
15274TIP3   OH267312   0.377   0.057   0.152 -0.2836 -0.3608 -0.4643
15274TIP3    H167313   0.334  -0.028   0.157 -1.2612  0.0851 -0.9746
15274TIP3    H267314   0.390   0.072   0.059  1.6798 -0.8145 -0.2731
15275TIP3   OH267315   1.072   2.663  12.924 -0.3728 -0.0910 -0.2684
15275TIP3    H167316   1.147   2.661  12.984  0.4001 -1.4728 -1.2496
15275TIP3    H267317   0.998   2.687  12.979  0.7631  1.0978  0.7556
15276TIP3   OH267318   3.677   2.502   2.856 -0.4657  0.3155  0.1632
15276TIP3    H167319   3.650   2.555   2.781  0.5176  1.5066  0.6412
15276TIP3    H267320   3.596   2.485   2.904 -0.9067  0.6944 -0.4422
15277TIP3   OH267321   5.834   2.213   3.260 -0.8459  0.3211  0.0360
15277TIP3    H167322   5.772   2.171   3.200 -3.3372  2.4446  1.0114
15277TIP3    H267323   5.858   2.144   3.321 -4.3586  0.0654  1.2411
15278TIP3   OH267324   5.233   1.580  12.808 -0.2217  0.2514 -0.6417
15278TIP3    H167325   5.232   1.492  12.845  1.5013  0.5118  0.0563
15278TIP3    H267326   5.174   1.631  12.864 -0.4184 -0.2190 -0.4237
15279TIP3   OH267327   3.043   3.978   0.920  0.0887 -0.1445  0.1548
15279TIP3    H167328   3.013   4.063   0.886 -0.7217 -0.4361  0.1256
15279TIP3    H267329   2.983   3.914   0.881  0.3226 -0.6670  0.6511
15280TIP3   OH267330   6.613   6.361   3.124  0.1676  0.0053 -0.1804
15280TIP3    H167331   6.607   6.271   3.091  0.4286 -0.7175  1.7035
15280TIP3    H267332   6.524   6.396   3.116 -0.0201 -0.5511 -0.5332
15281TIP3   OH267333   3.957   1.837   6.094  0.3946  0.0610  0.1560
15281TIP3    H167334   3.902   1.810   6.167  0.6765 -2.1485 -0.4288
15281TIP3    H267335   4.017   1.902   6.132 -0.1341 -0.3115  1.6462
15282TIP3   OH267336   3.773   2.974  12.484 -0.0477  0.0499 -0.2572
15282TIP3    H167337   3.841   2.982  12.550  0.6085  0.1242 -0.9337
15282TIP3    H267338   3.752   3.065  12.460 -2.1801  0.1372  1.7461
15283TIP3   OH267339   2.423   0.798  15.504  0.4954  0.1703  0.4926
15283TIP3    H167340   2.468   0.717  15.527 -1.4460 -0.6730  1.4701
15283TIP3    H267341   2.392   0.784  15.415  0.6777  0.0813  0.4425
15284TIP3   OH267342   5.491   2.337   3.178  0.1469 -0.1152  0.4869
15284TIP3    H167343   5.471   2.256   3.225  3.2860 -0.0455  2.1233
15284TIP3    H267344   5.417   2.350   3.119 -0.9927 -3.5160  1.0493
15285TIP3   OH267345   1.850   6.664  16.558 -0.4853 -0.1110  0.2447
15285TIP3    H167346   1.921   6.675  16.494 -0.9871  0.6520 -0.1835
15285TIP3    H267347   1.783   6.615  16.512 -0.9686  0.6901  0.0904
15286TIP3   OH267348   0.539   5.652   2.682 -0.6121  0.5328 -0.1438
15286TIP3    H167349   0.493   5.703   2.615  0.6291  0.8663 -0.7450
15286TIP3    H267350   0.631   5.675   2.672 -0.0769 -1.4965 -0.1424
15287TIP3   OH267351   2.251   1.573   1.277 -0.0476 -0.1696  0.8019
15287TIP3    H167352   2.198   1.502   1.242  0.5036 -1.5049  2.6152
15287TIP3    H267353   2.207   1.598   1.358  0.4974  0.6670  0.8484
15288TIP3   OH267354   0.535   4.875  10.698  0.2220  0.0367  0.0218
15288TIP3    H167355   0.565   4.865  10.789 -0.9167  0.6546  0.4835
15288TIP3    H267356   0.583   4.951  10.665 -1.0951  1.2925  0.8979
15289TIP3   OH267357   6.455   1.851  14.932  0.1753  0.0235  0.3290
15289TIP3    H167358   6.472   1.879  15.022  0.8113 -0.7386  0.4517
15289TIP3    H267359   6.417   1.763  14.941  1.1318 -0.4473 -0.1884
15290TIP3   OH267360   4.965   4.099  13.550 -0.1708 -0.2502  0.0384
15290TIP3    H167361   5.014   4.151  13.613 -0.7464  0.3993 -0.0440
15290TIP3    H267362   4.877   4.091  13.588 -1.5088  2.8947 -2.1244
15291TIP3   OH267363   5.757   6.501   1.918  0.1750  0.4585  0.1965
15291TIP3    H167364   5.705   6.493   1.838 -0.5116 -2.5810  0.8516
15291TIP3    H267365   5.828   6.561   1.896 -0.8808  0.8557 -2.2083
15292TIP3   OH267366   1.469   1.158  15.493  0.0230  0.7276  0.3962
15292TIP3    H167367   1.523   1.216  15.547  0.5575  0.5736  0.0267
15292TIP3    H267368   1.424   1.102  15.556  1.6092 -0.3022  0.6372
15293TIP3   OH267369   2.691   6.074  15.419 -0.1104  0.2890 -0.2854
15293TIP3    H167370   2.692   6.063  15.514 -0.8186  2.2276 -0.0342
15293TIP3    H267371   2.683   5.985  15.385  0.8396 -0.4902  1.4463
15294TIP3   OH267372   4.721   1.515   5.423  0.1565 -0.1683  0.2512
15294TIP3    H167373   4.803   1.563   5.411 -0.0187  0.2357  0.6489
15294TIP3    H267374   4.747   1.433   5.465  0.4884 -0.5380 -0.6678
15295TIP3   OH267375   4.036   5.365  14.434 -0.2102 -0.3936  0.6306
15295TIP3    H167376   4.022   5.415  14.514 -1.2692 -2.5555  1.8123
15295TIP3    H267377   3.949   5.354  14.397  0.1142 -0.7102 -0.0611
15296TIP3   OH267378   3.470   6.049  16.999 -0.6562  1.1519 -0.1219
15296TIP3    H167379   3.549   6.100  16.983 -0.7259  0.9397 -1.1859
15296TIP3    H267380   3.408   6.111  17.037  0.3317  1.1033  1.6306
15297TIP3   OH267381   5.872   3.112  14.026  0.0838  0.3506  0.3437
15297TIP3    H167382   5.949   3.059  14.044  0.0339 -0.0208 -0.5209
15297TIP3    H267383   5.866   3.114  13.931 -0.4716  1.1057  0.3884
15298TIP3   OH267384   6.628   5.126  11.672  0.3327  0.3301 -0.0521
15298TIP3    H167385   6.720   5.115  11.694  0.3441  0.0418 -0.2384
15298TIP3    H267386   6.629   5.176  11.590  0.4167 -2.1758 -1.6369
15299TIP3   OH267387   1.209   0.412  14.651 -0.8961 -0.3700 -0.0558
15299TIP3    H167388   1.202   0.326  14.691 -1.4355 -0.4316 -0.2646
15299TIP3    H267389   1.119   0.446  14.652 -0.8613 -0.2388 -0.8948
15300TIP3   OH267390   0.429   2.798   3.634  0.0565  0.0882  0.5070
15300TIP3    H167391   0.362   2.739   3.600 -0.3555  1.0453 -0.3918
15300TIP3    H267392   0.393   2.886   3.619  0.7112  0.5702  1.7021
15301TIP3   OH267393   5.738   3.102   1.020  0.2472 -0.4984  0.2390
15301TIP3    H167394   5.724   3.028   1.080 -2.1808 -0.4220 -0.1591
15301TIP3    H267395   5.757   3.060   0.936 -0.6763 -0.6893  0.1154
15302TIP3   OH267396   4.456   3.416   0.735  0.1694  0.3749 -0.5909
15302TIP3    H167397   4.363   3.405   0.756  0.3711  2.9197  1.8440
15302TIP3    H267398   4.457   3.471   0.657 -0.3501 -0.5198 -1.2458
15303TIP3   OH267399   5.611   4.605  11.196  0.5557 -0.1535 -0.0671
15303TIP3    H167400   5.544   4.634  11.134  0.7197 -1.0170 -0.6595
15303TIP3    H267401   5.580   4.520  11.227  0.6748  0.0884  0.7305
15304TIP3   OH267402   5.723   1.183  13.597 -0.1213 -0.3896  0.4484
15304TIP3    H167403   5.651   1.144  13.548  0.5825 -2.0869  0.7406
15304TIP3    H267404   5.787   1.207  13.529 -0.7346  0.6739  0.2340
15305TIP3   OH267405   5.837   1.468   5.078 -0.6840 -0.0019  0.7173
15305TIP3    H167406   5.742   1.464   5.064 -0.2860 -1.2563 -2.1335
15305TIP3    H267407   5.868   1.532   5.014  0.6048 -1.0900  0.2343
15306TIP3   OH267408   6.492   3.171   2.193 -0.1178 -0.5070 -0.8514
15306TIP3    H167409   6.409   3.219   2.189 -0.1013 -0.2521  1.5001
15306TIP3    H267410   6.477   3.102   2.257  1.5064 -0.4056 -0.3377
15307TIP3   OH267411   5.898   4.933   2.586  0.1022 -0.6128 -0.2532
15307TIP3    H167412   5.814   4.928   2.540 -0.1543 -0.1477  0.1708
15307TIP3    H267413   5.890   5.008   2.644  0.6126 -0.9013  0.1985
15308TIP3   OH267414   0.793   0.797   2.994 -0.4439 -0.1275 -0.3109
15308TIP3    H167415   0.889   0.792   2.988 -0.2784 -0.9045  2.3448
15308TIP3    H267416   0.766   0.707   3.008 -1.4264  0.2852  0.4798
15309TIP3   OH267417   1.010   1.529  11.676 -0.3294  0.0508  0.0116
15309TIP3    H167418   0.997   1.566  11.763 -0.8692  0.3072 -0.1758
15309TIP3    H267419   0.923   1.529  11.636 -0.3198 -1.2907 -0.0452
15310TIP3   OH267420   1.596   2.507  13.637 -0.0381 -0.0302 -0.2596
15310TIP3    H167421   1.581   2.450  13.562 -1.2661  1.4229 -1.1437
15310TIP3    H267422   1.550   2.464  13.710 -0.5956 -0.3966 -0.8255
15311TIP3   OH267423   5.889   3.321   5.061 -0.4704  0.0065 -0.2171
15311TIP3    H167424   5.827   3.248   5.058  1.5199 -1.7162 -1.2273
15311TIP3    H267425   5.874   3.368   4.978 -0.8011 -0.0639 -0.1986
15312TIP3   OH267426   5.127   0.302   4.515 -0.0636 -0.2108  0.1872
15312TIP3    H167427   5.062   0.298   4.585 -0.1708 -0.1664  0.0895
15312TIP3    H267428   5.150   0.210   4.500 -0.9238 -0.3129 -0.5438
15313TIP3   OH267429   0.436   2.304  15.749  0.2934  0.4936  0.3294
15313TIP3    H167430   0.464   2.213  15.739  0.2320  0.1560  2.8497
15313TIP3    H267431   0.518   2.355  15.745  0.5534  0.1303  0.9562
15314TIP3   OH267432   3.178   5.907   0.786  0.0824  0.2077  0.5033
15314TIP3    H167433   3.239   5.836   0.766 -0.1435 -0.4091  1.9939
15314TIP3    H267434   3.118   5.908   0.711 -0.1154 -1.3787  0.6195
15315TIP3   OH267435   6.618   5.976   2.386  0.9754 -0.0979 -1.1974
15315TIP3    H167436   6.652   5.925   2.460  0.1145 -1.4795 -1.7206
15315TIP3    H267437   6.695   6.017   2.347  1.4478  0.5167  0.3869
15316TIP3   OH267438   4.187   2.749   5.725  0.3722  0.2761 -0.0809
15316TIP3    H167439   4.171   2.660   5.693 -0.1905  0.1692  0.4906
15316TIP3    H267440   4.282   2.757   5.730  0.4092 -0.5380  0.5457
15317TIP3   OH267441   6.637   2.645  13.910 -0.6085 -0.3614  0.1920
15317TIP3    H167442   6.636   2.722  13.853 -0.4449 -1.3866 -1.1886
15317TIP3    H267443   6.723   2.606  13.895 -1.0847 -1.3854  0.1425
15318TIP3   OH267444   5.069   1.493  14.869 -0.3296 -0.1675  0.4850
15318TIP3    H167445   5.070   1.557  14.940  2.3616 -1.3447  1.5913
15318TIP3    H267446   5.030   1.539  14.795 -1.0454  1.8258  2.0688
15319TIP3   OH267447   3.630   5.043   4.261  0.3771 -1.0142  0.0905
15319TIP3    H167448   3.623   5.133   4.293 -0.8672 -0.9067 -0.4550
15319TIP3    H267449   3.632   4.990   4.341 -0.3571 -0.5885  0.4052
15320TIP3   OH267450   4.818   2.553  16.600 -0.6325 -0.3049 -0.1434
15320TIP3    H167451   4.882   2.497  16.556  1.3007  0.7470  1.2977
15320TIP3    H267452   4.748   2.564  16.536  1.5348  0.1590 -2.5021
15321TIP3   OH267453   5.648   2.291  14.506 -0.2678 -0.2840 -0.9245
15321TIP3    H167454   5.613   2.232  14.572  0.7150 -2.9812 -2.7021
15321TIP3    H267455   5.572   2.340  14.474 -0.8055  0.7729  1.8358
15322TIP3   OH267456   4.478   3.203  16.122 -0.1716 -0.8284  0.0222
15322TIP3    H167457   4.496   3.123  16.172  1.3487 -0.1426  0.6065
15322TIP3    H267458   4.538   3.268  16.159 -2.5397  1.0441  0.6655
15323TIP3   OH267459   3.586   0.023  12.809 -0.1011  0.3867  0.0718
15323TIP3    H167460   3.572   0.083  12.882  3.1610  0.5358  0.6538
15323TIP3    H267461   3.560   0.072  12.732  1.4332  2.1794  0.6547
15324TIP3   OH267462   0.268   5.152   0.203 -0.6506  0.4960 -0.3946
15324TIP3    H167463   0.313   5.069   0.216  0.9526  1.0010 -2.4372
15324TIP3    H267464   0.277   5.197   0.287 -1.2391 -1.2300  0.6238
15325TIP3   OH267465   5.855   2.735  14.724  0.1929 -0.3320 -0.7202
15325TIP3    H167466   5.941   2.770  14.749  0.9116 -1.1775 -1.9333
15325TIP3    H267467   5.798   2.812  14.720  1.0172  0.2983 -0.3873
15326TIP3   OH267468   5.896   3.653  13.404  0.2740  0.0466 -0.3211
15326TIP3    H167469   5.896   3.748  13.418 -1.8166 -0.2203  1.8499
15326TIP3    H267470   5.803   3.629  13.404  0.7758 -1.9838 -0.9833
15327TIP3   OH267471   2.393   6.318   3.650 -0.4617  0.1875 -0.0946
15327TIP3    H167472   2.358   6.229   3.655 -1.7171  0.5899 -1.4718
15327TIP3    H267473   2.449   6.317   3.572 -0.9256  0.7668 -0.4326
15328TIP3   OH267474   6.596   5.391   1.838  0.4653  0.3583 -0.4614
15328TIP3    H167475   6.666   5.363   1.780  0.4128 -0.9510  0.0952
15328TIP3    H267476   6.531   5.431   1.780  0.5644 -0.6270 -1.2518
15329TIP3   OH267477   5.409   1.943   5.078  0.4116 -0.1370 -0.9508
15329TIP3    H167478   5.470   1.979   5.014 -0.0042  1.0557 -0.6934
15329TIP3    H267479   5.448   1.963   5.163 -0.4228  0.8009 -0.7832
15330TIP3   OH267480   6.621   0.918  14.549 -0.3949 -0.3389  0.1129
15330TIP3    H167481   6.582   0.925  14.636 -1.5137  2.8086 -0.5771
15330TIP3    H267482   6.566   0.973  14.493  1.9510 -0.0345 -2.0003
15331TIP3   OH267483   3.823   2.307  13.899 -0.5364  0.7588 -0.4120
15331TIP3    H167484   3.845   2.400  13.890 -0.7058  0.8134 -0.2491
15331TIP3    H267485   3.772   2.288  13.820  0.1788  0.6042 -0.8434
15332TIP3   OH267486   6.131   1.986   1.591 -0.1759 -0.0416  0.3358
15332TIP3    H167487   6.088   1.903   1.613  0.4790 -0.5229 -0.1598
15332TIP3    H267488   6.114   2.043   1.666  1.2821 -1.3541  1.7076
15333TIP3   OH267489   4.046   5.586   5.697 -0.1910  0.1911 -0.1754
15333TIP3    H167490   4.008   5.498   5.688  0.7040 -0.1885 -0.2908
15333TIP3    H267491   4.045   5.602   5.791  0.2919 -0.2303 -0.0985
15334TIP3   OH267492   2.080   1.465  13.488 -0.2938 -0.2798 -0.1410
15334TIP3    H167493   2.054   1.526  13.557  1.3757  0.3579 -0.0419
15334TIP3    H267494   2.147   1.513  13.439 -0.8055 -1.0763 -1.6454
15335TIP3   OH267495   1.774   3.156   4.964  0.3302 -0.4400 -0.0810
15335TIP3    H167496   1.778   3.062   4.945 -0.8904 -0.3796 -0.6490
15335TIP3    H267497   1.740   3.196   4.884 -0.9669  0.2793  0.8063
15336TIP3   OH267498   0.497   6.247  13.875 -0.3218  0.1138 -0.3953
15336TIP3    H167499   0.578   6.297  13.873  0.1239 -0.6331 -1.0935
15336TIP3    H267500   0.474   6.242  13.968 -0.2702  1.4334 -0.2977
15337TIP3   OH267501   4.604   5.991   4.281  0.0162 -0.6679  0.7434
15337TIP3    H167502   4.514   5.960   4.278 -0.1014 -0.2913  0.3426
15337TIP3    H267503   4.610   6.042   4.361  0.3741 -2.2231  1.7383
15338TIP3   OH267504   0.913   0.033   0.828  0.0862  0.1388  0.0696
15338TIP3    H167505   0.835   0.086   0.814 -0.5039 -0.6771  0.2923
15338TIP3    H267506   0.920   0.025   0.924 -1.1691 -2.1770 -0.0006
15339TIP3   OH267507   5.665   1.309   3.453 -0.0412  0.2843  0.1433
15339TIP3    H167508   5.742   1.339   3.406  0.2913  0.9605  1.0970
15339TIP3    H267509   5.700   1.257   3.525 -0.4216  1.2950  1.0785
15340TIP3   OH267510   5.935   6.220  12.542 -0.1684  0.2791  0.0668
15340TIP3    H167511   5.972   6.141  12.503  0.8748  1.2564 -0.9795
15340TIP3    H267512   5.842   6.217  12.519 -0.3853 -1.2343  1.0638
15341TIP3   OH267513   6.779   5.277  16.415  0.1437 -0.4893  0.6710
15341TIP3    H167514   6.782   5.351  16.476  0.9836  0.3431 -0.3724
15341TIP3    H267515   6.718   5.305  16.346  1.1054 -0.4318 -0.1629
15342TIP3   OH267516   3.699   0.192  16.998 -0.0925  0.1044  0.2236
15342TIP3    H167517   3.647   0.238  16.932 -2.1021 -0.0361  1.6941
15342TIP3    H267518   3.720   0.108  16.957  1.7924  1.4169 -1.6385
15343TIP3   OH267519   6.137   2.210   1.428 -0.2457 -0.2656  0.1929
15343TIP3    H167520   6.086   2.164   1.494 -0.2942  0.1270  0.4313
15343TIP3    H267521   6.165   2.142   1.367 -0.4242 -0.5889  0.4734
15344TIP3   OH267522   0.846   5.450  13.126  0.3783 -0.1267  0.0213
15344TIP3    H167523   0.882   5.536  13.104  2.0509 -1.0406 -0.9463
15344TIP3    H267524   0.841   5.404  13.042  0.6663 -1.4008  0.6929
15345TIP3   OH267525   4.532   4.277  15.536 -0.4869 -0.1649  0.2534
15345TIP3    H167526   4.483   4.195  15.527 -2.0100  0.7241  0.2684
15345TIP3    H267527   4.466   4.345  15.525  1.0125  1.0812 -1.1845
15346TIP3   OH267528   4.769   5.143  10.963  0.0878 -0.2362  0.0835
15346TIP3    H167529   4.682   5.104  10.965 -0.6114  1.1401 -1.6665
15346TIP3    H267530   4.753   5.237  10.966  1.3906  0.1022 -2.3642
15347TIP3   OH267531   1.830   2.874  16.317 -0.3327 -0.1714  0.0482
15347TIP3    H167532   1.857   2.782  16.316  0.9914  0.1682 -2.7144
15347TIP3    H267533   1.837   2.901  16.225 -0.4606  2.7580  0.8604
15348TIP3   OH267534   3.084   2.799   1.067 -0.2040 -0.0565  0.2732
15348TIP3    H167535   3.158   2.805   1.126  0.0203 -3.1753  0.3848
15348TIP3    H267536   3.008   2.822   1.121  0.3070 -0.2259  1.0636
15349TIP3   OH267537   2.539   1.052   3.916 -0.4010 -0.1141  0.6346
15349TIP3    H167538   2.530   1.036   3.822 -0.1226 -0.4015  0.6573
15349TIP3    H267539   2.620   1.008   3.941  0.8976  2.1302  0.5082
15350TIP3   OH267540   3.266   5.831   3.709 -0.3815 -0.0365  0.0698
15350TIP3    H167541   3.186   5.879   3.686 -0.5264 -1.3283 -2.3203
15350TIP3    H267542   3.236   5.751   3.751 -0.3627 -0.5380 -0.8577
15351TIP3   OH267543   5.401   1.005   5.492  0.6274 -0.2219  0.5453
15351TIP3    H167544   5.490   1.013   5.525  0.9709  0.2119 -0.4730
15351TIP3    H267545   5.402   0.927   5.436  0.2006 -0.6013  1.0603
15352TIP3   OH267546   5.514   3.690  16.279  0.1860 -0.4134 -0.3382
15352TIP3    H167547   5.454   3.762  16.298 -0.0500 -1.0082  1.2104
15352TIP3    H267548   5.465   3.611  16.301  1.2896 -0.9406  0.2745
15353TIP3   OH267549   6.760   1.608  11.873 -0.1353 -0.5526  0.2599
15353TIP3    H167550   6.795   1.577  11.956  0.6462  0.3504  0.2796
15353TIP3    H267551   6.814   1.565  11.807 -0.0701 -0.4571  0.2506
15354TIP3   OH267552   1.147   1.617  11.389 -0.3132  0.2508 -0.2043
15354TIP3    H167553   1.059   1.638  11.420  0.4158  2.9278  0.2203
15354TIP3    H267554   1.174   1.543  11.442 -2.1426 -0.3302 -0.0348
15355TIP3   OH267555   2.819   4.419  14.540  0.8327  0.2833 -0.4421
15355TIP3    H167556   2.887   4.446  14.479  2.4952 -2.4992  0.0866
15355TIP3    H267557   2.765   4.358  14.490 -0.5945  1.5831 -0.5050
15356TIP3   OH267558   0.780   6.637  15.165 -0.0497  0.2341  0.3663
15356TIP3    H167559   0.687   6.628  15.183 -0.3664  0.8103 -0.9415
15356TIP3    H267560   0.813   6.548  15.165 -1.1463 -0.1956 -1.9575
15357TIP3   OH267561   0.361   5.364  16.679 -0.1941 -0.7898 -0.3498
15357TIP3    H167562   0.444   5.380  16.635 -1.3360  1.2246 -1.8529
15357TIP3    H267563   0.350   5.269  16.675  1.3032 -0.9340 -1.4536
15358TIP3   OH267564   3.359   5.143  11.575 -0.4963  0.4022  0.0230
15358TIP3    H167565   3.370   5.080  11.503  2.0633  0.4414  0.3580
15358TIP3    H267566   3.296   5.207  11.542 -1.6919 -1.2798 -1.0264
15359TIP3   OH267567   4.473   3.192  13.494  0.3057  0.0016 -0.6342
15359TIP3    H167568   4.485   3.204  13.400  1.5769  2.0638 -0.2331
15359TIP3    H267569   4.560   3.202  13.532  0.0538 -2.2018  0.6618
15360TIP3   OH267570   5.849   5.186  14.132 -0.6323  0.0250  0.2187
15360TIP3    H167571   5.787   5.254  14.158 -1.4832  0.1529 -2.0093
15360TIP3    H267572   5.858   5.197  14.037  3.9814  0.9775  0.6306
15361TIP3   OH267573   0.654   1.882   2.867 -0.3248 -0.2158 -0.0044
15361TIP3    H167574   0.666   1.913   2.956  0.0255  2.4006 -0.9170
15361TIP3    H267575   0.742   1.885   2.829 -0.3724 -1.8742 -0.2806
15362TIP3   OH267576   6.098   3.534  12.541  0.6238  0.1186  0.0861
15362TIP3    H167577   6.136   3.606  12.490  2.1665 -2.1284 -2.0517
15362TIP3    H267578   6.149   3.534  12.622 -1.9294  3.8012  1.8131
15363TIP3   OH267579   2.159   3.648  15.497  0.8479  0.1480 -0.1676
15363TIP3    H167580   2.099   3.668  15.569  0.2464  0.5728 -0.7796
15363TIP3    H267581   2.219   3.583  15.533 -0.8610 -1.3603  0.0413
15364TIP3   OH267582   4.546   3.068  12.975  0.1133 -1.3985  0.0101
15364TIP3    H167583   4.607   3.129  13.017  1.2804 -1.5490 -1.4397
15364TIP3    H267584   4.465   3.077  13.025 -0.1597  2.3140 -1.0211
15365TIP3   OH267585   0.936   2.303   1.867  0.1012  0.4553  0.3583
15365TIP3    H167586   0.841   2.300   1.852 -0.2146  2.0452  1.8683
15365TIP3    H267587   0.962   2.212   1.871 -1.4173 -0.0078  0.1419
15366TIP3   OH267588   4.731   4.563   0.349  0.3849  0.1933  0.1303
15366TIP3    H167589   4.662   4.625   0.375  0.3560 -0.3747  1.4477
15366TIP3    H267590   4.812   4.603   0.380  0.1857 -1.3185  2.7860
15367TIP3   OH267591   5.306   1.679  16.690 -0.1667  0.0038 -0.5763
15367TIP3    H167592   5.282   1.716  16.775 -3.0109 -2.0577 -0.3751
15367TIP3    H267593   5.338   1.591  16.711  0.3547 -0.0338 -1.5209
15368TIP3   OH267594   5.484   3.512  15.342 -0.2115  0.2165 -0.4845
15368TIP3    H167595   5.464   3.605  15.347 -0.4161  0.1499 -0.0184
15368TIP3    H267596   5.564   3.507  15.290 -0.4756  0.6143 -0.9268
15369TIP3   OH267597   2.938   5.876   1.443 -0.0327  0.0134  0.1782
15369TIP3    H167598   2.971   5.942   1.504  2.0651 -0.2949 -0.5614
15369TIP3    H267599   2.896   5.926   1.374  0.7887  0.5546  0.0580
15370TIP3   OH267600   4.564   5.111  16.111 -0.5605  0.1039  0.1103
15370TIP3    H167601   4.499   5.180  16.121 -1.0242 -0.4310  0.7876
15370TIP3    H267602   4.525   5.034  16.152  0.6790 -0.1103  0.9128
15371TIP3   OH267603   0.769   3.871  11.416 -0.4582 -0.4066 -0.3448
15371TIP3    H167604   0.846   3.820  11.394 -0.2628  0.0061 -0.6185
15371TIP3    H267605   0.802   3.940  11.474 -0.5313  0.0969 -0.9037
15372TIP3   OH267606   2.542   1.346   5.333 -0.0487  0.0930  0.2098
15372TIP3    H167607   2.601   1.277   5.363  1.8713  0.6493 -2.1179
15372TIP3    H267608   2.543   1.411   5.403  0.2061 -1.0069  1.2351
15373TIP3   OH267609   4.168   6.663  13.613 -0.5700 -0.1249 -0.0669
15373TIP3    H167610   4.150   6.617  13.532  0.6711 -0.1350 -0.3304
15373TIP3    H267611   4.228   6.733  13.589  0.7220 -0.8387  1.0460
15374TIP3   OH267612   4.576   6.443   4.559  0.9325  0.4370 -0.1621
15374TIP3    H167613   4.584   6.531   4.521  0.5840 -0.4710 -2.3713
15374TIP3    H267614   4.482   6.431   4.572  1.0382  0.6807  0.8863
15375TIP3   OH267615   0.904   1.763   2.510 -0.0086  0.3142  0.2018
15375TIP3    H167616   0.845   1.776   2.436  0.6984 -0.3067 -0.4889
15375TIP3    H267617   0.986   1.804   2.483  0.6951 -1.1468  0.0424
15376TIP3   OH267618   0.313   4.282  12.572 -0.4199 -0.4268  0.2178
15376TIP3    H167619   0.328   4.367  12.529  0.1305 -0.7708 -0.2770
15376TIP3    H267620   0.391   4.269  12.627 -1.8416  0.7783  2.6258
15377TIP3   OH267621   0.908   0.042  14.107  0.0784  0.4957  0.4609
15377TIP3    H167622   0.845  -0.004  14.051  0.5855 -0.5597  0.7429
15377TIP3    H267623   0.858   0.066  14.185 -0.4190  1.2459 -0.0718
15378TIP3   OH267624   3.796   5.187  11.155 -0.2131  0.0346 -0.1221
15378TIP3    H167625   3.862   5.165  11.221  1.4348  0.3999 -1.5824
15378TIP3    H267626   3.842   5.177  11.072 -2.9023 -2.6521 -1.3651
15379TIP3   OH267627   3.219   1.262  14.428  0.3021 -0.2014 -0.2425
15379TIP3    H167628   3.129   1.238  14.410  0.0733  1.3463 -1.2143
15379TIP3    H267629   3.216   1.308  14.512 -0.0713  1.3600 -1.1004
15380TIP3   OH267630   0.541   1.369  15.907  0.3433  0.4767  0.5559
15380TIP3    H167631   0.486   1.447  15.919  0.0189  0.1810  0.9844
15380TIP3    H267632   0.486   1.309  15.857  0.8870  0.8340 -0.4854
15381TIP3   OH267633   5.026   0.448  14.365  0.3114  0.5140 -0.7817
15381TIP3    H167634   4.978   0.463  14.284  0.0534 -0.0477 -0.7329
15381TIP3    H267635   5.118   0.443  14.338  0.3083  1.1948 -0.9247
15382TIP3   OH267636   3.979   4.000   5.145  0.3025 -0.0153 -0.3368
15382TIP3    H167637   3.997   4.015   5.238  0.4746  0.3043 -0.4213
15382TIP3    H267638   3.939   4.081   5.115  2.0450  0.6152 -1.0046
15383TIP3   OH267639   4.105   4.822   1.006 -0.6357  0.1387 -0.5540
15383TIP3    H167640   4.154   4.904   1.013 -1.1746  0.4135  0.0880
15383TIP3    H267641   4.157   4.760   1.057 -1.5363  0.7168  1.1154
15384TIP3   OH267642   1.206   4.832   0.463  0.1181 -0.4258 -0.0299
15384TIP3    H167643   1.218   4.926   0.475 -0.5655 -0.3523  0.1043
15384TIP3    H267644   1.240   4.793   0.544  0.1604 -0.2736  0.0250
15385TIP3   OH267645   6.809   5.167   0.144  0.7109 -0.2630  0.1163
15385TIP3    H167646   6.892   5.191   0.185 -0.2820  1.5370  1.1089
15385TIP3    H267647   6.807   5.218   0.063  0.7704 -0.6343 -0.1187
15386TIP3   OH267648   4.703   1.084  10.812  0.0499 -0.0012  0.4006
15386TIP3    H167649   4.664   1.121  10.892 -0.6794  0.4260 -0.1531
15386TIP3    H267650   4.778   1.035  10.844 -0.3169  0.0476  1.3794
15387TIP3   OH267651   4.501   0.209   2.202 -0.5310 -0.0309 -0.6790
15387TIP3    H167652   4.474   0.119   2.183  0.0288 -0.3909  0.2196
15387TIP3    H267653   4.570   0.200   2.267 -1.7344  1.1431  0.7902
15388TIP3   OH267654   4.744   2.933   5.305 -0.2681 -0.6045 -0.0405
15388TIP3    H167655   4.686   2.960   5.234 -1.3030  1.1504  1.4215
15388TIP3    H267656   4.761   3.013   5.355 -0.0995 -1.8923  2.0512
15389TIP3   OH267657   3.433   0.224  15.750 -0.1817 -0.4751 -0.1887
15389TIP3    H167658   3.370   0.278  15.701  0.6914  2.0160  1.3104
15389TIP3    H267659   3.519   0.256  15.722  0.3526 -1.1344  0.6716
15390TIP3   OH267660   0.872   0.359   4.303 -0.2101  1.0091 -0.1984
15390TIP3    H167661   0.840   0.279   4.262  0.2013  0.4029  0.6429
15390TIP3    H267662   0.899   0.415   4.230  0.6419 -0.0944 -0.7472
15391TIP3   OH267663   0.195   2.982  15.496  0.1670  0.1707  0.0865
15391TIP3    H167664   0.103   3.007  15.490  0.2037  0.1782 -0.4207
15391TIP3    H267665   0.212   2.976  15.590 -0.5202 -0.4701  0.1710
15392TIP3   OH267666   1.070   1.579  12.245  0.6009 -0.0627  0.3469
15392TIP3    H167667   1.161   1.554  12.260 -0.0702 -2.1190  1.1759
15392TIP3    H267668   1.044   1.531  12.166 -0.0637 -0.2882  0.6970
15393TIP3   OH267669   4.830   1.927   1.874 -0.6273  1.0606  0.5137
15393TIP3    H167670   4.861   1.847   1.832 -0.5910  0.5016  1.5987
15393TIP3    H267671   4.908   1.983   1.881 -0.4103  0.7217  0.8167
15394TIP3   OH267672   3.408   0.126   1.071  0.5420  0.0999 -0.1739
15394TIP3    H167673   3.419   0.132   1.166 -0.3442  0.1428 -0.0669
15394TIP3    H267674   3.468   0.056   1.044  0.5634 -0.1281  0.4579
15395TIP3   OH267675   0.064   0.006   0.171 -0.7110 -0.6122  0.5408
15395TIP3    H167676   0.049  -0.051   0.246 -0.1787 -1.4262  0.0442
15395TIP3    H267677   0.097   0.088   0.209  0.2633 -1.2754  1.1572
15396TIP3   OH267678   1.167   5.043  15.241  0.4955 -0.0157  0.0757
15396TIP3    H167679   1.154   5.039  15.336  1.4711  0.6058  0.2505
15396TIP3    H267680   1.185   5.135  15.224 -2.6843  0.4122 -1.1499
15397TIP3   OH267681   1.083   6.149  13.077  0.0882  0.5267  0.1736
15397TIP3    H167682   1.088   6.220  13.012  0.5118  0.7818  0.4801
15397TIP3    H267683   1.062   6.193  13.159 -0.4827  0.1976  0.2064
15398TIP3   OH267684   4.075   2.204   1.926  0.4386  0.3494  0.0715
15398TIP3    H167685   4.074   2.229   2.018  1.6177  1.1901 -0.1280
15398TIP3    H267686   4.037   2.280   1.880 -0.1371 -0.0622 -0.1321
15399TIP3   OH267687   2.118   5.047   1.474 -0.3807  0.1935 -0.7512
15399TIP3    H167688   2.028   5.021   1.455 -1.3276  0.5860  2.7940
15399TIP3    H267689   2.125   5.041   1.569  2.7488  2.1020 -0.7931
15400TIP3   OH267690   2.649   1.528  11.906  0.2182  0.5025  0.2993
15400TIP3    H167691   2.741   1.543  11.930  0.3475  2.2554 -1.1875
15400TIP3    H267692   2.638   1.433  11.910  2.5160  0.1593 -1.0216
15401TIP3   OH267693   5.629   1.021  10.910 -0.3695 -0.2028  1.0943
15401TIP3    H167694   5.693   0.952  10.893  0.0780  0.7162 -1.1094
15401TIP3    H267695   5.566   1.013  10.839 -3.3110 -1.7306  3.7724
15402TIP3   OH267696   0.511   0.538   3.227 -0.0077 -0.3910 -0.5955
15402TIP3    H167697   0.470   0.617   3.191  0.6821 -0.1838 -0.9460
15402TIP3    H267698   0.581   0.517   3.164 -0.2149 -1.3089 -0.5317
15403TIP3   OH267699   2.889   6.596   5.028 -0.0690 -0.0730 -0.1349
15403TIP3    H167700   2.797   6.611   5.051 -0.0379 -0.9250  0.5649
15403TIP3    H267701   2.903   6.649   4.949 -0.9502  0.6661  0.1940
15404TIP3   OH267702   6.608   0.691   5.296 -0.0492 -0.0321  0.2998
15404TIP3    H167703   6.704   0.683   5.295 -0.0362 -0.0584  1.3511
15404TIP3    H267704   6.592   0.784   5.310 -0.1973  0.4392 -2.6345
15405TIP3   OH267705   4.999   5.421  15.465  0.2647 -0.0451  0.3394
15405TIP3    H167706   4.994   5.516  15.455  0.6669 -0.0727 -0.0736
15405TIP3    H267707   4.908   5.391  15.453  0.4835  0.0676 -1.6628
15406TIP3   OH267708   5.869   1.595  12.515 -0.5732  0.0386 -0.1109
15406TIP3    H167709   5.855   1.651  12.592 -1.3142  1.1609 -1.0387
15406TIP3    H267710   5.963   1.602  12.498 -0.5051  0.2612  0.3363
15407TIP3   OH267711   3.381   1.788   4.350 -0.4626  0.3630  0.0560
15407TIP3    H167712   3.412   1.698   4.341 -0.5410  0.1548  1.8337
15407TIP3    H267713   3.391   1.809   4.443 -3.2740  1.1554  0.2352
15408TIP3   OH267714   1.163   2.455  13.859 -0.1694 -0.0465 -0.0430
15408TIP3    H167715   1.163   2.445  13.763 -0.3280 -1.4146  0.0936
15408TIP3    H267716   1.219   2.385  13.890 -2.0354 -1.1057  1.0104
15409TIP3   OH267717   0.485   4.634   1.907 -0.4171  0.5325 -0.0864
15409TIP3    H167718   0.579   4.639   1.892 -0.3893  1.2070  0.2809
15409TIP3    H267719   0.446   4.675   1.830 -0.4621 -0.9291 -0.8588
15410TIP3   OH267720   1.860   3.934  15.324  0.4540 -0.1961 -0.2730
15410TIP3    H167721   1.865   4.011  15.382 -0.4992 -0.4864  0.1993
15410TIP3    H267722   1.810   3.870  15.374 -0.8156 -0.2731 -1.6216
15411TIP3   OH267723   5.383   1.903  12.440  0.0265  0.1463  0.5022
15411TIP3    H167724   5.426   1.987  12.424 -2.4393  1.0831 -1.4770
15411TIP3    H267725   5.449   1.837  12.420  1.4620  1.5724  0.4852
15412TIP3   OH267726   0.846   0.892  17.179 -0.3545  0.2813 -0.5349
15412TIP3    H167727   0.937   0.914  17.201  0.2005 -0.2049 -2.2999
15412TIP3    H267728   0.849   0.799  17.158 -1.0543  0.5269 -1.7349
15413TIP3   OH267729   3.276   6.674  14.261  0.1922  0.1055  0.1139
15413TIP3    H167730   3.214   6.622  14.312 -0.6017  1.3844  0.4812
15413TIP3    H267731   3.312   6.736  14.324  1.7888 -0.5604 -0.1241
15414TIP3   OH267732   1.684   5.428  14.224 -0.0686  0.5069 -0.2020
15414TIP3    H167733   1.656   5.500  14.167  1.1823  1.2361  0.0765
15414TIP3    H267734   1.762   5.393  14.182  0.4337  0.5636  0.6713
15415TIP3   OH267735   2.176   2.294  14.147 -1.0515 -0.1343 -0.0738
15415TIP3    H167736   2.230   2.216  14.132  0.2916  0.0038  3.6121
15415TIP3    H267737   2.173   2.338  14.062  3.2735 -1.0023 -0.7776
15416TIP3   OH267738   3.145   3.037  11.577  0.2429  0.7097 -0.3108
15416TIP3    H167739   3.144   3.125  11.615 -0.4918  1.1055 -1.2330
15416TIP3    H267740   3.172   2.980  11.649  0.4149  1.6523  0.3756
15417TIP3   OH267741   5.713   2.581   3.619  0.0020  0.2549 -0.6782
15417TIP3    H167742   5.723   2.528   3.540 -0.9560 -0.6968 -0.1615
15417TIP3    H267743   5.803   2.596   3.649  0.2756 -1.1554 -0.7703
15418TIP3   OH267744   2.382   0.484  15.098  0.1436 -0.2192 -0.3521
15418TIP3    H167745   2.288   0.476  15.082  0.2477 -0.4857 -0.8343
15418TIP3    H267746   2.411   0.394  15.113  0.3164 -0.1337 -0.1704
15419TIP3   OH267747   4.352   4.454  16.527 -0.1202 -0.6908 -0.8974
15419TIP3    H167748   4.431   4.504  16.548 -0.2527 -0.1183 -1.7421
15419TIP3    H267749   4.350   4.384  16.592  0.8794 -0.4880 -0.6380
15420TIP3   OH267750   6.411   5.983  14.351  0.3025 -0.1383 -0.2384
15420TIP3    H167751   6.407   5.982  14.446  0.4460  0.0012 -0.2298
15420TIP3    H267752   6.414   6.076  14.328 -1.4354 -0.1193 -0.4552
15421TIP3   OH267753   4.075   0.946   3.696 -0.4544 -0.1877 -0.1000
15421TIP3    H167754   4.076   0.982   3.607 -1.3723 -0.1379 -0.0900
15421TIP3    H267755   3.985   0.957   3.726 -0.1668 -0.2733  0.8146
15422TIP3   OH267756   2.926   6.098  12.919 -0.0231 -0.0417  0.4417
15422TIP3    H167757   2.979   6.053  12.853 -0.2286  0.3168  0.0312
15422TIP3    H267758   2.851   6.040  12.933  0.4948 -0.5695  1.0528
15423TIP3   OH267759   0.673   0.166   5.433  0.3928 -0.1091 -0.6082
15423TIP3    H167760   0.723   0.156   5.514 -1.1494 -0.9789  0.2504
15423TIP3    H267761   0.625   0.084   5.423 -1.8549  1.1536 -0.7085
15424TIP3   OH267762   2.960   4.991   2.608  0.2678  0.0011  0.6130
15424TIP3    H167763   3.008   4.942   2.540 -0.8609 -1.7756  1.0457
15424TIP3    H267764   2.950   4.928   2.679 -1.3288  0.8496  1.1538
15425TIP3   OH267765   5.997   5.158   4.882  0.2139 -0.1059 -0.9823
15425TIP3    H167766   6.016   5.101   4.807 -0.6646  0.4685 -1.6480
15425TIP3    H267767   5.925   5.114   4.927  1.7765 -1.2926  0.4664
15426TIP3   OH267768   6.077   1.322   3.402 -0.0248 -0.1382 -0.6548
15426TIP3    H167769   6.112   1.410   3.392  1.9469 -0.7009  0.8830
15426TIP3    H267770   6.049   1.317   3.493  1.5334 -1.6327 -0.2232
15427TIP3   OH267771   5.145   1.117  16.079  0.0974  0.2634 -0.0239
15427TIP3    H167772   5.054   1.089  16.092 -0.1722  1.4361  0.6173
15427TIP3    H267773   5.197   1.038  16.096 -0.7341 -0.1530  0.5933
15428TIP3   OH267774   2.854   5.504   0.855  0.2350 -0.0522  0.6088
15428TIP3    H167775   2.917   5.533   0.790 -2.3249  3.2958 -0.5302
15428TIP3    H267776   2.853   5.574   0.921 -2.4219  0.1326  0.4411
15429TIP3   OH267777   1.444   5.435   2.117 -0.0154  0.3474  0.2676
15429TIP3    H167778   1.444   5.495   2.042  0.9244  0.2441  0.1753
15429TIP3    H267779   1.373   5.466   2.172 -0.7187  0.4329 -0.6643
15430TIP3   OH267780   0.651   6.730  13.957 -0.1441  0.2754 -1.2034
15430TIP3    H167781   0.613   6.667  14.018  0.1896 -0.3322 -1.6276
15430TIP3    H267782   0.614   6.706  13.872  0.7881  0.0061 -1.5341
15431TIP3   OH267783   5.845   3.094  16.656  0.0640  0.1244  0.2515
15431TIP3    H167784   5.788   3.021  16.680 -0.0279  0.3832  0.8469
15431TIP3    H267785   5.815   3.120  16.569 -0.9180  0.4334  0.6735
15432TIP3   OH267786   6.029   1.082  11.955 -0.1692  0.4407  0.7353
15432TIP3    H167787   6.023   1.174  11.928 -0.1486  0.0649 -0.5674
15432TIP3    H267788   6.015   1.032  11.875  1.5946 -0.6752  1.0953
15433TIP3   OH267789   5.425   1.917  14.093 -0.0036  0.0772 -0.5723
15433TIP3    H167790   5.518   1.892  14.091  0.6470  2.2731  0.1815
15433TIP3    H267791   5.422   1.989  14.156 -2.4270 -0.6898  0.2266
15434TIP3   OH267792   5.388   4.474  13.961  0.0714 -0.3235  0.4095
15434TIP3    H167793   5.381   4.470  13.866 -3.8590 -1.3169  0.6448
15434TIP3    H267794   5.404   4.566  13.981  3.0146 -0.4132 -1.2333
15435TIP3   OH267795   5.722   2.118  16.655 -0.1332 -0.3542  0.0358
15435TIP3    H167796   5.636   2.101  16.617 -1.5597  1.6735  2.2518
15435TIP3    H267797   5.705   2.177  16.728  2.8519 -1.9729  2.1354
15436TIP3   OH267798   3.855   0.767   1.706 -0.0926 -0.5840 -0.1037
15436TIP3    H167799   3.883   0.722   1.626 -2.1405 -1.3702 -0.3945
15436TIP3    H267800   3.870   0.703   1.775  0.2864 -0.4357 -0.0464
15437TIP3   OH267801   6.705   6.413   3.792  0.1721  0.5965  0.3132
15437TIP3    H167802   6.668   6.325   3.797 -1.6014  1.1802 -1.5432
15437TIP3    H267803   6.703   6.445   3.882 -0.9298 -0.5620  0.7197
15438TIP3   OH267804   2.413   3.502  11.482  0.1546 -0.3463  0.3074
15438TIP3    H167805   2.399   3.594  11.461  1.5785  0.0592  1.0377
15438TIP3    H267806   2.507   3.496  11.502  0.0473 -1.9210  0.4243
15439TIP3   OH267807   6.123   2.791   5.836 -0.2286  0.0227  0.0870
15439TIP3    H167808   6.068   2.756   5.766  0.8782  1.2727 -1.4394
15439TIP3    H267809   6.062   2.832   5.897 -1.2179 -1.2618 -0.0137
15440TIP3   OH267810   2.249   5.058  14.895 -0.0177  0.2808 -0.4052
15440TIP3    H167811   2.270   5.064  14.989  2.7484  1.4827 -1.0521
15440TIP3    H267812   2.195   4.979  14.888  1.4759 -1.0190  1.9072
15441TIP3   OH267813   6.293   1.170   0.498  0.5333  0.7116  0.0562
15441TIP3    H167814   6.225   1.234   0.519  0.5325  0.5910  0.4209
15441TIP3    H267815   6.269   1.092   0.548  2.3430  1.4996  2.2381
15442TIP3   OH267816   3.926   1.667  16.409 -0.0618  0.3292  0.0872
15442TIP3    H167817   3.931   1.639  16.318  4.0752  0.2042  0.2601
15442TIP3    H267818   3.878   1.750  16.406 -0.2966  0.1456 -2.1333
15443TIP3   OH267819   5.172   2.201  16.758  0.2935 -0.2840  0.6827
15443TIP3    H167820   5.110   2.132  16.784  1.3066 -1.3891  0.1888
15443TIP3    H267821   5.218   2.165  16.682  0.3786  1.2034  0.0105
15444TIP3   OH267822   2.702   1.970  15.005  0.2705 -0.4305 -0.1570
15444TIP3    H167823   2.656   1.899  15.049 -1.3208  0.0641 -0.9536
15444TIP3    H267824   2.756   1.927  14.939 -0.4826 -0.9320 -0.4580
15445TIP3   OH267825   3.357   5.089  13.628  0.1450  0.0070 -0.3644
15445TIP3    H167826   3.385   5.015  13.574 -2.7323  1.0883 -3.4985
15445TIP3    H267827   3.360   5.165  13.569 -1.6944  1.4927  1.3655
15446TIP3   OH267828   0.939   2.996  12.486 -0.1205 -0.1780  0.0924
15446TIP3    H167829   0.848   2.995  12.457 -0.5638  1.3592  1.3779
15446TIP3    H267830   0.935   2.980  12.580  0.9595 -0.3829  0.1098
15447TIP3   OH267831   3.052   6.746   3.983  0.5813 -0.5424  0.2408
15447TIP3    H167832   3.022   6.662   3.948 -0.9491 -0.2418  0.7981
15447TIP3    H267833   3.134   6.763   3.937 -0.5234 -0.9910 -1.9780
15448TIP3   OH267834   2.009   2.002  11.837  0.7556 -0.4094 -0.0184
15448TIP3    H167835   1.968   1.916  11.828  4.1992 -2.3865  2.0305
15448TIP3    H267836   1.984   2.031  11.925  0.2788  0.3482 -0.3945
15449TIP3   OH267837   6.818   1.922   1.410 -0.0673  0.8166  0.1182
15449TIP3    H167838   6.772   1.920   1.326  2.1826  0.7617 -1.1612
15449TIP3    H267839   6.779   1.851   1.461 -1.5448  0.9320 -0.8257
15450TIP3   OH267840   0.462   6.024  13.039  0.2940  0.3482  0.0848
15450TIP3    H167841   0.495   6.066  13.119  1.3495 -0.1573 -0.0910
15450TIP3    H267842   0.504   6.072  12.968 -0.7167  0.8557 -0.1837
15451TIP3   OH267843   0.627   6.186  13.172  0.0975 -0.1166 -0.2278
15451TIP3    H167844   0.701   6.151  13.122  0.0098 -0.7726  0.0952
15451TIP3    H267845   0.662   6.199  13.260 -0.5421 -1.7168  0.2684
15452TIP3   OH267846   1.252   3.522   5.052 -0.0112 -0.0324  0.5906
15452TIP3    H167847   1.218   3.436   5.028 -0.8230  0.8441 -1.5634
15452TIP3    H267848   1.252   3.572   4.970  0.1941  2.1104  1.8398
15453TIP3   OH267849   4.771   4.672   2.617 -0.0114 -0.3141  0.5532
15453TIP3    H167850   4.797   4.749   2.668  0.1741 -0.1917  0.2720
15453TIP3    H267851   4.853   4.625   2.601  0.2657  0.8723 -1.6607
15454TIP3   OH267852   5.768   3.320   3.221 -0.1024 -0.4979 -0.2483
15454TIP3    H167853   5.702   3.326   3.289 -0.2677 -1.0214 -0.3676
15454TIP3    H267854   5.739   3.382   3.153 -0.2412 -0.4119 -0.1086
15455TIP3   OH267855   2.294   3.404  16.550  0.3483 -0.6764  0.6886
15455TIP3    H167856   2.222   3.444  16.599 -0.3514 -1.5496  0.3894
15455TIP3    H267857   2.355   3.476  16.535  0.0192 -0.1398  1.8146
15456TIP3   OH267858   3.700   0.141   4.554 -0.1159  0.4751 -0.3129
15456TIP3    H167859   3.654   0.058   4.544  1.8148 -0.9948  2.3474
15456TIP3    H267860   3.775   0.134   4.495  1.2077 -0.6109  1.4355
15457TIP3   OH267861   4.456   0.786  12.806 -0.1259  0.3234 -0.3309
15457TIP3    H167862   4.404   0.852  12.761 -1.9327 -1.4102 -0.8536
15457TIP3    H267863   4.495   0.832  12.880 -1.0806  2.0354 -0.8778
15458TIP3   OH267864   4.694   1.954   0.465  0.1259  0.2844 -0.9287
15458TIP3    H167865   4.789   1.940   0.463  0.2107  0.8394 -0.8096
15458TIP3    H267866   4.683   2.038   0.509 -0.3753  0.6576 -1.7468
15459TIP3   OH267867   2.580   6.239  12.667  0.1109  0.3641 -0.0690
15459TIP3    H167868   2.519   6.219  12.595  0.3714  1.1719 -0.5183
15459TIP3    H267869   2.553   6.325  12.698  1.2221  0.8758 -0.4861
15460TIP3   OH267870   0.660   3.481  13.745 -0.2443  0.2282 -0.4913
15460TIP3    H167871   0.743   3.527  13.747  0.0898 -0.3209 -1.4937
15460TIP3    H267872   0.667   3.414  13.813 -0.0259  0.4444 -0.3032
15461TIP3   OH267873   2.797   3.351  15.240  0.4477 -0.3192  0.0759
15461TIP3    H167874   2.853   3.426  15.220 -0.3311  0.5797  1.1648
15461TIP3    H267875   2.710   3.378  15.211  0.0285 -0.4950  1.1301
15462TIP3   OH267876   2.792   4.638  16.595  0.2987  0.1172  0.3059
15462TIP3    H167877   2.782   4.590  16.512  1.0442  2.2899 -1.1065
15462TIP3    H267878   2.820   4.572  16.658 -1.1722 -1.7643 -0.9698
15463TIP3   OH267879   6.789   6.724   1.498  0.5256  0.0781  0.3452
15463TIP3    H167880   6.721   6.681   1.550 -0.7360  1.1486 -0.3967
15463TIP3    H267881   6.758   6.814   1.488  2.7049  0.9391  1.1201
15464TIP3   OH267882   5.295   2.667  13.366  0.4144  1.3719  0.1075
15464TIP3    H167883   5.262   2.746  13.322  0.0020  0.8413 -0.5511
15464TIP3    H267884   5.228   2.601  13.350  0.1063  1.2419  1.8194
15465TIP3   OH267885   0.172   2.829   4.101 -0.1262 -0.0776  0.5718
15465TIP3    H167886   0.170   2.777   4.021  0.9770  0.9086 -0.1063
15465TIP3    H267887   0.199   2.767   4.169 -3.2485 -1.4434  0.6132
15466TIP3   OH267888   4.926   5.164   5.014 -0.5066  0.0566  0.1251
15466TIP3    H167889   4.877   5.145   5.094 -0.2481  2.3482  0.8604
15466TIP3    H267890   4.928   5.081   4.967 -1.0535 -1.2089  2.2767
15467TIP3   OH267891   4.504   0.758   2.051 -0.3278 -0.4496  0.1258
15467TIP3    H167892   4.513   0.668   2.020 -0.7837 -0.4656  0.0394
15467TIP3    H267893   4.421   0.759   2.099 -0.8371  0.1796 -0.7483
15468TIP3   OH267894   3.938   2.726   0.838  0.2594  0.1264  0.0756
15468TIP3    H167895   3.886   2.708   0.760  0.1371  0.6419  0.0378
15468TIP3    H267896   3.902   2.667   0.905  0.9001 -0.9039 -0.4720
15469TIP3   OH267897   0.311   3.016  13.186 -0.1983 -0.0196  0.5434
15469TIP3    H167898   0.236   2.965  13.156 -0.3581  0.9413 -0.7024
15469TIP3    H267899   0.286   3.048  13.272 -0.7574 -0.6499  0.6195
15470TIP3   OH267900   5.857   6.586   5.011  0.1477 -0.4744  0.4680
15470TIP3    H167901   5.841   6.622   4.924  0.3506 -1.8974 -0.1558
15470TIP3    H267902   5.800   6.638   5.068 -1.8850 -1.2056 -0.8501
15471TIP3   OH267903   1.884   2.609  15.898  0.2194  0.6366  0.3603
15471TIP3    H167904   1.908   2.529  15.852 -0.8843  1.2348 -1.3051
15471TIP3    H267905   1.840   2.579  15.977 -0.8807 -0.4120 -0.6349
15472TIP3   OH267906   2.417   3.253  17.110  0.0103  0.1020 -0.0656
15472TIP3    H167907   2.346   3.194  17.134  0.9370 -1.3425 -0.7901
15472TIP3    H267908   2.373   3.335  17.087 -1.3256 -0.3966  0.6466
15473TIP3   OH267909   5.617   5.248   2.720  0.0389 -0.1785 -0.2994
15473TIP3    H167910   5.631   5.260   2.626  2.3711  0.2254  0.0595
15473TIP3    H267911   5.538   5.195   2.727  1.9697 -3.5301 -2.6295
15474TIP3   OH267912   0.947   3.970  13.206  0.1049 -0.1789  0.4117
15474TIP3    H167913   0.891   3.951  13.281  0.0079 -0.0717  0.3678
15474TIP3    H267914   1.013   3.901  13.207  0.3251  0.0369  0.8140
15475TIP3   OH267915   3.420   6.564   0.453  0.2773  0.0323 -0.2734
15475TIP3    H167916   3.468   6.499   0.401 -0.8905 -0.4174 -0.8024
15475TIP3    H267917   3.363   6.608   0.390  1.3958  1.9383 -0.0149
15476TIP3   OH267918   3.715   4.854   1.408  0.1167 -0.3240  0.5159
15476TIP3    H167919   3.770   4.783   1.442  0.8575  0.7338  1.5831
15476TIP3    H267920   3.775   4.928   1.398 -0.8187  0.4068  0.2472
15477TIP3   OH267921   3.756   4.785  17.263  0.4733  0.0774 -0.3749
15477TIP3    H167922   3.677   4.817  17.306 -0.5895 -1.1455 -1.3813
15477TIP3    H267923   3.778   4.705  17.310 -0.3528 -0.9453 -1.7083
15478TIP3   OH267924   3.787   6.801   1.885 -0.0465  0.6843  0.2901
15478TIP3    H167925   3.805   6.721   1.835  2.3280  0.5615  1.2841
15478TIP3    H267926   3.826   6.871   1.833 -0.0344  0.8981  0.5881
15479TIP3   OH267927   1.020   5.883  16.446  0.1312  0.1073 -0.0251
15479TIP3    H167928   1.052   5.831  16.372  0.4035  1.2299 -0.7121
15479TIP3    H267929   0.944   5.834  16.478 -0.4573 -0.0128 -1.5381
15480TIP3   OH267930   0.376   0.513  12.676  0.4079  0.7524  0.0058
15480TIP3    H167931   0.366   0.531  12.583  1.1848  0.8169 -0.0759
15480TIP3    H267932   0.470   0.524  12.692  0.2976  0.6293  0.7714
15481TIP3   OH267933   1.584   2.073  15.854  0.4935  0.1097  0.4099
15481TIP3    H167934   1.515   2.139  15.862  1.4293  1.0805  0.5923
15481TIP3    H267935   1.565   2.009  15.923 -0.5572  0.0526  0.0739
15482TIP3   OH267936   0.778   4.222   5.752  0.2745  0.1644 -0.2794
15482TIP3    H167937   0.762   4.129   5.738 -0.9493  0.3043  0.1054
15482TIP3    H267938   0.726   4.266   5.685  0.9647  0.5611 -0.5520
15483TIP3   OH267939   4.171   6.569   0.360 -0.1047 -0.3595  0.2564
15483TIP3    H167940   4.252   6.617   0.378  0.7095 -0.8991 -1.8459
15483TIP3    H267941   4.162   6.573   0.265 -1.9030 -1.3639  0.3753
15484TIP3   OH267942   1.352   5.583   0.933 -0.4545  0.9538 -0.3375
15484TIP3    H167943   1.271   5.559   0.979 -0.3072  0.5389 -0.2966
15484TIP3    H267944   1.394   5.647   0.990  1.2168 -1.7540  1.5825
15485TIP3   OH267945   1.636   0.716  14.689 -0.0846  0.0663  0.6072
15485TIP3    H167946   1.609   0.650  14.625  0.4902  0.5635 -0.1583
15485TIP3    H267947   1.589   0.693  14.769 -1.6426  0.0742 -0.2949
15486TIP3   OH267948   4.049   5.124  10.382  0.4017  0.5241 -0.2576
15486TIP3    H167949   4.091   5.185  10.444 -0.1270  0.7887 -0.1575
15486TIP3    H267950   4.112   5.052  10.373  0.6306  0.6475  0.3265
15487TIP3   OH267951   6.555   5.909  12.464 -0.0759 -0.2403 -0.1739
15487TIP3    H167952   6.543   5.964  12.541  0.6915 -0.0582 -0.1770
15487TIP3    H267953   6.643   5.931  12.433 -0.6319  0.1859 -1.4902
15488TIP3   OH267954   6.385   1.575   2.689 -0.2751 -0.3647 -0.4355
15488TIP3    H167955   6.380   1.486   2.655 -1.2769  0.0130 -1.2785
15488TIP3    H267956   6.419   1.565   2.778 -1.5392 -1.6893 -0.0973
15489TIP3   OH267957   4.251   0.479  12.017 -0.4361  0.0030 -0.3726
15489TIP3    H167958   4.169   0.436  12.042  0.9322 -2.1042  0.5887
15489TIP3    H267959   4.258   0.465  11.923 -0.2757 -1.4683 -0.1582
15490TIP3   OH267960   5.609   0.066   1.321 -0.3470 -0.3184 -0.0307
15490TIP3    H167961   5.606   0.116   1.402 -1.4026  0.7266 -0.6948
15490TIP3    H267962   5.697   0.078   1.287  0.5554 -1.9268  1.6739
15491TIP3   OH267963   0.557   4.456   2.101  0.2729 -0.1932 -0.4103
15491TIP3    H167964   0.509   4.508   2.036  1.3427 -0.5224 -1.4701
15491TIP3    H267965   0.551   4.508   2.182 -0.7215  0.4125 -0.8616
15492TIP3   OH267966   2.303   1.802   5.113 -0.0726  0.4945 -0.2291
15492TIP3    H167967   2.344   1.802   5.200  1.0748 -1.5389 -0.7250
15492TIP3    H267968   2.376   1.816   5.052 -0.6725  0.6318 -0.9192
15493TIP3   OH267969   2.549   4.343  13.766 -0.3766 -0.0245 -0.5168
15493TIP3    H167970   2.611   4.296  13.821 -0.3608 -0.4276 -0.8800
15493TIP3    H267971   2.544   4.292  13.685 -0.9655  0.1625 -0.6009
15494TIP3   OH267972   3.403   1.059  14.407 -0.8079 -0.1557  0.1514
15494TIP3    H167973   3.333   1.121  14.422 -2.5325 -1.6800 -1.3280
15494TIP3    H267974   3.453   1.095  14.334 -0.5271  0.5290  0.6822
15495TIP3   OH267975   5.109   0.318   2.891  0.1611 -0.5856  0.1009
15495TIP3    H167976   5.093   0.328   2.797 -0.1052  1.9558  0.3800
15495TIP3    H267977   5.085   0.403   2.928 -1.0706 -2.0018  2.6625
15496TIP3   OH267978   0.848   1.757   1.073  0.5159 -0.1757  0.2626
15496TIP3    H167979   0.787   1.690   1.044  0.4950 -0.2502  0.4790
15496TIP3    H267980   0.827   1.771   1.166  2.0532 -1.5291  0.8248
15497TIP3   OH267981   4.984   4.767   1.587 -0.0429 -0.1474 -0.4466
15497TIP3    H167982   4.920   4.803   1.525 -0.7485 -1.5444 -0.5556
15497TIP3    H267983   4.990   4.832   1.657 -3.3853 -1.0415  0.7660
15498TIP3   OH267984   1.197   4.927  11.513 -0.6846 -0.2994 -0.1083
15498TIP3    H167985   1.176   4.918  11.606 -1.4527 -0.3220 -0.2808
15498TIP3    H267986   1.278   4.877  11.502 -0.2480  0.2366  0.6717
15499TIP3   OH267987   5.581   1.628   5.151 -0.8199 -0.1055 -0.3279
15499TIP3    H167988   5.615   1.601   5.237 -1.2071  3.6260  1.1136
15499TIP3    H267989   5.521   1.558   5.126  0.4298 -1.9974  1.7429
15500TIP3   OH267990   2.835   2.913  10.627 -0.1159 -0.3171  0.4111
15500TIP3    H167991   2.869   2.855  10.696  0.4276 -0.8157 -0.2647
15500TIP3    H267992   2.805   2.853  10.558 -1.0608  0.1642  0.3996
15501TIP3   OH267993   3.183   4.142   5.366  0.3115  0.7089 -0.1673
15501TIP3    H167994   3.157   4.215   5.421  1.2335  0.4042  0.6720
15501TIP3    H267995   3.267   4.168   5.328  0.3980  0.2972 -0.2670
15502TIP3   OH267996   0.751   6.366  13.943  0.3413  1.0349 -0.1522
15502TIP3    H167997   0.807   6.288  13.942 -0.1193  0.6563  1.9146
15502TIP3    H267998   0.777   6.413  14.022 -1.5681  1.3578  0.3012
15503TIP3   OH267999   5.144   5.139  10.999  0.2086 -0.5151  1.0703
15503TIP3    H168000   5.057   5.100  10.989 -0.1046  0.4865 -0.1921
15503TIP3    H268001   5.127   5.230  11.022  0.9092 -0.0135 -0.3512
15504TIP3   OH268002   1.071   2.537   4.681 -0.4517  0.2050  0.3707
15504TIP3    H168003   1.081   2.608   4.744  2.4277  0.7792 -0.6445
15504TIP3    H268004   1.072   2.580   4.596 -0.3831 -0.9147 -0.1993
15505TIP3   OH268005   0.747   6.662   2.573 -0.2978  0.1986  0.1527
15505TIP3    H168006   0.661   6.652   2.533  0.1678 -0.6251 -0.6598
15505TIP3    H268007   0.730   6.669   2.667 -1.3163  1.0446 -0.0825
15506TIP3   OH268008   0.733   0.237  11.691 -0.6894 -0.1537 -0.0469
15506TIP3    H168009   0.777   0.219  11.774 -1.4972  0.2787  0.4712
15506TIP3    H268010   0.681   0.159  11.674  1.1413 -1.1526 -1.2350
15507TIP3   OH268011   6.310   4.337   3.747  0.1131  0.2477 -0.1733
15507TIP3    H168012   6.313   4.270   3.815 -0.1957 -1.8187 -2.1555
15507TIP3    H268013   6.221   4.332   3.712 -0.3835  2.7121  0.6237
15508TIP3   OH268014   3.430   3.797  14.515 -0.2826  0.0900  0.4354
15508TIP3    H168015   3.500   3.859  14.498  0.4035 -0.4422  1.2597
15508TIP3    H268016   3.428   3.788  14.611 -2.4316  1.1928  0.5407
15509TIP3   OH268017   3.602   2.126   1.101 -0.1229 -0.2993 -0.3826
15509TIP3    H168018   3.696   2.111   1.099  0.0851  0.8434  0.4319
15509TIP3    H268019   3.585   2.191   1.033 -0.2708 -0.2673 -0.3174
15510TIP3   OH268020   6.456   2.329  12.080  0.3128 -0.5299 -0.4301
15510TIP3    H168021   6.547   2.350  12.104  0.1593 -1.1901  0.8021
15510TIP3    H268022   6.403   2.380  12.141 -0.1146 -1.1322 -0.2932
15511TIP3   OH268023   5.852   3.365   5.322  0.2283  0.2834  0.0111
15511TIP3    H168024   5.880   3.280   5.356 -0.6266 -0.1387 -0.3157
15511TIP3    H268025   5.885   3.366   5.232  0.9624  0.6592  0.2752
15512TIP3   OH268026   5.265   2.811   5.766 -0.0452  0.4173 -0.1665
15512TIP3    H168027   5.305   2.863   5.696  0.2538 -0.3232 -0.5483
15512TIP3    H268028   5.334   2.805   5.832  0.7626 -1.4914 -1.1448
15513TIP3   OH268029   4.929   5.409  13.700 -0.1522  0.5254  0.0082
15513TIP3    H168030   4.961   5.330  13.744  1.7328 -0.0083 -2.1832
15513TIP3    H268031   4.950   5.481  13.760  0.5011 -0.3829  0.8788
15514TIP3   OH268032   0.283   6.364  15.600 -0.0084 -0.4738  0.4346
15514TIP3    H168033   0.281   6.288  15.658  1.3153 -0.1128  0.9822
15514TIP3    H268034   0.314   6.435  15.656 -1.5786  0.5754  0.0295
15515TIP3   OH268035   2.273   1.117   5.515 -0.4243 -0.1916 -0.0795
15515TIP3    H168036   2.254   1.208   5.537  0.0517 -0.3780  1.1467
15515TIP3    H268037   2.356   1.099   5.559 -1.0379 -1.5297  0.5575
15516TIP3   OH268038   5.333   6.645  12.868 -0.2734  0.1841  0.8577
15516TIP3    H168039   5.333   6.669  12.775 -2.5727 -0.7240  0.5890
15516TIP3    H268040   5.364   6.555  12.869  1.0696  0.6323  1.1331
15517TIP3   OH268041   5.744   1.596  13.995  0.4352  0.3390 -0.4006
15517TIP3    H168042   5.696   1.531  13.944 -0.4932  1.2410 -0.6974
15517TIP3    H268043   5.823   1.613  13.945  0.1398  0.2709 -0.8926
15518TIP3   OH268044   2.194   1.036   3.979 -0.3526  0.4345 -0.1007
15518TIP3    H168045   2.219   1.002   3.893 -1.4070 -0.2421 -0.1595
15518TIP3    H268046   2.160   0.959   4.025 -0.8543  1.0197  0.5043
15519TIP3   OH268047   4.555   6.563  11.268  0.2650 -0.4743 -0.5839
15519TIP3    H168048   4.537   6.478  11.307 -1.1101 -0.0623 -0.2905
15519TIP3    H268049   4.561   6.546  11.174 -0.5418 -0.8120 -0.5745
15520TIP3   OH268050   6.294   1.273   1.976  0.2389  0.6224  0.2185
15520TIP3    H168051   6.272   1.195   2.026  1.4938  0.2723  0.2298
15520TIP3    H268052   6.231   1.273   1.903  0.0224 -0.2139  0.4002
15521TIP3   OH268053   6.786   3.200   0.169  0.0362  0.4130  0.0586
15521TIP3    H168054   6.771   3.113   0.133 -0.2995  0.4595  0.0787
15521TIP3    H268055   6.698   3.239   0.173  0.2581  0.9754 -0.5167
15522TIP3   OH268056   0.499   5.810  11.337 -0.2948  0.3785  0.0361
15522TIP3    H168057   0.483   5.752  11.262 -1.0578 -0.2756  0.6904
15522TIP3    H268058   0.589   5.840  11.326 -0.5599  0.6779 -1.4128
15523TIP3   OH268059   5.390   3.747  11.772  0.0013 -0.9706 -0.6310
15523TIP3    H168060   5.311   3.697  11.752  0.3198 -2.3033  1.2322
15523TIP3    H268061   5.377   3.775  11.863  0.2469  1.5785 -1.3504
15524TIP3   OH268062   5.813   4.837  16.467 -0.5009 -0.5215  0.2487
15524TIP3    H168063   5.752   4.874  16.531 -1.5484 -1.5518 -0.1317
15524TIP3    H268064   5.900   4.858  16.501 -1.0514  2.1021  0.1475
15525TIP3   OH268065   4.193   2.423   0.387  0.0581 -0.0341  0.3734
15525TIP3    H168066   4.218   2.506   0.429 -2.4228  0.1306  1.6409
15525TIP3    H268067   4.146   2.375   0.455 -1.0284 -1.2695 -1.2000
15526TIP3   OH268068   6.262   4.434  13.627  0.2791 -0.4982 -0.1478
15526TIP3    H168069   6.306   4.357  13.590 -0.0063  0.5917 -2.9110
15526TIP3    H268070   6.184   4.398  13.669  0.7178 -1.8426 -0.4411
15527TIP3   OH268071   6.382   3.627   1.220  0.1239 -0.3150  0.4174
15527TIP3    H168072   6.297   3.633   1.263 -0.3115 -2.9035 -0.0378
15527TIP3    H268073   6.432   3.701   1.255 -1.8670  0.4684  1.6492
15528TIP3   OH268074   4.442   6.226  14.027 -0.6870 -0.6430  0.0696
15528TIP3    H168075   4.502   6.262  14.091 -0.4147  1.1482 -1.1579
15528TIP3    H268076   4.497   6.171  13.971 -0.4876 -0.2796 -0.0905
15529TIP3   OH268077   4.020   1.045  14.203 -0.4548  0.0270 -0.0821
15529TIP3    H168078   4.067   1.049  14.286  1.8473  0.9503 -1.3797
15529TIP3    H268079   4.016   1.136  14.173  0.5994 -0.5094 -1.9559
15530TIP3   OH268080   4.073   0.281   3.618 -0.0291  0.0035  0.0822
15530TIP3    H168081   4.015   0.204   3.619  0.6112 -0.4835  0.7694
15530TIP3    H268082   4.058   0.323   3.703  1.2061 -0.5853  0.6150
15531TIP3   OH268083   6.143   3.066   0.721  0.1853 -0.8476  0.5598
15531TIP3    H168084   6.232   3.096   0.741  0.8236 -3.7433  2.4107
15531TIP3    H268085   6.131   3.085   0.628  1.4491  2.6754  1.0655
15532TIP3   OH268086   2.419   5.664  13.507 -0.2169  0.6409  0.2463
15532TIP3    H168087   2.491   5.650  13.570 -1.0925  0.5558  1.2353
15532TIP3    H268088   2.463   5.697  13.428  0.9562  0.2253  0.7131
15533TIP3   OH268089   0.625   4.437  12.273  0.1000  0.3435  0.3125
15533TIP3    H168090   0.605   4.375  12.203 -0.7112  1.7949 -0.7744
15533TIP3    H268091   0.545   4.490  12.281  1.2638  2.1236  0.2698
15534TIP3   OH268092   6.115   4.279  12.673  0.7502 -0.1062 -0.0163
15534TIP3    H168093   6.081   4.219  12.607 -1.6290  0.7834  0.3488
15534TIP3    H268094   6.102   4.233  12.756 -0.0993  0.4603  0.1708
15535TIP3   OH268095   4.199   0.389  17.000 -0.2604 -0.4829  0.5761
15535TIP3    H168096   4.111   0.366  17.028 -0.7161  1.4179  0.8013
15535TIP3    H268097   4.233   0.445  17.070 -0.3883  2.0467 -1.2931
15536TIP3   OH268098   0.892   0.103  11.028  0.0053  0.2127 -0.4373
15536TIP3    H168099   0.981   0.133  11.046 -0.3307  1.6333 -1.0754
15536TIP3    H268100   0.902   0.045  10.952  0.4866 -0.3262  0.0260
15537TIP3   OH268101   0.786   1.768   6.531  0.1789  0.6208  0.1676
15537TIP3    H168102   0.816   1.753   6.621 -1.1648 -1.1900  0.3559
15537TIP3    H268103   0.859   1.739   6.476  0.0007 -0.7813  0.6538
15538TIP3   OH268104   4.691   6.334  15.899 -0.2013 -0.0328  0.2990
15538TIP3    H168105   4.709   6.392  15.973 -0.8649  0.5864 -0.0191
15538TIP3    H268106   4.618   6.279  15.928 -0.2563 -0.0010  0.2211
15539TIP3   OH268107   5.092   3.826   2.881  0.4775  0.2260  0.1638
15539TIP3    H168108   5.024   3.866   2.936  0.1023  0.0761 -0.1921
15539TIP3    H268109   5.141   3.900   2.846  1.2691  0.3096  1.3841
15540TIP3   OH268110   0.674   3.480  10.499 -0.3531 -0.5978  0.5929
15540TIP3    H168111   0.626   3.478  10.416 -1.9465 -0.7275  1.5099
15540TIP3    H268112   0.731   3.557  10.492 -1.2481 -0.0030 -0.1981
15541TIP3   OH268113   0.788   2.663   1.495  0.2088 -0.3347  0.8419
15541TIP3    H168114   0.845   2.592   1.524 -0.2761 -0.4410  1.5339
15541TIP3    H268115   0.750   2.631   1.413 -0.9154 -1.3720  1.7435
15542TIP3   OH268116   0.793   4.670  10.755 -0.0790  0.1994  0.2335
15542TIP3    H168117   0.887   4.675  10.735 -0.1337 -2.0562 -0.7084
15542TIP3    H268118   0.772   4.577  10.747 -1.9434  0.3781  2.6484
15543TIP3   OH268119   1.804   0.513   3.784 -0.6599 -1.4563  0.1459
15543TIP3    H168120   1.746   0.587   3.802  0.4772 -0.1415 -1.4006
15543TIP3    H268121   1.891   0.552   3.779 -0.0633 -2.8622 -0.8774
15544TIP3   OH268122   5.079   3.605   4.948 -0.3868  0.5407 -0.0532
15544TIP3    H168123   5.017   3.604   5.022 -0.9745  1.5655 -0.5236
15544TIP3    H268124   5.051   3.679   4.894  0.5747  0.3274 -0.8589
15545TIP3   OH268125   2.710   5.434  12.021  0.7529  0.0455  0.3974
15545TIP3    H168126   2.685   5.384  12.098  0.4890  0.1278  0.3641
15545TIP3    H268127   2.750   5.369  11.962  0.7535 -0.0556  0.5107
15546TIP3   OH268128   3.511   6.721  13.468  0.0688  0.2456  0.1031
15546TIP3    H168129   3.578   6.669  13.513 -0.7903 -0.8032  0.2044
15546TIP3    H268130   3.428   6.695  13.510 -0.6514 -0.1550 -1.5397
15547TIP3   OH268131   1.535   3.127   4.499  0.1950  0.6220  0.1557
15547TIP3    H168132   1.458   3.161   4.546 -1.3809  0.9306 -2.5344
15547TIP3    H268133   1.572   3.203   4.455  1.1790  0.1924  0.2277
15548TIP3   OH268134   4.734   0.197  16.546 -0.6099  0.2524 -0.1652
15548TIP3    H168135   4.772   0.280  16.516 -0.7720  0.5186  0.3780
15548TIP3    H268136   4.640   0.208  16.535 -0.6204  0.0631 -0.2768
15549TIP3   OH268137   2.833   4.631   2.460  0.1140 -0.9312 -0.7211
15549TIP3    H168138   2.764   4.633   2.394 -0.4944  2.0649 -0.0847
15549TIP3    H268139   2.900   4.691   2.425 -1.0343  2.1652  2.1248
15550TIP3   OH268140   3.856   2.804  10.579  0.3580  0.1414  0.1237
15550TIP3    H168141   3.910   2.822  10.503 -0.6927 -0.3211 -0.7365
15550TIP3    H268142   3.865   2.710  10.594  0.5222  0.2205  0.5551
15551TIP3   OH268143   1.384   3.367  11.827 -0.0935 -0.0004  0.3292
15551TIP3    H168144   1.395   3.402  11.916  0.3734 -0.6341  0.5252
15551TIP3    H268145   1.301   3.319  11.830 -0.0057 -0.1440  0.4628
15552TIP3   OH268146   1.676   6.365   4.379 -0.5216  0.6678  0.5633
15552TIP3    H168147   1.717   6.441   4.337 -1.7904  0.5257 -0.9782
15552TIP3    H268148   1.750   6.317   4.418  0.7359  0.7124 -1.6695
15553TIP3   OH268149   0.780   3.143  16.372  0.2280  0.5341 -0.9667
15553TIP3    H168150   0.773   3.232  16.408  0.2076  0.7024 -1.3826
15553TIP3    H268151   0.696   3.102  16.392  1.3649 -0.4738  2.0737
15554TIP3   OH268152   4.190   1.212  11.984 -0.3193 -0.4775  0.3636
15554TIP3    H168153   4.197   1.172  12.071  0.0142 -0.4739  0.3424
15554TIP3    H268154   4.281   1.227  11.958 -0.4447  0.3502  0.3978
15555TIP3   OH268155   4.947   0.883  15.050  0.0622  0.1543  0.2851
15555TIP3    H168156   5.029   0.839  15.027  1.2960  1.8045  1.3941
15555TIP3    H268157   4.879   0.822  15.022  1.6961 -2.0038  0.8340
15556TIP3   OH268158   6.617   4.847   4.554  0.5504  0.3548  0.4861
15556TIP3    H168159   6.680   4.879   4.489 -0.1131 -0.9404 -0.8356
15556TIP3    H268160   6.604   4.921   4.613  3.2525  0.6509  0.7659
15557TIP3   OH268161   0.292   1.877  12.451 -0.3546 -0.3803  0.3068
15557TIP3    H168162   0.318   1.851  12.362  2.1630 -0.7235  1.1092
15557TIP3    H268163   0.223   1.815  12.474 -1.0813 -0.2563 -1.4272
15558TIP3   OH268164   6.670   6.332  11.482 -0.1885  0.1614 -0.2362
15558TIP3    H168165   6.631   6.401  11.535  0.9512  0.3478  0.3726
15558TIP3    H268166   6.658   6.361  11.392 -1.9081 -0.0393 -0.0862
15559TIP3   OH268167   6.112   3.316   0.924 -0.0099 -0.9255  0.0307
15559TIP3    H168168   6.108   3.251   0.854 -1.7487  0.8720 -1.6010
15559TIP3    H268169   6.021   3.341   0.939  0.6166  1.0146  0.7579
15560TIP3   OH268170   2.444   2.589  14.521  0.0370 -0.1209 -0.1793
15560TIP3    H168171   2.515   2.600  14.458  0.5934 -1.4304  0.2044
15560TIP3    H268172   2.486   2.603  14.606 -0.8878  2.5213 -0.0981
15561TIP3   OH268173   1.229   2.365   5.689  0.2999 -0.3908 -0.7709
15561TIP3    H168174   1.134   2.373   5.679  0.2632 -0.1854 -0.2750
15561TIP3    H268175   1.243   2.368   5.784  0.7557 -0.9511 -0.8172
15562TIP3   OH268176   6.299   5.064   1.548 -0.3485  0.1416 -0.1369
15562TIP3    H168177   6.305   5.053   1.454  2.4899  0.7893 -0.0708
15562TIP3    H268178   6.293   4.975   1.583 -0.6520 -0.1286 -0.8686
15563TIP3   OH268179   5.608   3.518   3.441  0.4317  0.3515  0.0526
15563TIP3    H168180   5.663   3.496   3.515  1.5920 -2.5308 -1.5709
15563TIP3    H268181   5.549   3.443   3.431 -0.7242  1.3540 -1.0330
15564TIP3   OH268182   6.378   2.750   5.777 -0.0149  0.6896  0.0277
15564TIP3    H168183   6.285   2.769   5.768 -0.3456 -0.6403  0.6028
15564TIP3    H268184   6.422   2.828   5.741 -1.3217  0.1895 -2.7851
15565TIP3   OH268185   3.474   5.525   4.060 -0.3170  0.8492 -0.9027
15565TIP3    H168186   3.489   5.431   4.071  0.1091  1.1372  1.1639
15565TIP3    H268187   3.389   5.531   4.016 -0.0454 -0.5125 -1.6251
15566TIP3   OH268188   3.712   1.401  15.768 -0.0776  0.5980  0.0032
15566TIP3    H168189   3.629   1.445  15.749 -0.1035  1.4584  1.9288
15566TIP3    H268190   3.720   1.407  15.863  2.6833  1.4128 -0.2484
15567TIP3   OH268191   4.398   6.593   1.291 -0.3600 -0.0324  0.4135
15567TIP3    H168192   4.382   6.519   1.350  0.1766  1.0937  1.9928
15567TIP3    H268193   4.472   6.565   1.237 -0.2772 -0.7151  0.8790
15568TIP3   OH268194   6.322   0.929   1.385 -0.3082 -0.4911 -0.3340
15568TIP3    H168195   6.259   0.962   1.320 -0.7863  0.6531  0.6831
15568TIP3    H268196   6.279   0.943   1.469 -0.8461 -4.4981  0.1551
15569TIP3   OH268197   1.971   4.714   0.983 -0.6264 -0.2714  0.1546
15569TIP3    H168198   2.021   4.645   1.027 -0.7961  0.0025  0.7858
15569TIP3    H268199   1.957   4.780   1.051  0.6166  0.9671 -0.7745
15570TIP3   OH268200   5.768   2.210   0.945 -0.2566  0.0335  0.4339
15570TIP3    H168201   5.694   2.202   1.005 -0.2869 -4.0582  0.0108
15570TIP3    H268202   5.844   2.222   1.002 -1.0277  2.6993  0.9401
15571TIP3   OH268203   4.323   0.593   4.730  0.5360 -0.3761 -0.4754
15571TIP3    H168204   4.299   0.549   4.649 -0.6438 -1.8593  0.6396
15571TIP3    H268205   4.417   0.579   4.738  0.8218  0.5498 -2.0152
15572TIP3   OH268206   4.500   4.916  15.894  0.2774 -0.9159  0.1884
15572TIP3    H168207   4.415   4.944  15.862  0.3309  0.6080  1.3182
15572TIP3    H268208   4.496   4.930  15.989  2.3167  0.6679  0.0821
15573TIP3   OH268209   0.017   5.613   2.233 -0.2187 -0.4752  0.5270
15573TIP3    H168210   0.100   5.572   2.213 -0.1842  0.3575 -1.1388
15573TIP3    H268211  -0.036   5.602   2.153 -1.0136  0.6522  0.8717
15574TIP3   OH268212   1.282   5.477   2.624  0.8168  0.6177 -0.7634
15574TIP3    H168213   1.289   5.382   2.616 -0.9086  0.5994 -2.3557
15574TIP3    H268214   1.347   5.500   2.690  1.2535 -1.6615 -0.3524
15575TIP3   OH268215   3.708   4.117   5.400  0.0545 -0.6013 -0.6878
15575TIP3    H168216   3.793   4.157   5.422  0.8435 -0.9880 -2.8969
15575TIP3    H268217   3.670   4.094   5.485  1.3497  1.2275  0.4266
15576TIP3   OH268218   3.599   5.759  13.711 -0.2669  1.1969 -0.3241
15576TIP3    H168219   3.630   5.845  13.741  1.0039  0.7930 -0.4833
15576TIP3    H268220   3.585   5.770  13.617  0.0872  1.1686 -0.3788
15577TIP3   OH268221   1.982   2.050   2.821 -0.3562 -0.4136  0.9514
15577TIP3    H168222   1.992   2.075   2.913  1.4255  0.4620  0.5411
15577TIP3    H268223   1.936   2.124   2.781 -0.4130 -0.4371  0.9734
15578TIP3   OH268224   4.262   2.495  10.860  0.0106 -0.2744  0.6415
15578TIP3    H168225   4.353   2.465  10.860 -0.5498 -2.0406  0.2391
15578TIP3    H268226   4.231   2.478  10.771 -0.2974  1.6846  0.3522
15579TIP3   OH268227   2.530   4.846   5.910  0.6425 -0.6106  0.3672
15579TIP3    H168228   2.556   4.857   5.819  1.8745 -0.6315  0.7106
15579TIP3    H268229   2.440   4.879   5.914  0.5085 -0.8367 -0.9017
15580TIP3   OH268230   3.495   5.157  15.477  0.5089  0.0977  0.0803
15580TIP3    H168231   3.576   5.200  15.506  1.1107 -0.9990  0.0366
15580TIP3    H268232   3.511   5.136  15.385  0.3396 -0.5075  0.1875
15581TIP3   OH268233   0.079   3.716  15.141  0.5083 -0.0400  0.0010
15581TIP3    H168234  -0.002   3.762  15.119  1.1050  1.5953  1.0689
15581TIP3    H268235   0.103   3.668  15.062 -2.1380 -1.5204  0.0584
15582TIP3   OH268236   2.990   6.775   3.122  0.1056 -0.4280  0.2822
15582TIP3    H168237   2.905   6.731   3.120 -0.4035  0.4786  1.1720
15582TIP3    H268238   3.053   6.706   3.143 -0.3157 -1.2340 -1.0436
15583TIP3   OH268239   1.378   4.325  12.921  0.2253 -0.3337  0.4558
15583TIP3    H168240   1.294   4.285  12.900  0.1080  0.2525 -0.2113
15583TIP3    H268241   1.412   4.273  12.993  0.5444 -2.2655 -1.0480
15584TIP3   OH268242   3.484   0.975   3.423  0.5479  0.1976 -0.2667
15584TIP3    H168243   3.523   1.011   3.502  0.7325  0.0294 -0.2822
15584TIP3    H268244   3.526   1.022   3.351  1.0964 -0.3376 -0.3058
15585TIP3   OH268245   6.257   2.479   4.231  0.0063 -0.1937 -0.5020
15585TIP3    H168246   6.214   2.433   4.303  1.3468 -2.3165 -0.9962
15585TIP3    H268247   6.330   2.525   4.272 -1.1489  1.2986 -0.0545
15586TIP3   OH268248   0.329   1.083  14.672  0.1054  0.0165 -0.0566
15586TIP3    H168249   0.347   1.011  14.610  1.8927  0.7181 -0.3940
15586TIP3    H268250   0.320   1.160  14.616  0.1242  0.3807  0.4480
15587TIP3   OH268251   4.977   3.292   5.941 -0.5075  0.2308  0.7037
15587TIP3    H168252   4.942   3.314   6.027  0.1922  0.1351  1.0174
15587TIP3    H268253   5.032   3.215   5.956  2.0784  2.0239  0.7321
15588TIP3   OH268254   3.755   2.336  14.889  0.2277  0.1177 -0.1190
15588TIP3    H168255   3.782   2.428  14.896  0.3036  0.0889 -0.0376
15588TIP3    H268256   3.663   2.336  14.914  0.0261  0.2883 -0.8467
15589TIP3   OH268257   2.060   6.759  14.208  0.0716  0.4564  0.1650
15589TIP3    H168258   2.021   6.675  14.184  1.1009  0.2174 -0.7125
15589TIP3    H268259   2.006   6.824  14.161 -0.7145  0.2889  0.8352
15590TIP3   OH268260   3.239   3.981  14.596  0.1116  0.1961  0.6188
15590TIP3    H168261   3.282   3.937  14.523 -1.7912 -0.5805 -0.0617
15590TIP3    H268262   3.258   4.074  14.582  2.9912 -0.2429  1.3021
15591TIP3   OH268263   5.408   3.496  14.947 -0.3890 -0.4178  0.3266
15591TIP3    H168264   5.380   3.586  14.930  0.6198  0.4499  2.9736
15591TIP3    H268265   5.339   3.459  15.002  1.1397  0.1065  2.6739
15592TIP3   OH268266   2.043   1.179   3.103 -0.1002  0.0141 -0.5352
15592TIP3    H168267   2.039   1.136   3.018  0.2147 -1.0947  0.0032
15592TIP3    H268268   2.098   1.122   3.156 -0.8897  0.3229  0.6296
15593TIP3   OH268269   2.173   0.195   5.516  0.5304 -0.5308 -0.0488
15593TIP3    H168270   2.159   0.159   5.604  0.0193 -2.2500 -0.8013
15593TIP3    H268271   2.096   0.165   5.466 -0.3578  2.3600 -0.5070
15594TIP3   OH268272   0.123   3.721  11.118  0.1263  0.1059  0.2329
15594TIP3    H168273   0.098   3.644  11.067 -0.1038  0.3434 -0.0173
15594TIP3    H268274   0.044   3.774  11.121  0.4789  0.6688 -0.2105
15595TIP3   OH268275   6.358   4.768   0.367 -0.1522  0.3827  0.0529
15595TIP3    H168276   6.391   4.754   0.455 -0.1137  1.2354  0.1781
15595TIP3    H268277   6.354   4.863   0.358 -0.8277  0.2951 -0.6088
15596TIP3   OH268278   0.220   6.516   3.892 -0.2684 -0.4100 -0.3242
15596TIP3    H168279   0.206   6.529   3.798 -1.6092 -1.0441 -0.2288
15596TIP3    H268280   0.198   6.424   3.906 -0.4017 -0.2250  0.6750
15597TIP3   OH268281   2.884   6.798   0.385 -0.2144 -0.0506  0.0301
15597TIP3    H168282   2.884   6.710   0.423  0.9016 -0.2893 -0.5080
15597TIP3    H268283   2.943   6.848   0.441  1.8050 -0.5238 -1.6156
15598TIP3   OH268284   5.956   5.425  14.457  0.1661 -0.1335 -0.1446
15598TIP3    H168285   5.937   5.494  14.393  1.2351  2.3223  2.1090
15598TIP3    H268286   6.047   5.402  14.442  1.0212  1.8762  1.7561
15599TIP3   OH268287   4.507   0.262  13.655 -0.6088  0.2064  0.1631
15599TIP3    H168288   4.571   0.191  13.658 -0.9446 -0.1682 -1.0574
15599TIP3    H268289   4.436   0.232  13.712 -0.1204  0.1940  0.7650
15600TIP3   OH268290   6.204   2.394  12.681  0.6160  0.5946 -0.5267
15600TIP3    H168291   6.212   2.487  12.661  0.5221  0.5507 -0.7627
15600TIP3    H268292   6.250   2.350  12.609  1.0203  0.4767 -0.1980
15601TIP3   OH268293   0.379   2.071   5.503 -0.4575 -0.1352  0.0673
15601TIP3    H168294   0.317   2.135   5.538  0.4602  0.4579  0.6166
15601TIP3    H268295   0.379   2.000   5.568 -0.4928 -0.0989  0.1068
15602TIP3   OH268296   0.366   6.429  16.293  0.4192  0.1794 -0.7287
15602TIP3    H168297   0.404   6.373  16.360 -0.0409 -0.9597 -1.3971
15602TIP3    H268298   0.439   6.484  16.263  0.8300  0.0647  0.0578
15603TIP3   OH268299   1.102   5.456   4.766 -0.2562 -0.4253  0.1683
15603TIP3    H168300   1.097   5.441   4.672  2.4915 -0.3744 -0.0261
15603TIP3    H268301   1.023   5.506   4.787 -1.1924 -0.9562 -1.9898
15604TIP3   OH268302   3.268   6.087  13.064 -0.0080 -0.8167 -0.1823
15604TIP3    H168303   3.186   6.055  13.027  0.4885 -1.0934 -1.0369
15604TIP3    H268304   3.289   6.165  13.013 -0.9439  0.6323  1.5573
15605TIP3   OH268305   0.075   6.084  16.934  0.5823 -0.1245 -0.0844
15605TIP3    H168306   0.155   6.136  16.922  0.8353 -0.4882  0.0209
15605TIP3    H268307   0.076   6.061  17.027  0.0644  0.3447  0.0419
15606TIP3   OH268308   0.901   2.434  14.487 -0.2619  0.1282  0.0758
15606TIP3    H168309   0.900   2.381  14.566 -0.6267 -1.0241 -0.6736
15606TIP3    H268310   0.989   2.472  14.484  0.4942 -1.6009 -0.1165
15607TIP3   OH268311   2.393   3.762  10.945 -0.3220  0.5620 -0.8050
15607TIP3    H168312   2.448   3.702  10.894  2.0003  2.0648 -0.1174
15607TIP3    H268313   2.400   3.846  10.900  1.5207  1.8354  1.7413
15608TIP3   OH268314   2.541   3.134  15.840  0.1864  0.4508 -0.5762
15608TIP3    H168315   2.499   3.105  15.921  0.5284 -1.7022 -1.1426
15608TIP3    H268316   2.628   3.163  15.867  0.2807 -0.2121 -0.1441
15609TIP3   OH268317   2.807   1.710  15.132  0.0615 -0.1399 -0.2357
15609TIP3    H168318   2.891   1.756  15.142  0.3501 -0.6726 -0.2111
15609TIP3    H268319   2.811   1.671  15.045  0.2729 -1.0411  0.1699
15610TIP3   OH268320   5.307   2.834   2.771 -0.1320  0.0837 -0.3796
15610TIP3    H168321   5.306   2.905   2.836 -1.4228  0.0144 -0.3062
15610TIP3    H268322   5.214   2.817   2.753  0.0916 -2.7499  0.8828
15611TIP3   OH268323   5.091   6.438   2.777  0.2636 -0.1030 -0.4033
15611TIP3    H168324   5.136   6.440   2.692  3.0783  0.5936  1.0185
15611TIP3    H268325   4.999   6.454   2.756  1.0033  0.7919 -3.2528
15612TIP3   OH268326   2.503   2.355  17.241 -0.3550  0.1835 -0.9940
15612TIP3    H168327   2.445   2.280  17.232 -0.4920  0.4765 -2.9374
15612TIP3    H268328   2.500   2.398  17.155  3.2782 -0.2104 -1.4149
15613TIP3   OH268329   2.018   1.988   2.202  0.1596 -0.3493  0.3713
15613TIP3    H168330   1.980   2.070   2.233  0.0943 -0.4505  0.5610
15613TIP3    H268331   2.098   2.014   2.157 -0.3439 -0.1018 -0.3878
15614TIP3   OH268332   4.790   0.506   0.906 -0.6083  0.7562 -0.3035
15614TIP3    H168333   4.849   0.475   0.837 -0.4967  1.0188 -0.3263
15614TIP3    H268334   4.843   0.500   0.986 -0.2557  1.8463 -0.4542
15615TIP3   OH268335   1.023   4.425   2.381 -0.2938 -0.3467  0.1290
15615TIP3    H168336   1.095   4.373   2.417 -0.5560 -0.7172  0.1180
15615TIP3    H268337   0.950   4.410   2.441 -0.3525  0.0594  0.1607
15616TIP3   OH268338   6.522   1.325   0.167 -0.6081 -0.5608 -0.0932
15616TIP3    H168339   6.617   1.319   0.163 -0.6729 -0.7925 -1.1962
15616TIP3    H268340   6.503   1.417   0.150 -0.5929 -0.5411 -0.0047
15617TIP3   OH268341   3.068   0.055  14.837  0.3779  0.0065  0.1977
15617TIP3    H168342   3.129   0.122  14.804  0.1281 -0.3475 -1.0239
15617TIP3    H268343   3.108   0.023  14.917  0.0226  2.3169  1.3318
15618TIP3   OH268344   0.231   4.939   0.705  0.1369 -0.1653 -0.5358
15618TIP3    H168345   0.164   4.979   0.761 -0.1059 -0.3734 -0.6762
15618TIP3    H268346   0.304   5.001   0.707  0.3973 -0.4955  0.5631
15619TIP3   OH268347   2.154   0.084   1.055 -0.1349 -0.9574  0.3522
15619TIP3    H168348   2.242   0.060   1.026 -0.1530 -1.1581  0.4640
15619TIP3    H268349   2.167   0.152   1.121 -0.1009 -0.3362 -0.2811
15620TIP3   OH268350   6.052   4.547  12.483  0.1539 -0.2330 -0.1951
15620TIP3    H168351   5.974   4.493  12.471 -0.4895  0.4355  0.8410
15620TIP3    H268352   6.023   4.617  12.542  0.8185  1.5817 -1.9864
15621TIP3   OH268353   5.978   1.488  11.370  0.4977 -0.1998  0.0652
15621TIP3    H168354   6.010   1.539  11.296 -1.2108  0.2432 -0.3924
15621TIP3    H268355   5.960   1.553  11.438  1.0490 -0.4906  0.4873
15622TIP3   OH268356   5.432   0.384  15.759 -0.0406 -0.1215  0.3275
15622TIP3    H168357   5.462   0.413  15.845 -1.5571  0.3357  0.7322
15622TIP3    H268358   5.344   0.350  15.775 -0.1408 -0.5099 -0.9628
15623TIP3   OH268359   6.668   3.495  15.120  0.4513  0.5486  0.0628
15623TIP3    H168360   6.710   3.409  15.120 -1.4622 -0.4002 -0.6824
15623TIP3    H268361   6.720   3.547  15.059  2.9722  0.6437  2.1773
15624TIP3   OH268362   2.337   6.766  14.306  0.1435  0.0754 -0.1309
15624TIP3    H168363   2.351   6.849  14.351  0.3824  0.1231 -0.2927
15624TIP3    H268364   2.244   6.766  14.284 -0.0525 -0.1001  0.6620
15625TIP3   OH268365   4.999   0.637   2.925  0.7552 -0.6066  0.1070
15625TIP3    H168366   4.933   0.616   2.990  0.0547 -2.1971 -1.0841
15625TIP3    H268367   4.952   0.687   2.858  1.3135  0.3897  0.4400
15626TIP3   OH268368   2.596   3.225   0.916 -0.7324 -0.1343 -0.2484
15626TIP3    H168369   2.662   3.176   0.866 -1.0937 -1.2217  0.3210
15626TIP3    H268370   2.513   3.202   0.874 -0.9935 -0.7273  0.5853
15627TIP3   OH268371   4.052   6.135  11.401  0.0233 -0.1340  0.3646
15627TIP3    H168372   4.063   6.160  11.309 -0.5409  0.7089  0.5219
15627TIP3    H268373   3.978   6.186  11.432  0.3557 -0.2309  1.3644
15628TIP3   OH268374   2.884   6.671   4.763  0.0528 -0.2157 -0.5411
15628TIP3    H168375   2.911   6.615   4.690 -1.5751  0.2846 -1.5404
15628TIP3    H268376   2.898   6.761   4.731 -2.1158  0.0457 -0.8432
15629TIP3   OH268377   4.001   0.420  12.192  0.1053  0.6849  0.3108
15629TIP3    H168378   3.992   0.404  12.286 -0.5890 -1.7924 -0.1612
15629TIP3    H268379   4.054   0.348  12.160 -3.2197 -0.8981 -1.9021
15630TIP3   OH268380   3.001   1.898   6.298 -0.6757  0.2127  0.1035
15630TIP3    H168381   2.932   1.896   6.364  0.4047 -3.1491  1.1909
15630TIP3    H268382   2.982   1.824   6.241  0.1009  1.3327 -1.6730
15631TIP3   OH268383   3.852   3.745  14.266 -0.3471  0.6606  0.2726
15631TIP3    H168384   3.789   3.673  14.258 -0.7649  1.0133  0.3302
15631TIP3    H268385   3.878   3.745  14.358  0.5874 -0.1856  0.0186
15632TIP3   OH268386   3.505   4.495  11.677  0.1604 -0.0292 -0.4814
15632TIP3    H168387   3.493   4.513  11.584 -0.6040  0.5719 -0.2697
15632TIP3    H268388   3.593   4.529  11.697 -0.1857  0.9963 -0.6981
15633TIP3   OH268389   5.791   0.316   5.606  0.4494  0.2294 -0.0908
15633TIP3    H168390   5.738   0.311   5.685 -0.7726 -2.0635 -1.0055
15633TIP3    H268391   5.877   0.283   5.633  0.1581 -0.1697  0.3546
15634TIP3   OH268392   0.728   5.638  14.056 -0.1834 -0.3575  0.4169
15634TIP3    H168393   0.679   5.636  14.138 -0.0671 -0.0752  0.4948
15634TIP3    H268394   0.661   5.632  13.988 -0.4692  1.5936  0.4902
15635TIP3   OH268395   1.194   4.107  13.108  0.0559 -0.0473 -0.5492
15635TIP3    H168396   1.175   4.123  13.015  0.4827  1.1738 -0.4387
15635TIP3    H268397   1.116   4.064  13.141 -0.0560 -0.6009 -1.5044
15636TIP3   OH268398   6.180   0.198   1.547  0.5690 -0.2595  0.1455
15636TIP3    H168399   6.114   0.213   1.479  0.9254  1.4975  0.1634
15636TIP3    H268400   6.235   0.128   1.512 -0.4671 -0.7590 -0.4900
15637TIP3   OH268401   1.474   3.125  16.606  0.5002 -0.0164 -0.5406
15637TIP3    H168402   1.551   3.178  16.627  0.0494  0.4654 -0.0980
15637TIP3    H268403   1.401   3.186  16.608 -0.0347 -0.6594  0.0573
15638TIP3   OH268404   4.625   4.577   5.362 -0.3885 -0.1541 -0.5899
15638TIP3    H168405   4.670   4.602   5.443  0.7224 -2.3902 -0.4662
15638TIP3    H268406   4.577   4.656   5.336  0.1005  0.9351  1.6505
15639TIP3   OH268407   2.531   1.848  13.520 -0.9284  0.4297  0.5598
15639TIP3    H168408   2.579   1.930  13.507  0.5236 -0.7283 -1.8074
15639TIP3    H268409   2.536   1.831  13.614 -0.9201  2.8356  1.0234
15640TIP3   OH268410   5.323   3.838   5.611 -0.2749  0.1267  0.3559
15640TIP3    H168411   5.326   3.745   5.589  0.2076  0.2870 -0.2873
15640TIP3    H268412   5.409   3.872   5.587 -1.3675  1.3045 -2.1328
15641TIP3   OH268413   5.130   3.530   5.890 -0.6974 -0.4356  0.4818
15641TIP3    H168414   5.103   3.610   5.935  0.7412  0.1524  0.3411
15641TIP3    H268415   5.065   3.464   5.915 -0.5990  0.1870  2.4201
15642TIP3   OH268416   1.245   1.186   3.320  0.2291  0.1220  0.4585
15642TIP3    H168417   1.249   1.224   3.232 -1.5702 -1.3395 -0.2783
15642TIP3    H268418   1.274   1.256   3.378  0.6963  1.3437 -1.2187
15643TIP3   OH268419   3.450   3.714  13.926  0.3167  0.0419  0.3159
15643TIP3    H168420   3.453   3.683  13.835 -0.8680  0.3447  0.1724
15643TIP3    H268421   3.463   3.635  13.979  1.3003 -0.0918 -0.1157
15644TIP3   OH268422   4.876   2.109  12.638  0.0484 -0.2645 -0.5986
15644TIP3    H168423   4.953   2.159  12.664  0.5136 -0.2511 -1.9722
15644TIP3    H268424   4.867   2.041  12.704  1.6501 -0.7014 -0.8209
15645TIP3   OH268425   2.564   5.667   3.194 -0.4512 -0.0806 -0.0737
15645TIP3    H168426   2.639   5.718   3.225  0.0317 -0.2104 -1.0189
15645TIP3    H268427   2.488   5.716   3.225 -0.0230 -1.6824  3.7952
15646TIP3   OH268428   3.793   3.619  15.541 -0.1102  0.4229  0.1122
15646TIP3    H168429   3.712   3.591  15.498  0.1027  0.4022 -0.2752
15646TIP3    H268430   3.766   3.644  15.630 -0.8761  2.3351 -0.6328
15647TIP3   OH268431   2.906   0.348   1.450  0.4505  0.1229  0.1494
15647TIP3    H168432   2.820   0.368   1.487  0.0205  2.2071 -1.8519
15647TIP3    H268433   2.942   0.434   1.427  2.9317 -0.7616  0.6861
15648TIP3   OH268434   5.679   3.418  11.643 -0.0258 -0.2020  0.3279
15648TIP3    H168435   5.663   3.330  11.678 -0.2065  0.5636  2.2245
15648TIP3    H268436   5.733   3.461  11.709  0.7294  0.8625 -0.9544
15649TIP3   OH268437   3.498   0.729  12.793 -0.0645  0.2811 -0.1355
15649TIP3    H168438   3.466   0.681  12.717 -1.7842  0.3543  0.5172
15649TIP3    H268439   3.570   0.676  12.826 -1.5817 -1.6034  0.2561
15650TIP3   OH268440   2.112   1.213   1.401  0.1174 -0.5953 -0.0081
15650TIP3    H168441   2.205   1.230   1.415  0.6015 -0.0396 -3.4385
15650TIP3    H268442   2.108   1.124   1.367 -0.3270  0.2246 -2.1897
15651TIP3   OH268443   0.700   6.415  13.562 -0.3634 -0.4158 -0.0660
15651TIP3    H168444   0.765   6.394  13.629  1.3101  2.9291 -0.5477
15651TIP3    H268445   0.732   6.369  13.483  1.1702  0.7670 -0.1631
15652TIP3   OH268446   3.330   0.855   2.359  0.1490 -0.6099  0.6951
15652TIP3    H168447   3.266   0.890   2.420 -0.2803 -2.3339  1.2709
15652TIP3    H268448   3.280   0.840   2.278  0.6569  1.4218 -0.0148
15653TIP3   OH268449   5.428   2.882  11.146 -0.2850  0.4439 -0.8195
15653TIP3    H168450   5.492   2.915  11.210 -3.3310 -0.0351  2.6610
15653TIP3    H268451   5.426   2.788  11.161 -0.0628  0.1399 -2.6283
15654TIP3   OH268452   0.510   4.601  11.192  0.0372  0.5490  0.3009
15654TIP3    H168453   0.583   4.633  11.244  0.4350  0.7705 -0.3907
15654TIP3    H268454   0.442   4.667  11.203  0.5295  1.1757 -0.3815
15655TIP3   OH268455   5.342   4.549  16.725  0.7630  0.0057  0.4322
15655TIP3    H168456   5.402   4.598  16.781  1.0858  0.9994 -0.7569
15655TIP3    H268457   5.398   4.487  16.679  1.0445  1.5337 -1.3362
15656TIP3   OH268458   5.498   4.710   3.390 -0.3362 -0.2315  0.8424
15656TIP3    H168459   5.470   4.774   3.325  0.4691 -1.0177 -0.3077
15656TIP3    H268460   5.450   4.631   3.368 -2.0084  0.2047  2.8166
15657TIP3   OH268461   2.602   4.836  14.584  0.0855 -0.3933 -0.2423
15657TIP3    H168462   2.519   4.831  14.538 -0.6159 -2.8936  1.2338
15657TIP3    H268463   2.668   4.814  14.518 -0.4554  0.8833 -1.2278
15658TIP3   OH268464   2.345   3.064   5.228 -0.7560 -0.4320  0.3899
15658TIP3    H168465   2.439   3.085   5.224 -0.6375 -0.7361  1.3713
15658TIP3    H268466   2.336   3.009   5.305 -2.1581  1.8303  1.9073
15659TIP3   OH268467   1.634   4.219  12.356  0.6154  0.0393 -0.2997
15659TIP3    H168468   1.696   4.157  12.317  1.4036  1.2797 -1.0199
15659TIP3    H268469   1.610   4.277  12.284 -2.1306 -1.0024 -0.2895
15660TIP3   OH268470   4.253   5.043   1.063 -0.0992  0.1846  0.3964
15660TIP3    H168471   4.346   5.019   1.063 -0.0065  0.4275 -2.6336
15660TIP3    H268472   4.252   5.138   1.067 -0.2194  0.1924  0.1770
15661TIP3   OH268473   2.184   3.087  10.625 -0.3892  0.0132 -0.2748
15661TIP3    H168474   2.188   3.048  10.537  2.5372  0.1578 -0.2468
15661TIP3    H268475   2.181   3.181  10.610 -3.1889 -0.0289 -0.2453
15662TIP3   OH268476   4.971   0.663  11.144  0.4854  0.6823 -0.3105
15662TIP3    H168477   4.992   0.654  11.237 -0.7654 -0.5463 -0.1240
15662TIP3    H268478   5.007   0.747  11.119  0.1361  1.3951  1.5001
15663TIP3   OH268479   5.439   3.381  11.287  0.4275  0.0609 -0.5721
15663TIP3    H168480   5.516   3.365  11.233  0.0063  0.1492 -1.2004
15663TIP3    H268481   5.405   3.294  11.307  0.3998  0.0429 -0.7031
15664TIP3   OH268482   6.527   3.432  16.142  0.1918 -0.3745 -0.0253
15664TIP3    H168483   6.527   3.426  16.046  2.0749  0.5027 -0.1063
15664TIP3    H268484   6.542   3.524  16.160  1.3654 -0.7749  1.1098
15665TIP3   OH268485   2.130   3.648   4.533 -0.1274 -0.0835 -0.0048
15665TIP3    H168486   2.164   3.568   4.572 -1.7772 -2.0970 -2.5126
15665TIP3    H268487   2.204   3.709   4.534  0.9582 -1.3775  2.5615
15666TIP3   OH268488   5.837   0.306  12.043 -0.2784 -0.1620 -0.2705
15666TIP3    H168489   5.775   0.300  11.970 -0.1530  2.1304 -0.6207
15666TIP3    H268490   5.921   0.284  12.004 -0.0101  2.3155 -1.1585
15667TIP3   OH268491   5.583   0.927   5.173  0.0592 -0.3501  0.8352
15667TIP3    H168492   5.578   0.871   5.250  0.7020 -1.5180  0.0478
15667TIP3    H268493   5.498   0.915   5.128  0.4066 -1.1261  0.3792
15668TIP3   OH268494   0.487   2.776  12.563  0.5022 -0.0626  0.0357
15668TIP3    H168495   0.473   2.689  12.600 -0.0654  0.1162  0.2421
15668TIP3    H268496   0.451   2.837  12.628 -0.9143  0.2274 -0.9968
15669TIP3   OH268497   3.810   1.625   3.081 -0.5327  0.3178  0.1727
15669TIP3    H168498   3.783   1.537   3.055 -0.5650  0.4103 -0.1122
15669TIP3    H268499   3.829   1.618   3.175  2.2697 -0.6500 -0.4452
15670TIP3   OH268500   1.694   5.509  13.675 -0.2703  0.2844 -0.2076
15670TIP3    H168501   1.741   5.478  13.752  0.6230 -0.2664 -0.9641
15670TIP3    H268502   1.630   5.571  13.710 -0.3951 -0.5287  1.0521
15671TIP3   OH268503   3.526   1.226  14.229  0.2313 -0.5072  0.5451
15671TIP3    H168504   3.552   1.313  14.260 -0.5569 -0.3566  0.7882
15671TIP3    H268505   3.460   1.244  14.162  1.9336 -0.8215 -1.2602
15672TIP3   OH268506   2.694   3.350  16.230  0.2777 -0.3782  1.0036
15672TIP3    H168507   2.686   3.442  16.255 -0.5304  0.0972 -0.9186
15672TIP3    H268508   2.631   3.304  16.285 -1.0038  0.5613  0.3451
15673TIP3   OH268509   4.072   6.564   1.864  0.5557 -0.1879  0.0698
15673TIP3    H168510   4.009   6.562   1.792 -0.9930 -0.7237  1.4154
15673TIP3    H268511   4.137   6.630   1.838 -0.7706  0.6511 -1.1454
15674TIP3   OH268512   0.511   3.665   4.601  0.2686 -0.1236  0.1335
15674TIP3    H168513   0.576   3.623   4.545  0.5401  0.4510  0.0144
15674TIP3    H268514   0.428   3.654   4.553  0.6155  1.0192 -0.7475
15675TIP3   OH268515   0.851   1.835  15.909  0.1441 -0.2944  0.4547
15675TIP3    H168516   0.918   1.803  15.969  1.8798 -0.8858 -1.7722
15675TIP3    H268517   0.809   1.756  15.875  0.7725 -0.0346 -0.9297
15676TIP3   OH268518   3.345   3.566   2.436  0.1988  0.5713 -0.6036
15676TIP3    H168519   3.340   3.504   2.362  0.0257  0.8182 -0.7994
15676TIP3    H268520   3.365   3.650   2.395  3.1018  0.1632 -0.1157
15677TIP3   OH268521   6.257   0.267  13.433 -0.0898  0.2082 -0.1894
15677TIP3    H168522   6.303   0.222  13.362 -0.2398  0.0998 -0.2181
15677TIP3    H268523   6.285   0.358  13.426 -0.6186  0.3292 -0.8093
15678TIP3   OH268524   6.248   3.824  15.701  0.3775  0.4925  0.0780
15678TIP3    H168525   6.338   3.790  15.696  0.2661  0.4122 -1.4627
15678TIP3    H268526   6.243   3.866  15.787  1.7619  0.1174  0.3476
15679TIP3   OH268527   3.345   1.550   4.743 -0.1829  0.1693  0.1283
15679TIP3    H168528   3.328   1.642   4.727 -0.3946  0.0753 -0.1924
15679TIP3    H268529   3.259   1.508   4.739  0.2990 -0.6931 -4.0456
15680TIP3   OH268530   2.557   5.636  15.667 -0.4123  0.5232 -0.5953
15680TIP3    H168531   2.603   5.592  15.595 -0.8987 -1.1441  0.1004
15680TIP3    H268532   2.528   5.719  15.629 -0.6365 -0.3203 -2.3244
15681TIP3   OH268533   3.939   3.924   4.176  0.2542  0.0142 -0.0995
15681TIP3    H168534   3.919   3.951   4.087  0.0874 -1.0161 -0.3904
15681TIP3    H268535   4.034   3.938   4.185  0.4516 -0.8350 -0.7880
15682TIP3   OH268536   4.955   4.154  14.495 -0.1208 -0.4081 -0.7949
15682TIP3    H168537   4.881   4.096  14.477 -1.0651  0.5547 -0.1264
15682TIP3    H268538   4.958   4.161  14.591 -0.8366  1.6248 -0.8876
15683TIP3   OH268539   2.760   2.266  17.110  0.0216  0.1534 -0.1734
15683TIP3    H168540   2.738   2.352  17.075  0.7824  0.6079  0.4369
15683TIP3    H268541   2.743   2.205  17.038  0.0587  0.8823 -0.8069
15684TIP3   OH268542   4.829   2.820   4.089 -0.3197 -0.5573  0.6247
15684TIP3    H168543   4.894   2.884   4.061  0.1300 -1.4536 -0.4504
15684TIP3    H268544   4.828   2.755   4.018 -0.7920 -1.7114  1.6722
15685TIP3   OH268545   1.252   0.867  16.928 -0.1829  0.0015  0.2277
15685TIP3    H168546   1.221   0.868  17.019 -0.7140 -2.3116  0.1153
15685TIP3    H268547   1.254   0.774  16.905  0.5846  0.5263 -1.9190
15686TIP3   OH268548   4.699   4.160   0.349  0.0679  0.3282  0.0653
15686TIP3    H168549   4.678   4.223   0.417  0.7845 -0.4070  0.9838
15686TIP3    H268550   4.795   4.151   0.353  0.0153 -0.4798 -0.3429
15687TIP3   OH268551   5.230   1.197   4.728 -0.3704  0.5175 -1.0141
15687TIP3    H168552   5.262   1.197   4.638  1.0878 -0.6271 -0.5160
15687TIP3    H268553   5.161   1.130   4.729 -1.5622  1.7159 -1.6627
15688TIP3   OH268554   0.633   6.229  11.985  0.4960  0.1529 -0.5480
15688TIP3    H168555   0.577   6.306  11.972 -0.7532 -0.9430 -1.7497
15688TIP3    H268556   0.671   6.212  11.898 -1.6392 -2.4083 -1.0243
15689TIP3   OH268557   1.523   2.441   5.125  0.0364  0.0355  0.0755
15689TIP3    H168558   1.577   2.493   5.185 -1.3721  1.9641 -0.2756
15689TIP3    H268559   1.585   2.388   5.076  1.6166  1.9998 -0.1376
15690TIP3   OH268560   6.116   3.079   4.361 -0.2207  0.0967 -0.6435
15690TIP3    H168561   6.062   3.112   4.290 -2.5935  1.6408  1.7681
15690TIP3    H268562   6.072   3.000   4.391  0.3746 -0.1542 -0.4184
15691TIP3   OH268563   1.155   1.181  15.335 -0.0526 -0.0442 -0.7262
15691TIP3    H168564   1.215   1.113  15.303 -2.4817 -2.6708  0.0012
15691TIP3    H268565   1.076   1.170  15.281 -1.1192  1.0602  0.5809
15692TIP3   OH268566   1.169   3.775   5.151 -0.1019 -0.7505  0.1201
15692TIP3    H168567   1.218   3.721   5.089  1.8830 -1.2507  2.0860
15692TIP3    H268568   1.214   3.763   5.234 -1.4643  1.5820  1.2298
15693TIP3   OH268569   6.258   2.178  17.122  0.0017 -0.6124  0.1056
15693TIP3    H168570   6.327   2.192  17.056 -0.4158 -0.5987 -0.3303
15693TIP3    H268571   6.198   2.251  17.110 -0.1496 -0.6877  0.4107
15694TIP3   OH268572   0.549   1.360   1.524  0.3241 -0.6426 -0.2189
15694TIP3    H168573   0.558   1.369   1.618  0.3609 -0.7307 -0.2130
15694TIP3    H268574   0.545   1.265   1.510  0.1026 -0.6235 -0.2858
15695TIP3   OH268575   6.613   0.980  16.361  0.1160  0.1564  0.2623
15695TIP3    H168576   6.705   0.979  16.334  0.1894 -0.4631  0.5301
15695TIP3    H268577   6.598   1.069  16.392  1.2390 -0.3331  2.3297
15696TIP3   OH268578   1.540   4.252  11.517  0.1548  0.1949  0.0645
15696TIP3    H168579   1.455   4.243  11.561  0.2060  0.3882  0.2040
15696TIP3    H268580   1.584   4.169  11.533  1.5350  1.4680  3.2610
15697TIP3   OH268581   3.279   2.931  12.222  0.3587 -0.3640  0.2745
15697TIP3    H168582   3.305   2.943  12.131 -0.4724  1.5632  0.2465
15697TIP3    H268583   3.341   2.985  12.272  0.0405 -0.4083  0.7210
15698TIP3   OH268584   0.415   4.020  13.940 -0.1689 -0.2976 -0.8260
15698TIP3    H168585   0.464   3.969  14.004  0.4431  0.3562 -0.7641
15698TIP3    H268586   0.398   3.959  13.868 -0.0762 -0.7797 -0.4412
15699TIP3   OH268587   3.201   0.549  15.548 -0.7382  0.1596 -0.2885
15699TIP3    H168588   3.114   0.510  15.544  0.0170 -1.6981  0.6047
15699TIP3    H268589   3.193   0.632  15.501 -2.9256 -0.0860 -0.3866
15700TIP3   OH268590   2.670   4.007  16.135  0.1099 -0.1282 -0.1419
15700TIP3    H168591   2.757   4.044  16.118 -0.4228  1.7598  1.1489
15700TIP3    H268592   2.620   4.024  16.055  0.4448  0.1908 -0.2835
15701TIP3   OH268593   0.377   0.811   0.636 -0.5942  0.0864  0.4935
15701TIP3    H168594   0.432   0.832   0.712 -0.1170 -0.6875  0.3676
15701TIP3    H268595   0.334   0.894   0.614 -0.9885  0.2434  1.8044
15702TIP3   OH268596   3.805   0.751   2.278  0.0164  0.0198  0.0230
15702TIP3    H168597   3.851   0.825   2.317 -0.9255  0.1002  1.0115
15702TIP3    H268598   3.786   0.779   2.188  0.9678  0.3825 -0.0716
15703TIP3   OH268599   4.741   3.732  16.633 -0.4355  0.1330 -0.2793
15703TIP3    H168600   4.690   3.801  16.592 -0.4600  0.9389  1.0962
15703TIP3    H268601   4.696   3.651  16.608 -1.1091  0.6896 -0.8907
15704TIP3   OH268602   6.271   3.533  11.590  0.2013  0.7175 -0.0327
15704TIP3    H168603   6.357   3.513  11.628 -0.4406 -1.3784  0.3973
15704TIP3    H268604   6.248   3.618  11.626  1.7341  0.9110  0.5131
15705TIP3   OH268605   2.260   2.043  15.291  0.3731  0.1056 -0.7526
15705TIP3    H168606   2.274   2.057  15.385 -1.8857  4.6145 -0.9313
15705TIP3    H268607   2.334   2.086  15.249 -1.0699  2.3732 -1.0725
15706TIP3   OH268608   2.469   5.030   4.487 -0.5731  0.5470 -0.3217
15706TIP3    H168609   2.412   5.057   4.415  2.9517  3.5618 -2.1564
15706TIP3    H268610   2.484   5.110   4.537 -0.8850 -0.9802  2.2890
15707TIP3   OH268611   2.713   6.441   5.734 -0.4751 -0.0469  0.3375
15707TIP3    H168612   2.670   6.356   5.723  0.6497 -0.6669  0.6605
15707TIP3    H268613   2.675   6.476   5.815 -0.1675 -0.7161  0.7732
15708TIP3   OH268614   4.027   2.462   2.126  0.1651 -0.0631  0.0412
15708TIP3    H168615   4.059   2.381   2.164  0.3584  0.1413  0.3212
15708TIP3    H268616   4.081   2.530   2.166 -0.3372  0.2498  0.1908
15709TIP3   OH268617   0.833   4.536   0.095 -0.5978 -0.5033  0.2087
15709TIP3    H168618   0.910   4.572   0.052 -0.2525 -1.7945 -0.2624
15709TIP3    H268619   0.826   4.586   0.177 -0.4730  1.0278 -0.6925
15710TIP3   OH268620   4.799   1.539  16.137  0.5003  0.3268  0.0405
15710TIP3    H168621   4.868   1.477  16.113  0.5512  0.9701 -1.5687
15710TIP3    H268622   4.731   1.485  16.177  0.0413 -0.9831 -2.3901
15711TIP3   OH268623   3.711   4.881  14.155 -0.1541  0.4696  0.5847
15711TIP3    H168624   3.788   4.930  14.126  0.3529 -1.0361 -0.6962
15711TIP3    H268625   3.642   4.947  14.165  0.8328  1.5857  0.0543
15712TIP3   OH268626   1.155   4.230   4.835  0.0897  0.0175 -0.3024
15712TIP3    H168627   1.148   4.320   4.865  1.2110  0.1985 -0.5592
15712TIP3    H268628   1.192   4.183   4.909  1.2708  0.1414 -0.7948
15713TIP3   OH268629   0.360   4.475   5.298  0.0611  0.2464 -0.0149
15713TIP3    H168630   0.432   4.528   5.334 -0.1500  0.6779 -0.2262
15713TIP3    H268631   0.401   4.421   5.231  0.6651 -1.3209  1.5733
15714TIP3   OH268632   4.558   6.445  16.919  0.6524 -0.2490  0.4678
15714TIP3    H168633   4.474   6.423  16.958  1.0747 -0.2399  1.3852
15714TIP3    H268634   4.541   6.527  16.871  0.4837  0.5365  1.8508
15715TIP3   OH268635   3.611   0.413   4.049 -0.3445  0.1812  0.1671
15715TIP3    H168636   3.592   0.436   4.140  0.6869  1.3287  0.1059
15715TIP3    H268637   3.566   0.480   3.998  2.2164  1.8233 -0.0330
15716TIP3   OH268638   4.764   0.822   5.329 -0.1927  0.0003  0.3807
15716TIP3    H168639   4.812   0.828   5.247  0.3922 -2.0243  0.5502
15716TIP3    H268640   4.724   0.735   5.327 -0.4768  0.0763  2.0677
15717TIP3   OH268641   2.482   6.241  16.616 -0.0163  0.5717  0.2472
15717TIP3    H168642   2.525   6.170  16.664  0.2170  1.2731  1.1144
15717TIP3    H268643   2.489   6.316  16.676 -2.0316  0.8226  0.1974
15718TIP3   OH268644   5.227   6.518  13.951  0.1460  0.3261  0.4322
15718TIP3    H168645   5.261   6.607  13.946  0.1278  0.2550 -1.2904
15718TIP3    H268646   5.274   6.478  14.025  0.7133  1.5233  0.7239
15719TIP3   OH268647   1.086   2.138  12.442 -0.6593  0.5065 -0.4227
15719TIP3    H168648   0.993   2.145  12.465 -1.0238 -2.1767 -0.9075
15719TIP3    H268649   1.087   2.093  12.358  1.1180 -1.4894  0.6032
15720TIP3   OH268650   2.751   3.340  13.316 -0.1504 -0.0242  0.1225
15720TIP3    H168651   2.691   3.317  13.387  0.9860 -2.6172  0.3134
15720TIP3    H268652   2.712   3.299  13.238 -0.8676  1.9504 -0.5736
15721TIP3   OH268653   4.663   2.407   6.458  0.5592 -0.4265 -0.6114
15721TIP3    H168654   4.595   2.471   6.438  1.2173 -0.3158 -2.6041
15721TIP3    H268655   4.735   2.459   6.495  0.2419 -0.3094 -0.1600
15722TIP3   OH268656   0.424   3.646  12.811  0.0086 -0.1485 -0.1333
15722TIP3    H168657   0.342   3.599  12.797  0.0908 -1.1692  2.4590
15722TIP3    H268658   0.435   3.646  12.906  0.6733  3.9905 -0.1022
15723TIP3   OH268659   4.983   1.811   4.115 -0.1251 -0.1599  0.4415
15723TIP3    H168660   4.999   1.766   4.198  0.8554  0.7168  0.7415
15723TIP3    H268661   5.033   1.892   4.121  0.1119 -0.1612 -1.0700
15724TIP3   OH268662   5.660   5.820   0.888  0.2266  0.3496  0.2519
15724TIP3    H168663   5.753   5.829   0.867  0.3075  1.2511  0.9665
15724TIP3    H268664   5.660   5.788   0.978 -0.1488 -0.8825 -0.1719
15725TIP3   OH268665   5.808   3.435  12.168 -0.6576  0.2437  0.1642
15725TIP3    H168666   5.845   3.512  12.211 -0.8872  0.4688 -0.0373
15725TIP3    H268667   5.717   3.459  12.150 -0.3635  0.4277 -1.1191
15726TIP3   OH268668   5.811   6.239  13.079 -0.5065 -0.5448 -0.0494
15726TIP3    H168669   5.860   6.289  13.014 -1.7723  0.8584  0.0454
15726TIP3    H268670   5.751   6.186  13.028 -0.7288 -0.2719 -0.0740
15727TIP3   OH268671   1.933   1.864   5.189 -0.5429 -0.0621 -0.5877
15727TIP3    H168672   2.004   1.924   5.214  1.2898 -1.7236 -1.6707
15727TIP3    H268673   1.917   1.813   5.269 -3.7476  3.3285  1.0940
15728TIP3   OH268674   4.657   3.461   0.469  0.2430  0.0385  0.5519
15728TIP3    H168675   4.654   3.544   0.421 -1.4215 -0.9243 -1.0582
15728TIP3    H268676   4.686   3.486   0.557 -2.0724  2.5882  0.6553
15729TIP3   OH268677   2.406   2.535   6.277  0.0781  0.4735 -0.2992
15729TIP3    H168678   2.388   2.443   6.296  0.2991  0.2738 -1.0270
15729TIP3    H268679   2.420   2.538   6.182  1.5694  0.9870 -0.0902
15730TIP3   OH268680   6.315   5.253  11.598  0.2691  0.3301 -0.3168
15730TIP3    H168681   6.294   5.195  11.672  0.3569 -0.9054 -1.2413
15730TIP3    H268682   6.399   5.293  11.621 -0.2516  0.8216  0.7585
15731TIP3   OH268683   2.958   2.082   1.470  0.0819 -0.2564 -0.5802
15731TIP3    H168684   3.021   2.035   1.524 -2.0896 -2.0993  0.4222
15731TIP3    H268685   2.921   2.015   1.413 -2.1894  0.4565  0.0209
15732TIP3   OH268686   4.172   5.055  11.174  0.0504  0.1903 -0.7691
15732TIP3    H168687   4.210   5.119  11.114  0.9642  0.1702 -0.2102
15732TIP3    H268688   4.166   4.975  11.122 -1.2141  0.7437 -1.5159
15733TIP3   OH268689   2.886   3.431   6.384  0.0060 -0.2951  0.0586
15733TIP3    H168690   2.914   3.376   6.457  0.5598  0.7371  0.6396
15733TIP3    H268691   2.951   3.502   6.382 -0.6280  0.2629 -0.7481
15734TIP3   OH268692   0.959   3.491  16.609 -0.3817 -0.4988  0.3546
15734TIP3    H168693   0.888   3.477  16.546 -0.6966  0.3300  0.5248
15734TIP3    H268694   1.028   3.532  16.557  0.1426 -1.6877  0.0905
15735TIP3   OH268695   4.262   0.948  13.689 -0.0284  1.1877 -0.2509
15735TIP3    H168696   4.203   0.886  13.733  0.4728  1.3011  0.5874
15735TIP3    H268697   4.306   0.895  13.623  0.8425  0.4893  0.8611
15736TIP3   OH268698   1.583   6.786  12.729 -0.7697  0.3304  0.0655
15736TIP3    H168699   1.520   6.714  12.736 -1.3479  0.8935  0.8022
15736TIP3    H268700   1.668   6.743  12.728 -1.1986 -0.5444 -2.6259
15737TIP3   OH268701   3.431   2.544  13.967 -0.4544  0.3885 -0.4719
15737TIP3    H168702   3.465   2.613  13.911  0.7008 -0.1505 -0.4395
15737TIP3    H268703   3.495   2.536  14.037 -1.2600  0.1977  0.2528
15738TIP3   OH268704   2.244   6.377  15.489  0.2561 -0.8086 -0.1963
15738TIP3    H168705   2.231   6.399  15.397  1.8632 -0.8101 -0.4352
15738TIP3    H268706   2.258   6.461  15.532  0.3240 -0.8778 -0.0841
15739TIP3   OH268707   4.637   2.992  16.239  0.0450 -0.2532  0.4735
15739TIP3    H168708   4.585   2.930  16.189  0.7178 -0.5349  0.1305
15739TIP3    H268709   4.728   2.974  16.215  0.5146 -1.5488  3.0645
15740TIP3   OH268710   5.306   5.002   5.127 -0.7042 -0.2721 -0.2113
15740TIP3    H168711   5.292   4.909   5.110 -1.4393 -0.2175  0.0427
15740TIP3    H268712   5.298   5.044   5.042  0.7452 -0.5690 -0.4907
15741TIP3   OH268713   5.801   1.935  15.868 -0.3181  0.3036 -0.1622
15741TIP3    H168714   5.896   1.938  15.865 -0.3022 -0.0479 -0.0643
15741TIP3    H268715   5.779   1.843  15.852 -0.6657  0.4958 -0.8325
15742TIP3   OH268716   5.374   6.569  16.786  0.0675 -0.1098 -0.5161
15742TIP3    H168717   5.342   6.504  16.724  1.2421 -0.7111 -0.4991
15742TIP3    H268718   5.315   6.562  16.861  0.4376 -1.4492 -0.3417
15743TIP3   OH268719   6.687   4.258  13.481  0.2702 -0.3094  0.0195
15743TIP3    H168720   6.754   4.205  13.525  1.5439  0.5779 -0.8207
15743TIP3    H268721   6.674   4.333  13.540  0.6094 -0.0645 -0.2204
15744TIP3   OH268722   6.155   2.897   2.659 -0.1444  0.1207 -0.5317
15744TIP3    H168723   6.082   2.904   2.720 -1.0771  1.1075 -1.7123
15744TIP3    H268724   6.134   2.821   2.605 -0.8621  1.0238 -1.5557
15745TIP3   OH268725   3.087   2.441  15.197 -0.0225  0.1602  0.0149
15745TIP3    H168726   3.063   2.524  15.156  0.0175  1.8566  3.2530
15745TIP3    H268727   3.026   2.431  15.270  1.0839 -1.7956  0.7207
15746TIP3   OH268728   4.545   3.721  13.925 -0.5762  0.2940  0.4707
15746TIP3    H168729   4.508   3.746  14.010  1.5855  2.0282  0.9609
15746TIP3    H268730   4.600   3.645  13.944 -1.1259 -0.1409  0.3560
15747TIP3   OH268731   2.715   3.742  10.884  0.8318  0.2982 -0.0847
15747TIP3    H168732   2.643   3.695  10.840  0.6125  2.1335 -1.7403
15747TIP3    H268733   2.679   3.764  10.970  0.5109 -1.4769  0.2628
15748TIP3   OH268734   0.257   3.251  11.145 -0.0328  0.1023  0.1263
15748TIP3    H168735   0.267   3.274  11.052 -0.6580 -0.7915 -0.1679
15748TIP3    H268736   0.164   3.264  11.163 -0.1033 -0.6972  0.3555
15749TIP3   OH268737   2.911   0.234   6.271  0.0039  0.1530  0.1212
15749TIP3    H168738   2.898   0.302   6.205  0.3425 -0.1011 -0.2052
15749TIP3    H268739   2.920   0.282   6.353 -1.1116  0.4402  0.0925
15750TIP3   OH268740   2.033   3.577   3.344 -0.0493  0.2045 -0.2843
15750TIP3    H168741   2.087   3.650   3.375  0.2349 -0.9182  1.9419
15750TIP3    H268742   2.094   3.506   3.329 -0.5070 -0.0288 -1.0769
15751TIP3   OH268743   3.875   4.725   3.752  0.5446 -0.7627  0.9272
15751TIP3    H168744   3.788   4.700   3.785 -0.1153  0.4510  0.1716
15751TIP3    H268745   3.898   4.656   3.690  0.0446 -1.0089  1.0083
15752TIP3   OH268746   1.852   5.884  14.249  0.2166 -0.6254  0.1030
15752TIP3    H168747   1.781   5.947  14.264 -0.4503 -1.6053  1.0863
15752TIP3    H268748   1.914   5.899  14.320  0.2336 -0.8332  0.1317
15753TIP3   OH268749   5.922   5.760  12.725 -0.4176 -0.0045  0.2901
15753TIP3    H168750   5.969   5.699  12.669 -3.4362  0.5004 -2.9053
15753TIP3    H268751   5.986   5.829  12.744  1.4906 -1.6041 -0.1688
15754TIP3   OH268752   1.897   6.453   1.704 -0.0735 -0.2089 -0.6881
15754TIP3    H168753   1.988   6.482   1.709  0.0192 -0.6624  0.5468
15754TIP3    H268754   1.858   6.484   1.786 -0.0640 -3.2143  0.5205
15755TIP3   OH268755   1.109   3.790   5.703 -0.6351 -0.1203 -0.0384
15755TIP3    H168756   1.072   3.873   5.675 -0.6906  0.1374  0.7806
15755TIP3    H268757   1.032   3.735   5.721 -0.5975 -0.6840 -1.5360
15756TIP3   OH268758   2.762   2.472  13.471 -0.0596 -0.3997 -0.4162
15756TIP3    H168759   2.750   2.448  13.563  1.1145 -2.0370 -0.6602
15756TIP3    H268760   2.857   2.477  13.460 -0.1964 -0.1480 -1.5126
15757TIP3   OH268761   4.717   0.875  15.822  0.0059  0.1133 -0.2259
15757TIP3    H168762   4.810   0.872  15.845  0.4483 -2.0249 -2.1665
15757TIP3    H268763   4.692   0.784  15.806 -1.9098  0.8452 -1.6863
15758TIP3   OH268764   2.977   5.441  13.178 -0.3434 -0.4044 -0.3208
15758TIP3    H168765   2.937   5.504  13.238  2.0071 -1.1446  2.1257
15758TIP3    H268766   3.042   5.492  13.129 -0.9381 -0.2040 -0.9134
15759TIP3   OH268767   4.062   3.098   2.087  0.0003  0.0051  0.0700
15759TIP3    H168768   4.150   3.072   2.060  0.4939  0.3909  1.2821
15759TIP3    H268769   4.006   3.027   2.057  0.8219 -0.5816 -0.0979
15760TIP3   OH268770   6.165   4.253   2.885 -0.7517  0.5690 -0.4829
15760TIP3    H168771   6.196   4.344   2.877 -1.6560  0.7765 -1.7455
15760TIP3    H268772   6.077   4.262   2.923 -1.5043  0.3365 -2.1339
15761TIP3   OH268773   3.649   4.440  15.264 -0.1795 -0.2343  0.0351
15761TIP3    H168774   3.690   4.419  15.348 -0.4237 -0.1200  0.1799
15761TIP3    H268775   3.575   4.495  15.286 -0.2591 -0.2260 -0.2551
15762TIP3   OH268776   6.528   6.590   2.928 -0.3560 -0.0248 -0.0332
15762TIP3    H168777   6.605   6.619   2.977 -0.0087 -1.1527  0.1038
15762TIP3    H268778   6.469   6.554   2.995 -0.5776 -0.0760 -0.2556
15763TIP3   OH268779   5.591   5.463  13.144  0.6457  0.4922 -0.3075
15763TIP3    H168780   5.656   5.433  13.081  3.3974 -0.3038  2.7519
15763TIP3    H268781   5.618   5.552  13.165  1.2155 -0.0816  1.4867
15764TIP3   OH268782   5.792   1.869   2.457 -0.1477  0.4397 -0.4592
15764TIP3    H168783   5.844   1.875   2.377  0.3439 -0.2225 -0.1911
15764TIP3    H268784   5.735   1.947   2.454  0.9425  1.2382 -0.6850
15765TIP3   OH268785   0.181   1.463   1.700  0.1436 -0.2446 -0.1670
15765TIP3    H168786   0.167   1.369   1.707  1.9757 -0.9433 -4.3541
15765TIP3    H268787   0.265   1.478   1.743  0.7680 -0.8783 -1.1340
15766TIP3   OH268788   5.664   4.725   4.193 -0.3354 -0.2646  0.3393
15766TIP3    H168789   5.646   4.817   4.174 -1.6850 -0.8149 -1.1226
15766TIP3    H268790   5.644   4.679   4.111 -1.2397 -2.0545  1.5328
15767TIP3   OH268791   6.729   4.902   3.373  0.3256 -0.2482 -0.0766
15767TIP3    H168792   6.662   4.961   3.408  1.6910  1.8260 -0.8342
15767TIP3    H268793   6.806   4.918   3.427  0.8610 -0.9959 -0.6123
15768TIP3   OH268794   2.013   4.062   6.303 -0.4278  0.0099  0.3887
15768TIP3    H168795   1.998   4.042   6.396  2.5721  0.0659  0.9155
15768TIP3    H268796   2.108   4.064   6.294 -0.6925  0.1652 -2.6819
15769TIP3   OH268797   2.749   3.238   3.887  0.1970  0.2975  0.3421
15769TIP3    H168798   2.817   3.218   3.822  1.6231  2.5427  1.0710
15769TIP3    H268799   2.687   3.294   3.840  1.3819  2.1658  0.9261
15770TIP3   OH268800   0.514   5.578  11.738 -0.4660  0.6089 -0.1554
15770TIP3    H168801   0.581   5.629  11.784 -1.2835  0.3494  1.3434
15770TIP3    H268802   0.555   5.556  11.654  2.2646 -1.5184  1.6247
15771TIP3   OH268803   1.628   5.549   2.561  0.3193  0.0726  0.1011
15771TIP3    H168804   1.550   5.531   2.507  1.0960 -0.7278 -0.7758
15771TIP3    H268805   1.596   5.605   2.631 -0.8969  0.4185 -0.7080
15772TIP3   OH268806   3.855   5.116  14.045 -0.3360  0.5020 -0.1612
15772TIP3    H168807   3.759   5.118  14.047 -0.3053  2.4147  2.4841
15772TIP3    H268808   3.878   5.164  13.965 -1.5758  0.0441 -0.8086
15773TIP3   OH268809   4.569   5.013  13.566  0.2748  0.2859  0.3098
15773TIP3    H168810   4.545   4.979  13.652  0.6700  2.1204  1.1874
15773TIP3    H268811   4.498   5.073  13.543  1.3096  1.6183  0.4733
15774TIP3   OH268812   2.113   1.424  15.644 -0.0760  0.2462  0.0821
15774TIP3    H168813   2.165   1.444  15.722 -0.5547  0.5402  0.3299
15774TIP3    H268814   2.177   1.405  15.576  0.3500  0.2049  0.4910
15775TIP3   OH268815   2.199   1.368  16.948  0.2580  0.3891 -0.1466
15775TIP3    H168816   2.109   1.395  16.965  0.0458 -0.2530 -0.2180
15775TIP3    H268817   2.192   1.276  16.922  1.1673 -0.5077  2.5495
15776TIP3   OH268818   0.537   2.314   2.579  0.3619  0.2257  0.2552
15776TIP3    H168819   0.478   2.380   2.543  0.4884  0.3073  0.1976
15776TIP3    H268820   0.528   2.322   2.674 -1.0790 -0.9693  0.2559
15777TIP3   OH268821   5.392   6.434   2.297  0.0890 -0.6106 -0.2412
15777TIP3    H168822   5.401   6.362   2.360 -0.9925 -3.1511 -2.8198
15777TIP3    H268823   5.311   6.478   2.323  0.5931 -0.5070  1.1887
15778TIP3   OH268824   5.316   0.814   5.314 -0.3632 -0.1812 -0.7901
15778TIP3    H168825   5.246   0.853   5.262 -1.4542  1.0940  1.5804
15778TIP3    H268826   5.313   0.721   5.292 -2.4464 -0.0573 -1.1246
15779TIP3   OH268827   2.989   4.062  16.870 -0.3554  0.1226  0.0322
15779TIP3    H168828   3.083   4.073  16.854 -0.3444 -0.0370 -0.0169
15779TIP3    H268829   2.949   4.142  16.836 -0.2379  0.1872  0.0459
15780TIP3   OH268830   1.373   5.084   1.356 -0.4797 -0.5663  0.2784
15780TIP3    H168831   1.341   5.027   1.426 -1.1225 -1.3087 -0.6017
15780TIP3    H268832   1.468   5.081   1.363 -0.5396 -0.7413  1.0328
15781TIP3   OH268833   5.923   1.631  14.718 -0.2165 -0.2044 -0.1189
15781TIP3    H168834   5.878   1.558  14.762 -0.2150  0.5847  1.2295
15781TIP3    H268835   5.944   1.597  14.631  0.5592 -2.1258  0.7822
15782TIP3   OH268836   5.892   0.704   3.822 -0.1110 -1.0144 -0.0210
15782TIP3    H168837   5.934   0.651   3.755  2.9801 -0.2037  1.2086
15782TIP3    H268838   5.837   0.765   3.773  0.7056 -1.6243 -1.7181
15783TIP3   OH268839   4.591   6.416  16.655  0.8684 -0.0439  0.3355
15783TIP3    H168840   4.591   6.417  16.751  1.1325  1.8724  0.3197
15783TIP3    H268841   4.499   6.406  16.631  0.6045  1.3332  0.7733
15784TIP3   OH268842   3.393   0.720  16.266  0.4079  0.6522  0.0305
15784TIP3    H168843   3.488   0.715  16.265  0.3035 -2.5177  0.4164
15784TIP3    H268844   3.369   0.742  16.176  1.4018 -2.2842 -0.9995
15785TIP3   OH268845   1.323   4.660   4.446 -0.0588 -0.2092  0.1658
15785TIP3    H168846   1.306   4.694   4.534 -0.5926  0.8587 -0.3391
15785TIP3    H268847   1.378   4.583   4.460 -1.1773 -0.7921  1.5204
15786TIP3   OH268848   1.254   3.142   2.807 -0.1231 -0.4015  0.2488
15786TIP3    H168849   1.344   3.169   2.825 -0.5834  1.0861  0.3458
15786TIP3    H268850   1.258   3.099   2.722  0.5368  0.4205 -0.1371
15787TIP3   OH268851   6.770   1.461  16.016  0.2824  0.0542  0.0768
15787TIP3    H168852   6.683   1.450  15.978 -0.0336  1.5357  0.3692
15787TIP3    H268853   6.764   1.421  16.103 -0.7229  2.0812  0.9452
15788TIP3   OH268854   1.102   2.068  16.474 -0.4474  0.4806 -0.0307
15788TIP3    H168855   1.039   2.017  16.525 -1.1844  0.5207 -0.8955
15788TIP3    H268856   1.127   2.140  16.532 -1.0363  0.3457  0.3913
15789TIP3   OH268857   3.460   1.922   2.675 -0.0451  0.4900  0.4759
15789TIP3    H168858   3.366   1.929   2.692  0.5672  1.3534  4.0179
15789TIP3    H268859   3.487   2.012   2.655  0.3987  0.6695  1.8302
15790TIP3   OH268860   4.234   2.013   5.874 -0.4708  0.6351 -0.3192
15790TIP3    H168861   4.234   2.039   5.967 -1.8476 -1.1370  0.2030
15790TIP3    H268862   4.323   1.982   5.858 -0.7471 -0.8843  0.9567
15791TIP3   OH268863   4.022   5.595   3.895  0.0298  0.0213 -0.1631
15791TIP3    H168864   4.084   5.602   3.822  0.1649  2.2391  0.1331
15791TIP3    H268865   3.994   5.504   3.894  0.4992 -0.1247 -2.5995
15792TIP3   OH268866   0.993   1.707   5.350 -0.2238  0.6081  0.2703
15792TIP3    H168867   1.087   1.696   5.333 -0.5867 -0.9688 -0.7292
15792TIP3    H268868   0.978   1.659   5.432 -0.5911 -1.1314 -0.7937
15793TIP3   OH268869   1.574   4.102   5.554  0.1446  0.3303  0.0940
15793TIP3    H168870   1.507   4.039   5.580  1.3107 -0.8141  0.4016
15793TIP3    H268871   1.592   4.080   5.462  0.7965 -0.0195  0.3025
15794TIP3   OH268872   5.656   3.742   5.300 -0.2385  0.3982  0.0397
15794TIP3    H168873   5.584   3.690   5.262 -0.6298  1.7304 -1.0726
15794TIP3    H268874   5.612   3.815   5.343  0.3806  0.3956  0.6730
15795TIP3   OH268875   1.870   4.800  13.806 -0.2200 -0.4325 -0.2481
15795TIP3    H168876   1.816   4.844  13.741 -0.0420  0.2985  0.0983
15795TIP3    H268877   1.935   4.866  13.833  0.6587 -1.2025 -0.4471
15796TIP3   OH268878   0.413   0.223  14.854 -0.3783  0.0203 -0.1226
15796TIP3    H168879   0.454   0.266  14.929 -0.7871  1.6258 -0.8062
15796TIP3    H268880   0.467   0.247  14.779 -0.4355 -0.9072 -0.4708
15797TIP3   OH268881   4.335   4.333   1.904  0.1189  0.3716 -0.5810
15797TIP3    H168882   4.373   4.411   1.863 -1.3664  1.8347  0.7197
15797TIP3    H268883   4.403   4.301   1.964  0.2349  1.5103 -0.0873
15798TIP3   OH268884   0.978   5.011   2.465 -0.5092  0.7829 -0.2168
15798TIP3    H168885   1.019   4.933   2.504 -2.3534  0.5531  1.3201
15798TIP3    H268886   0.887   4.986   2.453 -0.9201  2.4227 -0.5333
15799TIP3   OH268887   3.847   2.177  15.746  0.0757 -0.0313  0.1150
15799TIP3    H168888   3.810   2.090  15.757 -2.5704  0.7312 -2.3635
15799TIP3    H268889   3.898   2.172  15.665 -0.1931  0.7631 -0.1037
15800TIP3   OH268890   3.849   6.185  15.078  0.3545 -0.3792  0.4898
15800TIP3    H168891   3.939   6.159  15.098 -0.5395 -3.9413  0.2348
15800TIP3    H268892   3.799   6.162  15.156 -0.8243 -1.4814 -0.5490
15801TIP3   OH268893   4.503   3.167  14.719 -0.3474 -0.3465  0.1901
15801TIP3    H168894   4.437   3.163  14.788 -2.3719  0.1229 -1.6682
15801TIP3    H268895   4.567   3.231  14.751 -0.6898 -0.9121  2.0728
15802TIP3   OH268896   2.241   3.387   5.858  0.2937  0.0814  0.3069
15802TIP3    H168897   2.271   3.392   5.767  1.7369  1.1015  0.8187
15802TIP3    H268898   2.313   3.345   5.905  0.7417  2.0685  1.4570
15803TIP3   OH268899   6.178   3.450  15.297  0.1854  1.1928  0.0602
15803TIP3    H168900   6.203   3.371  15.345  2.6293  2.4384  0.9260
15803TIP3    H268901   6.089   3.432  15.267  0.7828 -1.9794 -0.0078
15804TIP3   OH268902   0.049   0.809  12.386  0.4449  0.0401 -0.7434
15804TIP3    H168903  -0.025   0.780  12.440  0.2498 -0.9796 -1.5450
15804TIP3    H268904   0.122   0.812  12.448 -0.5836  2.6700  0.4160
15805TIP3   OH268905   1.125   1.856  14.739  0.0122  0.0468  0.0950
15805TIP3    H168906   1.077   1.780  14.705 -0.0344 -0.2371  0.7842
15805TIP3    H268907   1.080   1.876  14.821 -2.0583  2.8286 -1.6305
15806TIP3   OH268908   5.694   2.010   3.132 -0.4327  0.1171  0.8110
15806TIP3    H168909   5.642   2.049   3.062 -1.4417 -1.0333  0.9105
15806TIP3    H268910   5.718   1.923   3.100  2.9112  1.2601  0.0519
15807TIP3   OH268911   5.894   5.026   3.111  0.8323 -0.1021  0.2419
15807TIP3    H168912   5.921   5.022   3.019  0.4417  0.7929  0.0850
15807TIP3    H268913   5.838   4.949   3.123 -1.2814  1.1740 -0.9963
15808TIP3   OH268914   1.029   6.285   5.828  0.0440  0.4877 -0.4292
15808TIP3    H168915   1.038   6.359   5.769  2.3336  0.1944 -0.4946
15808TIP3    H268916   1.047   6.208   5.774 -1.0951 -0.0291 -0.0870
15809TIP3   OH268917   5.217   3.164   5.633  0.3146  0.1119  0.3563
15809TIP3    H168918   5.123   3.176   5.624  0.4213  1.0448  0.4134
15809TIP3    H268919   5.241   3.103   5.563 -0.1560  0.7673 -0.3783
15810TIP3   OH268920   1.105   3.816   3.729 -0.0279 -0.1097 -0.1696
15810TIP3    H168921   1.074   3.731   3.698  0.0235 -0.5942  1.0651
15810TIP3    H268922   1.043   3.879   3.691 -0.1330 -0.6992 -1.0016
15811TIP3   OH268923   0.984   5.317  13.351  0.2239 -0.3975 -0.0616
15811TIP3    H168924   0.932   5.259  13.406  0.4887 -2.3142 -1.7691
15811TIP3    H268925   0.922   5.352  13.287  0.5346 -0.7182 -0.5425
15812TIP3   OH268926   2.570   1.929   5.032  0.3929  0.4514  0.4649
15812TIP3    H168927   2.610   1.994   5.090  0.7021 -0.0827  0.8480
15812TIP3    H268928   2.631   1.855   5.032  0.3820  0.4359 -0.5174
15813TIP3   OH268929   2.097   2.899  14.675 -0.1486 -0.1057 -0.0347
15813TIP3    H168930   2.098   2.993  14.659  1.7673  0.1885  1.6703
15813TIP3    H268931   2.145   2.861  14.601  0.2914  0.3617  0.0150
15814TIP3   OH268932   3.552   6.088  11.205 -0.8876 -1.1511 -0.4655
15814TIP3    H168933   3.539   6.183  11.207 -0.1856 -1.0669  0.4653
15814TIP3    H268934   3.466   6.052  11.227 -0.4849 -0.6663  2.1284
15815TIP3   OH268935   5.113   3.140  13.839  0.2674  0.5600  0.4799
15815TIP3    H168936   5.116   3.045  13.832  0.7007  0.3479  2.8840
15815TIP3    H268937   5.039   3.157  13.898 -1.5520  1.8851 -2.1162
15816TIP3   OH268938   0.786   2.514  17.162 -0.6062 -0.3600 -0.0159
15816TIP3    H168939   0.778   2.507  17.257 -1.7689 -0.9723 -0.1478
15816TIP3    H268940   0.836   2.436  17.137  2.9425  1.6466  0.4380
15817TIP3   OH268941   0.878   5.221  15.651 -0.6734 -0.6603  0.1294
15817TIP3    H168942   0.924   5.255  15.575  1.1037 -2.5603  0.2958
15817TIP3    H268943   0.815   5.158  15.616 -0.2988 -1.0665  0.1857
15818TIP3   OH268944   4.567   4.525  16.985 -0.1947 -0.0442  0.3525
15818TIP3    H168945   4.515   4.444  16.979 -1.0251  0.5472 -0.6289
15818TIP3    H268946   4.636   4.514  16.920 -0.7695  0.3672 -0.3257
15819TIP3   OH268947   0.220   0.692   0.453  0.0427 -0.4624  0.6480
15819TIP3    H168948   0.296   0.715   0.507  1.6082  0.0656 -1.6551
15819TIP3    H268949   0.165   0.770   0.456  0.5409 -0.1094  0.8127
15820TIP3   OH268950   4.396   0.428   1.280  0.6101  0.6489  0.3385
15820TIP3    H168951   4.477   0.467   1.246  0.2236  1.4667  0.3299
15820TIP3    H268952   4.327   0.488   1.250 -0.2554 -1.3261 -1.7236
15821TIP3   OH268953   4.912   3.173   4.854 -0.4943 -0.1688 -0.2463
15821TIP3    H168954   4.994   3.222   4.859 -0.3498 -0.3436 -0.9250
15821TIP3    H268955   4.846   3.235   4.886 -0.2697  0.3769 -0.8282
15822TIP3   OH268956   6.011   2.217  11.333 -0.1189 -0.3736 -0.6784
15822TIP3    H168957   5.987   2.186  11.246 -1.2421  0.4044 -0.6679
15822TIP3    H268958   5.952   2.291  11.349  0.9365  0.2969  0.2238
15823TIP3   OH268959   2.544   3.317  15.176  0.1258  0.7826  0.1745
15823TIP3    H168960   2.500   3.282  15.254  1.2034  0.6744  0.7323
15823TIP3    H268961   2.476   3.368  15.132 -0.7579  0.0654  0.6759
15824TIP3   OH268962   1.427   0.330   3.533  0.2229  0.4007  0.1557
15824TIP3    H168963   1.412   0.424   3.542 -1.4503  0.0819  1.0739
15824TIP3    H268964   1.505   0.313   3.586  1.9476  1.6264 -1.9685
15825TIP3   OH268965   2.775   1.129   3.232 -0.3460 -0.1539 -0.0071
15825TIP3    H168966   2.752   1.083   3.313 -2.0066 -2.6846 -1.8533
15825TIP3    H268967   2.868   1.150   3.242 -0.6016 -0.1640  2.6578
15826TIP3   OH268968   1.083   1.395  17.134  0.1604  0.2879  0.0155
15826TIP3    H168969   1.112   1.441  17.213 -2.4591 -0.0403  1.2270
15826TIP3    H268970   1.137   1.316  17.131  1.3537  1.0621  0.6046
15827TIP3   OH268971   5.484   4.440  11.826  0.3802 -0.5447 -0.0544
15827TIP3    H168972   5.422   4.382  11.871  1.0932 -0.7375  0.6880
15827TIP3    H268973   5.550   4.460  11.893  0.0429  1.2626 -0.2463
15828TIP3   OH268974   1.031   6.734  11.533  0.2227 -0.0772  0.7932
15828TIP3    H168975   0.991   6.650  11.510  0.9470 -0.1887 -0.0590
15828TIP3    H268976   0.980   6.765  11.609 -0.3404 -1.0559  0.8164
15829TIP3   OH268977   5.037   1.597   0.345  0.2151  0.1878  0.0431
15829TIP3    H168978   5.032   1.573   0.437 -0.7281  1.4288  0.3285
15829TIP3    H268979   5.077   1.684   0.345  0.0752  0.2578 -0.7131
15830TIP3   OH268980   5.252   2.247  11.436 -0.1961 -0.0852 -0.1677
15830TIP3    H168981   5.212   2.206  11.512  0.2292  0.3239  0.2865
15830TIP3    H268982   5.273   2.174  11.377 -1.4585 -0.3081 -0.3446
15831TIP3   OH268983   1.495   1.893  15.659  0.2028 -0.0878 -0.0688
15831TIP3    H168984   1.421   1.947  15.632 -0.7426 -1.0352  0.6016
15831TIP3    H268985   1.543   1.948  15.721  0.0697  0.5335 -0.5143
15832TIP3   OH268986   3.206   0.209  11.036  0.4658  0.1972 -0.2022
15832TIP3    H168987   3.189   0.289  10.985 -1.7980 -0.2514 -0.1620
15832TIP3    H268988   3.263   0.157  10.980  0.0656  0.8184 -1.1913
15833TIP3   OH268989   5.380   5.231  12.781 -0.0796  0.1832 -0.2633
15833TIP3    H168990   5.377   5.306  12.841 -0.5770  0.9332 -1.2168
15833TIP3    H268991   5.425   5.163  12.831 -1.1725  0.5324  1.2555
15834TIP3   OH268992   2.081   4.165   3.732  0.1457 -0.3402  0.0236
15834TIP3    H168993   2.090   4.252   3.770  0.2438  0.2300 -1.2830
15834TIP3    H268994   2.001   4.129   3.771  0.1827  0.2752  0.6696
15835TIP3   OH268995   0.157   5.584  11.294 -0.3257  0.0727  0.2498
15835TIP3    H168996   0.201   5.668  11.305 -0.2083 -0.1053  1.1859
15835TIP3    H268997   0.080   5.604  11.241 -0.2018  0.7366  0.3195
15836TIP3   OH268998   6.456   1.003   5.642 -0.0432 -0.5740 -0.1373
15836TIP3    H168999   6.511   1.067   5.598 -0.3480 -0.3654 -0.2131
15836TIP3    H269000   6.371   1.045   5.650 -0.0845 -0.7387  0.3447
15837TIP3   OH269001   2.160   4.644   5.085 -0.1329 -0.3721  0.3572
15837TIP3    H169002   2.107   4.603   5.154  0.4921 -2.8288 -0.5915
15837TIP3    H269003   2.250   4.625   5.109  0.1095 -0.7186 -0.8065
15838TIP3   OH269004   3.684   5.143  15.096 -0.1712 -0.4569 -0.5218
15838TIP3    H169005   3.742   5.166  15.169 -0.4240  1.2650 -0.8274
15838TIP3    H269006   3.736   5.087  15.039  1.1206  0.8398 -0.6505
15839TIP3   OH269007   3.099   3.101   4.953  0.2068  0.3290 -0.2916
15839TIP3    H169008   3.187   3.077   4.924  0.1537  0.5630 -0.6417
15839TIP3    H269009   3.099   3.197   4.951  0.3029  0.3589  0.7567
15840TIP3   OH269010   2.687   3.866  14.278  0.4699 -0.1775  0.6484
15840TIP3    H169011   2.617   3.805  14.254  0.8060 -0.0284 -0.7424
15840TIP3    H269012   2.729   3.825  14.353  0.2089 -1.3024  0.1964
15841TIP3   OH269013   3.654   2.435   6.771 -0.5010  0.3654 -0.1789
15841TIP3    H169014   3.612   2.426   6.686  0.1124  0.8725 -0.5403
15841TIP3    H269015   3.748   2.430   6.751 -0.3037  1.9957  0.2800
15842TIP3   OH269016   6.518   5.442   1.532  0.8399  0.2607 -0.3799
15842TIP3    H169017   6.496   5.496   1.456  0.6122 -1.2699 -1.4286
15842TIP3    H269018   6.521   5.353   1.498  2.4403 -0.2680  1.0574
15843TIP3   OH269019   2.575   1.076   4.779 -0.2655  0.1153  0.3836
15843TIP3    H169020   2.528   1.062   4.697  0.5764 -0.8648  0.0558
15843TIP3    H269021   2.551   1.001   4.833 -3.0951  2.1774  2.1533
15844TIP3   OH269022   5.056   6.527  16.189  0.1059  0.6571  0.6819
15844TIP3    H169023   5.143   6.547  16.155  0.0432  1.0474  0.7508
15844TIP3    H269024   5.049   6.580  16.269 -0.0828  0.4071  0.8313
15845TIP3   OH269025   2.697   2.986  12.789 -0.2260 -0.1420 -0.2112
15845TIP3    H169026   2.610   3.008  12.824  0.5155  0.4713  1.2704
15845TIP3    H269027   2.712   2.896  12.819  0.5791  0.5208  1.4378
15846TIP3   OH269028   3.525   2.689   1.490  0.2875 -0.2815  0.3932
15846TIP3    H169029   3.556   2.714   1.577  2.5267 -1.0027 -0.1574
15846TIP3    H269030   3.437   2.727   1.484 -0.4366 -1.3250  3.4322
15847TIP3   OH269031   4.123   6.633  10.405 -0.5565 -0.0307  0.4265
15847TIP3    H169032   4.068   6.558  10.430 -0.4568 -0.7106 -1.3200
15847TIP3    H269033   4.097   6.653  10.315  0.8087  0.7760  0.1965
15848TIP3   OH269034   2.281   4.719  16.475 -0.5432  0.1553  0.1586
15848TIP3    H169035   2.220   4.708  16.402  1.8672  3.5347 -2.5157
15848TIP3    H269036   2.356   4.664  16.453 -0.3669  0.1322  0.7986
15849TIP3   OH269037   4.754   1.217   3.361 -0.0068  0.2255 -0.0252
15849TIP3    H169038   4.784   1.126   3.365 -1.5265 -0.2682  0.1818
15849TIP3    H269039   4.766   1.242   3.270  1.9214  0.3506  0.2309
15850TIP3   OH269040   3.879   4.962   4.513 -0.7169  0.5427  0.7198
15850TIP3    H169041   3.871   4.963   4.608 -2.7962  0.9205  0.5545
15850TIP3    H269042   3.916   5.048   4.491 -1.3254  0.9013  1.0978
15851TIP3   OH269043   2.577   6.797   0.878  0.6102  0.1639 -0.0475
15851TIP3    H169044   2.555   6.890   0.883  2.7158  0.8690 -2.7252
15851TIP3    H269045   2.506   6.758   0.827  0.0663  0.4195  0.5118
15852TIP3   OH269046   3.164   6.211   5.230 -0.0936  0.2561 -0.7430
15852TIP3    H169047   3.098   6.280   5.221 -0.3489 -0.0237 -1.0097
15852TIP3    H269048   3.144   6.171   5.314 -1.5868 -1.2112 -1.7709
15853TIP3   OH269049   2.604   5.507   5.700 -0.5555  0.0515  0.0474
15853TIP3    H169050   2.622   5.426   5.653  0.7816 -0.5831  1.5909
15853TIP3    H269051   2.550   5.558   5.640 -0.5529 -1.5462 -1.3590
15854TIP3   OH269052   0.269   5.345  12.104 -0.3808  0.5561  0.2769
15854TIP3    H169053   0.223   5.261  12.108 -2.4567  1.7077  1.2648
15854TIP3    H269054   0.263   5.371  12.012 -1.5825  0.6066  0.3591
15855TIP3   OH269055   2.386   3.296  12.672 -0.6703 -0.3508 -0.2325
15855TIP3    H169056   2.453   3.241  12.631 -0.5658 -1.0466  0.8523
15855TIP3    H269057   2.427   3.382  12.679 -0.5264 -0.3390 -1.1637
15856TIP3   OH269058   2.922   0.357  12.702 -0.0329  0.2847 -0.0533
15856TIP3    H169059   2.961   0.277  12.737 -0.1550  0.2181 -0.0681
15856TIP3    H269060   2.995   0.405  12.664  0.2880  0.8794  1.2935
15857TIP3   OH269061   4.862   1.609   0.047 -0.0241  0.1554 -0.1867
15857TIP3    H169062   4.772   1.630   0.018  0.2345 -0.5896 -1.5813
15857TIP3    H269063   4.863   1.631   0.140 -2.2623 -1.7333  0.3420
15858TIP3   OH269064   1.706   6.805  12.296  0.5601 -0.4497 -0.3665
15858TIP3    H169065   1.700   6.710  12.286 -0.6039 -0.4930  0.6338
15858TIP3    H269066   1.615   6.836  12.289  0.8186  0.4814  0.2534
15859TIP3   OH269067   0.563   4.385  10.394  0.2670  0.1004 -0.3787
15859TIP3    H169068   0.547   4.290  10.388  0.1107  0.1626 -0.9992
15859TIP3    H269069   0.654   4.393  10.421  0.2456 -0.2296 -0.2045
15860TIP3   OH269070   1.508   5.572   0.651  0.0434  0.3417 -0.2255
15860TIP3    H169071   1.432   5.527   0.688 -0.6623  0.6262 -1.3142
15860TIP3    H269072   1.477   5.609   0.568  1.3257  0.5945 -0.6116
15861TIP3   OH269073   6.251   0.019   4.002  0.1898 -0.2832 -0.0090
15861TIP3    H169074   6.324   0.073   3.972 -0.7654  0.9703 -0.1481
15861TIP3    H269075   6.292  -0.060   4.037  1.5466 -0.0544 -1.0221
15862TIP3   OH269076   1.835   3.382  12.957  0.3228 -0.0741  0.2292
15862TIP3    H169077   1.881   3.305  12.923  0.4567  0.7068 -1.3678
15862TIP3    H269078   1.808   3.430  12.879  0.0202  1.3757  1.2206
15863TIP3   OH269079   4.620   0.838   4.960 -0.3863 -0.6582  0.0741
15863TIP3    H169080   4.560   0.806   5.027 -0.8542  2.5565  1.2836
15863TIP3    H269081   4.702   0.856   5.006 -1.2783  3.3774  0.3331
15864TIP3   OH269082   6.143   3.503  13.191 -0.1281  0.1650 -0.1499
15864TIP3    H169083   6.218   3.552  13.160  0.7672 -0.1346  1.4611
15864TIP3    H269084   6.098   3.564  13.250  0.0461 -0.3647  0.5365
15865TIP3   OH269085   5.148   4.740   5.160  0.1193  0.1809  0.0318
15865TIP3    H169086   5.107   4.665   5.117  0.7695  0.2442 -0.7132
15865TIP3    H269087   5.083   4.769   5.225 -1.1283  0.4523 -1.3019
15866TIP3   OH269088   5.512   0.866  16.933  0.4461  0.3125 -0.5226
15866TIP3    H169089   5.521   0.951  16.976  1.5203 -0.6407  1.1994
15866TIP3    H269090   5.592   0.819  16.956 -0.2136 -1.2349 -1.3081
15867TIP3   OH269091   6.198   2.035   0.942 -0.1000  0.3069  0.0852
15867TIP3    H169092   6.171   2.018   0.852  0.6362  0.3867 -0.1581
15867TIP3    H269093   6.238   1.953   0.970  1.0087  0.7421 -0.1720
15868TIP3   OH269094   2.002   3.230  16.602 -0.2842 -0.2774  0.5966
15868TIP3    H169095   2.030   3.320  16.620  1.7181 -0.9651  1.0246
15868TIP3    H269096   1.937   3.212  16.671  2.0746 -0.4268  2.8742
15869TIP3   OH269097   0.311   3.866   5.516 -0.6290 -0.0945 -0.1089
15869TIP3    H169098   0.268   3.802   5.573 -1.5871  0.9319  0.3521
15869TIP3    H269099   0.316   3.945   5.569 -0.2953  0.4743 -0.9859
15870TIP3   OH269100   2.229   1.187  12.962 -0.0140  0.6279 -0.4073
15870TIP3    H169101   2.177   1.112  12.933 -0.3400  1.5107 -2.1466
15870TIP3    H269102   2.230   1.180  13.057  1.0386 -2.3224 -0.5768
15871TIP3   OH269103   4.765   2.806  14.204 -0.4416 -0.4243  0.0487
15871TIP3    H169104   4.764   2.814  14.299  2.7586 -0.9492  0.1759
15871TIP3    H269105   4.724   2.887  14.173 -1.7687 -0.3717  1.8390
15872TIP3   OH269106   1.107   5.700   5.140  0.3636  0.1880 -0.4030
15872TIP3    H169107   1.172   5.651   5.090  1.0685  0.1415  0.5565
15872TIP3    H269108   1.145   5.710   5.227 -0.7132  0.5546  0.0401
15873TIP3   OH269109   4.758   1.916  17.064 -0.1946 -0.0049  0.2047
15873TIP3    H169110   4.705   1.994  17.049  0.9080  0.3508 -2.1270
15873TIP3    H269111   4.848   1.949  17.070  0.0129 -0.8319  1.7979
15874TIP3   OH269112   3.002   5.001   0.441 -0.1710 -0.3201 -0.1770
15874TIP3    H169113   2.919   5.050   0.445  0.6024  0.9665  0.6795
15874TIP3    H269114   3.059   5.057   0.388  0.7039 -0.3162  0.7600
15875TIP3   OH269115   6.524   4.437   5.861  0.3154  0.1161  0.0376
15875TIP3    H169116   6.468   4.364   5.888  1.2524 -0.4361  0.5041
15875TIP3    H269117   6.510   4.445   5.767 -0.1162 -0.3939  0.0557
15876TIP3   OH269118   2.802   5.821  12.959  0.3812  0.3201  0.2323
15876TIP3    H169119   2.848   5.737  12.960 -0.1551  0.0316  1.3041
15876TIP3    H269120   2.713   5.800  12.929  0.4622  0.6288 -0.2419
15877TIP3   OH269121   6.221   1.915  11.691 -0.1513  0.3285 -0.2788
15877TIP3    H169122   6.302   1.966  11.701  1.4711 -1.9336 -1.3982
15877TIP3    H269123   6.191   1.935  11.603  0.4727 -0.6018 -0.7099
15878TIP3   OH269124   2.788   0.078  11.484 -0.0380  0.1691 -0.5012
15878TIP3    H169125   2.702   0.107  11.453  0.2682  2.4977  0.6923
15878TIP3    H269126   2.768   0.021  11.559 -0.5393  1.2420  0.1912
15879TIP3   OH269127   5.258   2.838  16.315 -0.6369 -0.3834  0.5426
15879TIP3    H169128   5.248   2.858  16.222  0.8013 -0.4886  0.3551
15879TIP3    H269129   5.302   2.752  16.317 -0.3692 -0.2360  1.3094
15880TIP3   OH269130   2.687   4.775  13.907  0.5135 -0.5370  0.1208
15880TIP3    H169131   2.629   4.780  13.831  0.9505  0.3175 -0.1608
15880TIP3    H269132   2.647   4.832  13.972 -0.8221 -2.6366  1.2080
15881TIP3   OH269133   2.237   6.258   4.624  0.4597 -0.4996 -0.6206
15881TIP3    H169134   2.261   6.350   4.632  0.2821 -0.5036  0.0119
15881TIP3    H269135   2.227   6.243   4.530 -1.3285  0.5997 -0.6247
15882TIP3   OH269136   4.602   0.608  10.383  0.2102 -0.0740  0.0914
15882TIP3    H169137   4.552   0.589  10.462  0.0302  1.7072  0.4230
15882TIP3    H269138   4.575   0.541  10.320 -0.6001 -0.7168  1.1178
15883TIP3   OH269139   6.505   0.288  11.297  0.0776  0.0702  0.7453
15883TIP3    H169140   6.586   0.338  11.308  1.8177 -2.5822  0.6668
15883TIP3    H269141   6.509   0.222  11.366 -0.7688 -1.6894 -0.8402
15884TIP3   OH269142   2.279   2.065  12.081  0.1619 -0.2200  0.1779
15884TIP3    H169143   2.252   2.110  12.161  0.5735  0.1730  0.0985
15884TIP3    H269144   2.199   2.026  12.047 -0.2086  0.4792  0.2315
15885TIP3   OH269145   3.885   5.185   0.515  0.3596 -0.0753  0.2039
15885TIP3    H169146   3.808   5.241   0.519  0.7910  0.6532 -1.3079
15885TIP3    H269147   3.957   5.242   0.543  0.3476 -0.8108  1.8151
15886TIP3   OH269148   0.780   3.842  13.396 -0.3918  0.2875  0.3410
15886TIP3    H169149   0.833   3.779  13.445 -2.4954 -1.2765  0.6856
15886TIP3    H269150   0.717   3.874  13.460 -0.4934  1.3774 -0.3020
15887TIP3   OH269151   5.361   4.333  13.670 -0.1675  0.0178 -0.4199
15887TIP3    H169152   5.450   4.336  13.706 -0.7424 -0.4868  1.1237
15887TIP3    H269153   5.367   4.273  13.596  0.7323 -0.1968 -0.1866
15888TIP3   OH269154   2.731   2.731  17.180 -0.0907 -0.2852 -0.1826
15888TIP3    H169155   2.727   2.669  17.107 -0.1373 -0.7614  0.2227
15888TIP3    H269156   2.803   2.700  17.234 -1.6933 -1.4416  1.3280
15889TIP3   OH269157   3.164   0.907   5.557 -0.3535  0.3874 -0.1029
15889TIP3    H169158   3.136   0.826   5.601 -0.7082 -0.5853 -2.0353
15889TIP3    H269159   3.082   0.950   5.533 -0.1944  0.1609 -1.0935
15890TIP3   OH269160   3.522   5.919   0.570  1.0975  0.3057 -0.1113
15890TIP3    H169161   3.503   6.009   0.597 -2.1944  0.2336 -1.9044
15890TIP3    H269162   3.599   5.927   0.513 -0.3975  2.3400 -1.9573
15891TIP3   OH269163   3.204   4.122   5.022 -0.1402  0.4565 -0.2036
15891TIP3    H169164   3.299   4.117   5.030 -0.1614 -0.8801 -0.7460
15891TIP3    H269165   3.188   4.130   4.928 -0.6445 -1.4547 -0.2981
15892TIP3   OH269166   1.939   0.328   5.699  0.1141 -0.3786 -0.6844
15892TIP3    H169167   1.864   0.291   5.745 -0.2683  1.4807  0.2333
15892TIP3    H269168   2.014   0.304   5.754 -0.0284 -0.5397 -0.5578
15893TIP3   OH269169   5.599   4.104  15.662 -0.0235 -0.6748 -0.5514
15893TIP3    H169170   5.642   4.047  15.598  1.4186  0.3741 -0.5315
15893TIP3    H269171   5.669   4.130  15.722 -1.1050 -0.6216  0.7161
15894TIP3   OH269172   0.791   5.043   1.809  0.2496  0.2502  0.2829
15894TIP3    H169173   0.868   5.095   1.832  1.2990 -0.4569 -1.6047
15894TIP3    H269174   0.762   5.006   1.893  0.9378  1.8662  1.2663
15895TIP3   OH269175   3.690   3.123  15.694  0.0882 -0.5832  0.1798
15895TIP3    H169176   3.749   3.196  15.675  2.0478 -2.3026 -0.4833
15895TIP3    H269177   3.736   3.069  15.757 -1.8721 -0.6343  1.6160
15896TIP3   OH269178   0.690   3.577   2.141  0.1174 -0.3985 -0.3618
15896TIP3    H169179   0.762   3.593   2.080  0.5954 -1.2716 -0.0287
15896TIP3    H269180   0.666   3.486   2.126 -0.0600 -0.4825  0.4383
15897TIP3   OH269181   4.228   6.084  14.674 -0.5387  0.0436 -0.0486
15897TIP3    H169182   4.265   5.997  14.681  0.3291  0.4478  0.4827
15897TIP3    H269183   4.303   6.143  14.684 -1.1831  0.8530  0.0980
15898TIP3   OH269184   6.103   6.152  11.689  0.2062  0.2357  0.5422
15898TIP3    H169185   6.169   6.115  11.748  0.0874 -2.5479 -0.9778
15898TIP3    H269186   6.020   6.113  11.719 -0.0462 -0.0978 -0.5728
15899TIP3   OH269187   6.757   5.538  11.142  0.1971 -0.0055 -0.1070
15899TIP3    H169188   6.680   5.507  11.190 -0.4334 -0.5930 -1.4715
15899TIP3    H269189   6.722   5.594  11.074  1.1373  1.3625  0.5224
15900TIP3   OH269190   1.862   5.700   5.870 -0.4453 -0.0073 -0.1996
15900TIP3    H169191   1.847   5.776   5.926  1.0081  0.6495 -0.7004
15900TIP3    H269192   1.867   5.736   5.781  1.7902 -0.4761 -0.2926
15901TIP3   OH269193   5.763   1.246   2.173  0.5748  0.3669 -0.3989
15901TIP3    H169194   5.692   1.285   2.123  1.0177  0.4277 -0.9784
15901TIP3    H269195   5.786   1.312   2.239 -0.7217 -0.1351  0.5738
15902TIP3   OH269196   4.581   2.458  17.108 -0.9729  0.5730  0.5814
15902TIP3    H169197   4.532   2.516  17.050 -1.5362  0.0851  0.5682
15902TIP3    H269198   4.632   2.517  17.164 -0.0006  1.0453 -0.7633
15903TIP3   OH269199   4.853   0.598  16.278  0.1083  0.2625 -0.1963
15903TIP3    H169200   4.919   0.531  16.261 -0.6396 -0.0274 -2.0213
15903TIP3    H269201   4.895   0.680  16.251  0.4547  0.3560  0.5917
15904TIP3   OH269202   2.366   5.082  12.035  0.1246  0.2160  0.1805
15904TIP3    H169203   2.396   5.019  11.970  0.4005 -1.7026  2.0906
15904TIP3    H269204   2.377   5.168  11.994  1.3616 -0.8857 -1.8293
15905TIP3   OH269205   2.815   1.109  13.013 -0.0971 -0.3967 -0.3276
15905TIP3    H169206   2.830   1.173  13.083 -0.8634 -0.2532 -0.2890
15905TIP3    H269207   2.895   1.113  12.960  1.6565 -2.4415  2.0159
15906TIP3   OH269208   3.237   3.516   0.167  0.4235  0.5005 -0.2075
15906TIP3    H169209   3.196   3.436   0.134  0.5267  0.0567  0.7185
15906TIP3    H269210   3.185   3.587   0.131 -1.2551 -0.0560  1.0787
15907TIP3   OH269211   1.870   1.280   2.434  0.1624 -0.0629 -0.4593
15907TIP3    H169212   1.914   1.245   2.357  1.3324  1.3299 -0.4451
15907TIP3    H269213   1.820   1.355   2.402  0.3191  0.2691  0.0651
15908TIP3   OH269214   6.160   3.453   3.871 -0.5333  0.1888 -0.0634
15908TIP3    H169215   6.220   3.473   3.800 -0.1343 -0.7877 -0.0049
15908TIP3    H269216   6.105   3.531   3.879 -0.4560  0.3739 -1.3091
15909TIP3   OH269217   5.254   2.502  16.055 -0.3405  0.3884 -0.4171
15909TIP3    H169218   5.181   2.439  16.050 -0.0465  0.0251 -0.1904
15909TIP3    H269219   5.243   2.558  15.978  0.0520 -0.6674 -1.2659
15910TIP3   OH269220   3.981   1.562  10.740  0.1968  0.0984  0.2079
15910TIP3    H169221   4.029   1.621  10.681  1.3092 -0.7003  0.3160
15910TIP3    H269222   4.042   1.543  10.811 -1.5300  1.9924  2.2868
15911TIP3   OH269223   4.027   6.336  16.368 -0.3088  0.7712 -0.1615
15911TIP3    H169224   3.963   6.392  16.323 -0.6710  0.1394 -0.4271
15911TIP3    H269225   4.110   6.384  16.360 -0.8291  1.8506  0.6270
15912TIP3   OH269226   4.677   3.823  11.441  0.5583 -0.5594  0.0732
15912TIP3    H169227   4.657   3.853  11.352  1.8325 -0.3420 -0.1437
15912TIP3    H269228   4.630   3.884  11.497 -1.4654 -1.5681 -0.4533
15913TIP3   OH269229   1.820   6.374   5.315  0.6587 -0.1955 -0.4315
15913TIP3    H169230   1.741   6.381   5.369  1.6811 -1.4863  1.2692
15913TIP3    H269231   1.803   6.432   5.241 -1.0303  1.1473  0.9566
15914TIP3   OH269232   2.720   5.866   3.268  0.0172  0.0560 -0.3781
15914TIP3    H169233   2.718   5.914   3.351 -0.8581 -1.4898  0.5068
15914TIP3    H269234   2.801   5.815   3.271  0.1195  0.2049 -0.5964
15915TIP3   OH269235   1.259   6.768  13.555 -0.1833  0.0149 -0.8663
15915TIP3    H169236   1.295   6.831  13.618  0.3454 -1.2992  0.1722
15915TIP3    H269237   1.249   6.687  13.605 -2.6741 -0.2167 -1.6891
15916TIP3   OH269238   1.676   4.003  12.611  0.1564 -0.4286 -0.0793
15916TIP3    H169239   1.672   3.949  12.689  1.3847 -0.2981  0.0857
15916TIP3    H269240   1.591   3.992  12.569 -0.4631 -0.5748  1.2184
15917TIP3   OH269241   0.209   3.174   3.146 -0.2002  0.3082 -0.0889
15917TIP3    H169242   0.247   3.261   3.161  0.2186  0.1641 -0.3039
15917TIP3    H269243   0.205   3.166   3.051 -2.2982  0.9851 -0.0958
15918TIP3   OH269244   5.530   5.727  13.270  0.1193  0.5904  0.2142
15918TIP3    H169245   5.515   5.647  13.320 -1.2406  1.3169  0.9975
15918TIP3    H269246   5.480   5.715  13.189  0.5152  0.3433  0.0054
15919TIP3   OH269247   6.051   4.063   3.142  0.1300 -0.0506 -0.2644
15919TIP3    H169248   6.126   4.062   3.083  0.2685 -0.3705 -0.0854
15919TIP3    H269249   6.072   4.129   3.207  0.6070 -0.6917  0.2349
15920TIP3   OH269250   0.947   3.725  16.124  0.2120 -0.0802  0.0998
15920TIP3    H169251   0.998   3.697  16.048 -2.0564 -0.7696 -1.2287
15920TIP3    H269252   0.888   3.651  16.141 -2.2571  1.7627 -0.1836
15921TIP3   OH269253   4.668   3.590  13.054 -0.3058 -0.2711  0.1193
15921TIP3    H169254   4.709   3.542  12.982 -1.5904 -0.6617 -0.3540
15921TIP3    H269255   4.646   3.676  13.016  2.3062  0.8638  1.0540
15922TIP3   OH269256   2.059   3.030   3.911 -0.1921  0.1086  0.2832
15922TIP3    H169257   1.975   3.074   3.907 -0.6188 -0.8040 -1.2423
15922TIP3    H269258   2.043   2.952   3.965 -0.2060  0.1832  0.3861
15923TIP3   OH269259   4.477   4.925   4.272  0.0463  0.1734 -0.4163
15923TIP3    H169260   4.540   4.997   4.260 -0.8994  1.5003  2.1315
15923TIP3    H269261   4.391   4.967   4.263 -0.5217 -1.4545 -2.9878
15924TIP3   OH269262   1.018   0.268   4.724 -0.0779  0.1208 -0.5997
15924TIP3    H169263   1.031   0.302   4.635 -2.1320 -0.6840 -1.2503
15924TIP3    H269264   1.032   0.344   4.781 -2.4158  1.6074 -1.8930
15925TIP3   OH269265   0.685   0.351  14.193  0.0579 -0.1144 -0.0150
15925TIP3    H169266   0.678   0.257  14.176 -0.8604 -0.1269  0.4209
15925TIP3    H269267   0.773   0.374  14.164 -0.4492 -0.7024 -2.1217
15926TIP3   OH269268   0.158   0.601  14.037 -0.1290  0.2793 -0.3249
15926TIP3    H169269   0.145   0.536  13.969 -3.7611  0.5503  0.0430
15926TIP3    H269270   0.251   0.592  14.061  0.3995 -2.0190 -2.9806
15927TIP3   OH269271   1.133   1.782   3.827 -0.2625  0.7031 -0.2030
15927TIP3    H169272   1.199   1.794   3.896 -1.0837  0.3096  0.6543
15927TIP3    H269273   1.138   1.689   3.806 -1.3640  0.4236  0.7088
15928TIP3   OH269274   4.898   4.025   4.187  0.1146  0.4822 -0.7807
15928TIP3    H169275   4.924   4.117   4.197  0.6179  0.2279  0.2737
15928TIP3    H269276   4.854   4.022   4.102 -0.5779  1.8455 -0.4804
15929TIP3   OH269277   5.278   0.379  14.250  0.0802  0.4696  0.4280
15929TIP3    H169278   5.271   0.445  14.180  0.3445 -0.7675 -0.8047
15929TIP3    H269279   5.338   0.314  14.213 -1.2210 -1.1140  1.1067
15930TIP3   OH269280   4.327   4.617  14.028 -0.9382 -0.0596 -0.2041
15930TIP3    H169281   4.299   4.631  13.937  0.4581  0.8203 -0.5122
15930TIP3    H269282   4.329   4.705  14.066  0.6307 -0.1816  0.0273
15931TIP3   OH269283   0.613   0.520  15.729 -0.3709 -0.0176  0.2702
15931TIP3    H169284   0.566   0.482  15.654 -0.3487  0.6396 -0.0747
15931TIP3    H269285   0.704   0.525  15.699 -0.3646  0.2619  0.3407
15932TIP3   OH269286   4.267   4.179   1.461 -0.0314 -0.0030  0.6168
15932TIP3    H169287   4.315   4.260   1.447 -1.6752  0.8999  0.0611
15932TIP3    H269288   4.287   4.154   1.551  1.1421  0.5574  0.5235
15933TIP3   OH269289   6.274   2.136   3.879  0.2373 -0.2037  0.3487
15933TIP3    H169290   6.231   2.222   3.877  0.2817 -0.1950 -0.2909
15933TIP3    H269291   6.221   2.081   3.822 -0.9742 -1.1723  2.3383
15934TIP3   OH269292   3.734   2.131  12.965  0.0751 -0.6258  0.4355
15934TIP3    H169293   3.716   2.092  13.050  0.7493 -0.0036  0.8714
15934TIP3    H269294   3.771   2.060  12.913  0.2760 -0.8374  0.8711
15935TIP3   OH269295   2.193   0.836  16.880 -0.2619 -0.1300  0.0076
15935TIP3    H169296   2.209   0.759  16.825  0.0782  0.9054 -1.3555
15935TIP3    H269297   2.249   0.821  16.957  1.4178 -0.2539 -1.2020
15936TIP3   OH269298   2.338   5.333  15.878 -0.0700  0.2612 -0.4039
15936TIP3    H169299   2.300   5.247  15.895 -0.4783  0.2819 -1.1837
15936TIP3    H269300   2.431   5.322  15.897 -0.4431  0.2094  1.4963
15937TIP3   OH269301   5.014   6.152   4.918 -0.1762 -0.1972  0.0167
15937TIP3    H169302   5.015   6.153   4.822 -0.0443  0.1645  0.0227
15937TIP3    H269303   5.055   6.069   4.941 -0.1826 -0.2718 -0.2407
15938TIP3   OH269304   0.806   0.779   1.571 -0.3171  0.1244 -0.3300
15938TIP3    H169305   0.779   0.704   1.519 -0.2236  0.2581 -0.5694
15938TIP3    H269306   0.725   0.808   1.615 -0.5316  0.4282 -0.9223
15939TIP3   OH269307   6.623   0.461  16.875 -0.0163 -0.1266 -0.3265
15939TIP3    H169308   6.607   0.458  16.969  0.7095 -1.1051 -0.2283
15939TIP3    H269309   6.718   0.466  16.866 -0.0682 -0.2402 -1.0135
15940TIP3   OH269310   4.836   4.989  11.861 -0.1316 -0.1658 -0.1517
15940TIP3    H169311   4.926   4.958  11.869 -0.5906 -1.2234  1.0349
15940TIP3    H269312   4.839   5.054  11.791  1.8042  0.7665  0.7596
15941TIP3   OH269313   0.825   0.715   1.109 -0.1900 -0.4323 -0.4810
15941TIP3    H169314   0.894   0.656   1.080  0.3850 -0.5159  1.0430
15941TIP3    H269315   0.750   0.658   1.127  0.7392 -0.8714  2.1660
15942TIP3   OH269316   3.557   1.751   5.820 -0.9442 -0.7671 -0.5403
15942TIP3    H169317   3.559   1.714   5.909  2.2009  1.8571  0.5970
15942TIP3    H269318   3.490   1.819   5.824  0.6831  0.8408  0.5578
15943TIP3   OH269319   0.593   2.062   0.299 -0.2187  0.0485 -0.5699
15943TIP3    H169320   0.596   2.126   0.228  0.7632 -0.0038 -0.5825
15943TIP3    H269321   0.665   2.003   0.282  0.0879  0.0870  0.5176
15944TIP3   OH269322   3.172   3.440  15.170 -0.5315 -0.2524  0.1742
15944TIP3    H169323   3.121   3.504  15.219 -0.2523  0.3519 -0.3230
15944TIP3    H269324   3.252   3.428  15.222 -0.3167  0.2496 -0.0464
15945TIP3   OH269325   0.379   5.660   5.052  0.5919  0.4555  0.2956
15945TIP3    H169326   0.302   5.717   5.060  1.8437  2.1645  0.3436
15945TIP3    H269327   0.348   5.575   5.083 -2.0572  0.4050 -2.2128
15946TIP3   OH269328   4.531   2.607   3.456 -0.0213  0.0532 -0.0231
15946TIP3    H169329   4.474   2.683   3.464 -1.1316 -0.7697  0.0274
15946TIP3    H269330   4.479   2.543   3.407 -0.1297 -1.6416  2.1937
15947TIP3   OH269331   3.602   4.444   2.046  0.3543 -0.2731  0.4763
15947TIP3    H169332   3.666   4.412   1.982  1.9449  0.4702  1.6327
15947TIP3    H269333   3.524   4.391   2.031  1.9948 -2.8009  0.5173
15948TIP3   OH269334   5.830   2.404  11.216  0.0462 -0.5369  0.3242
15948TIP3    H169335   5.844   2.378  11.125  1.5372  1.2387  0.0219
15948TIP3    H269336   5.830   2.500  11.214 -1.1330 -0.4752  2.0254
15949TIP3   OH269337   3.629   3.515  13.433 -0.6882  0.3202  0.1854
15949TIP3    H169338   3.651   3.436  13.384 -0.3164 -0.2970  1.3352
15949TIP3    H269339   3.564   3.560  13.378  1.9114  1.1721 -2.3088
15950TIP3   OH269340   1.427   4.801  12.531 -0.2589 -0.3304 -0.4052
15950TIP3    H169341   1.451   4.848  12.610 -0.2403 -1.0968  0.0481
15950TIP3    H269342   1.374   4.727  12.561  1.2313 -1.6545 -0.9268
15951TIP3   OH269343   4.052   4.090  16.597 -0.4794  0.0613 -0.0193
15951TIP3    H169344   3.995   4.132  16.662  2.3903  0.1709  2.5029
15951TIP3    H269345   4.087   4.162  16.546 -0.6875  0.1855  0.0085
15952TIP3   OH269346   0.763   4.978  12.300  0.5878 -0.1653 -0.1059
15952TIP3    H169347   0.670   4.982  12.323  0.4471  3.0297 -1.0431
15952TIP3    H269348   0.808   4.995  12.383  0.4072 -2.9733  0.6108
15953TIP3   OH269349   6.032   4.323   3.747 -0.2725  0.0228  0.0633
15953TIP3    H169350   5.968   4.389   3.771  0.0096  0.6694 -0.9069
15953TIP3    H269351   5.986   4.240   3.755 -0.7900  0.3825  0.7808
15954TIP3   OH269352   4.443   6.045   5.039  0.0998  0.0043 -0.4483
15954TIP3    H169353   4.433   6.092   5.122  2.6788 -0.1506 -0.0155
15954TIP3    H269354   4.491   6.105   4.983  0.7757 -0.9631 -0.9111
15955TIP3   OH269355   1.537   3.208   5.464  0.0823 -0.2523  0.3729
15955TIP3    H169356   1.600   3.279   5.462 -0.2120  0.0942  2.1536
15955TIP3    H269357   1.452   3.252   5.469 -0.1420 -0.7114  0.6563
15956TIP3   OH269358   6.783   0.846   0.563  0.2130  0.4050  0.3764
15956TIP3    H169359   6.862   0.888   0.597  1.1318 -0.1182 -1.0967
15956TIP3    H269360   6.725   0.841   0.639  2.0514 -0.3046  1.7782
15957TIP3   OH269361   3.781   5.535  11.606  0.2631  0.4778 -0.2326
15957TIP3    H169362   3.743   5.470  11.548  1.5024 -1.9254  1.5635
15957TIP3    H269363   3.873   5.539  11.580  0.7045 -0.2233  1.1871
15958TIP3   OH269364   0.026   2.600  12.305  0.1378 -0.4612  0.8129
15958TIP3    H169365   0.066   2.646  12.379  0.5347 -0.0431  0.3390
15958TIP3    H269366   0.099   2.584  12.245 -0.2552 -0.4668  0.3385
15959TIP3   OH269367   6.608   5.292  17.164  0.1496  0.0159  0.3096
15959TIP3    H169368   6.691   5.297  17.213  0.3529 -0.8248  0.0624
15959TIP3    H269369   6.621   5.220  17.102 -0.4970  0.3753 -0.2518
15960TIP3   OH269370   1.177   3.151  13.085 -0.2819  0.4398 -0.0647
15960TIP3    H169371   1.218   3.072  13.120 -1.7904 -0.9338 -1.3319
15960TIP3    H269372   1.109   3.173  13.149 -1.7114 -0.9173 -1.0898
15961TIP3   OH269373   5.751   1.155  12.386 -0.6113  0.1001 -0.2394
15961TIP3    H169374   5.742   1.060  12.387 -1.3393  0.1670  0.1141
15961TIP3    H269375   5.799   1.174  12.305 -0.3044 -0.5768 -0.2204
15962TIP3   OH269376   3.490   3.210   0.840  0.2008 -0.0012  0.0560
15962TIP3    H169377   3.421   3.190   0.903  1.5519 -4.1733  0.4008
15962TIP3    H269378   3.456   3.179   0.756  0.4498  0.7224 -0.3136
15963TIP3   OH269379   0.494   6.105  13.623 -0.0554 -0.1443  0.0742
15963TIP3    H169380   0.489   6.167  13.696 -0.9081  1.7340 -1.5563
15963TIP3    H269381   0.548   6.033  13.657  1.7239  1.8877  1.7103
15964TIP3   OH269382   6.726   2.421  13.131  0.8219 -0.6184 -0.0393
15964TIP3    H169383   6.783   2.498  13.133 -1.9234  1.5143 -0.1676
15964TIP3    H269384   6.708   2.408  13.037  0.0428 -0.4242  0.0766
15965TIP3   OH269385   1.449   3.580   1.422 -0.1315  0.2009 -0.0236
15965TIP3    H169386   1.522   3.598   1.481  1.5336 -0.1381 -1.9008
15965TIP3    H269387   1.381   3.544   1.478  1.2246  0.3173  1.7511
15966TIP3   OH269388   6.722   6.162   1.521  0.1511 -0.0473 -0.0390
15966TIP3    H169389   6.782   6.166   1.595 -0.4643 -0.1928  0.4669
15966TIP3    H269390   6.725   6.250   1.483 -0.4270  0.3604  0.8602
15967TIP3   OH269391   5.872   4.903  10.854  0.1186 -0.2770 -0.1437
15967TIP3    H169392   5.814   4.925  10.780 -0.0060 -0.4954 -0.1111
15967TIP3    H269393   5.920   4.826  10.824  1.2228  0.5693 -0.6135
15968TIP3   OH269394   4.632   5.658  15.164  0.1438  0.6863  0.2717
15968TIP3    H169395   4.569   5.648  15.235 -0.9051  1.8162 -0.4707
15968TIP3    H269396   4.623   5.749  15.137 -0.0656  0.0833 -1.8354
15969TIP3   OH269397   2.048   2.963   6.298 -0.7535  0.1345  0.3069
15969TIP3    H169398   2.070   3.050   6.263  2.1477  0.1275  2.0211
15969TIP3    H269399   2.057   2.904   6.223  0.4355  0.8514 -0.1155
15970TIP3   OH269400   3.210   5.511  12.775  0.2999 -0.0696  0.1632
15970TIP3    H169401   3.125   5.554  12.776  1.3602  2.1110  0.1389
15970TIP3    H269402   3.194   5.426  12.734 -2.0204 -0.0690  1.0326
15971TIP3   OH269403   2.935   5.879  13.213  0.2319  0.2594  0.0939
15971TIP3    H169404   2.866   5.914  13.269  0.4800 -0.6773  1.0127
15971TIP3    H269405   2.890   5.851  13.133 -0.5706 -0.9720  0.9594
15972TIP3   OH269406   3.366   1.039   2.946  0.3466 -0.0361 -0.4018
15972TIP3    H169407   3.386   1.081   3.030 -0.7069  0.0591 -0.1900
15972TIP3    H269408   3.389   0.947   2.959  0.9131  0.1259 -0.2598
15973TIP3   OH269409   5.087   0.749   5.560 -0.1905 -0.1147  0.2922
15973TIP3    H169410   5.149   0.761   5.487 -0.1341 -0.2813  0.3124
15973TIP3    H269411   5.038   0.831   5.564 -0.3699 -0.2020 -0.0997
15974TIP3   OH269412   5.938   3.695  15.689 -0.2640  0.2217  0.1452
15974TIP3    H169413   6.028   3.724  15.704  0.9835 -2.3416 -1.9298
15974TIP3    H269414   5.899   3.766  15.638  1.2307  0.4751 -0.6913
15975TIP3   OH269415   6.120   2.367  15.683 -0.0302 -0.1142 -0.2125
15975TIP3    H169416   6.063   2.397  15.754 -0.4850  0.7203 -0.9319
15975TIP3    H269417   6.099   2.275  15.672  1.0841 -0.6306  1.7395
15976TIP3   OH269418   0.103   6.594   4.315  0.2377  0.4987 -0.3350
15976TIP3    H169419   0.067   6.587   4.226 -0.5255  0.5601 -0.0393
15976TIP3    H269420   0.197   6.601   4.302  0.5405 -3.6794 -0.9870
15977TIP3   OH269421   0.903   4.214  12.314  0.5311 -0.3347  0.1825
15977TIP3    H169422   0.964   4.252  12.378  2.0530 -4.0976  1.0802
15977TIP3    H269423   0.947   4.226  12.230  0.9017  0.0827  0.4325
15978TIP3   OH269424   5.634   3.215  16.930  0.1915 -0.4858 -0.6159
15978TIP3    H169425   5.615   3.303  16.963 -0.7311 -0.2380 -1.8006
15978TIP3    H269426   5.680   3.230  16.848 -0.9702 -1.1148 -1.3790
15979TIP3   OH269427   6.158   6.370   3.058 -0.0079 -0.2121 -0.1820
15979TIP3    H169428   6.186   6.304   2.994 -2.1730 -0.9026 -0.4330
15979TIP3    H269429   6.126   6.319   3.133  0.8417  0.5866  0.7389
15980TIP3   OH269430   0.578   1.393  16.947 -0.3752 -0.0606 -0.1360
15980TIP3    H169431   0.519   1.463  16.975 -0.2914 -0.0871  0.1105
15980TIP3    H269432   0.579   1.332  17.021 -1.9461 -1.2850 -1.0653
15981TIP3   OH269433   3.542   1.437   2.054 -0.2053 -0.2132 -0.1059
15981TIP3    H169434   3.470   1.497   2.074 -0.4665  0.2660 -2.4185
15981TIP3    H269435   3.501   1.364   2.009  0.8130  0.3149 -1.9333
15982TIP3   OH269436   0.433   5.757   2.442  0.3745  0.2727  0.4950
15982TIP3    H169437   0.445   5.843   2.401  0.2003  0.6972  1.3280
15982TIP3    H269438   0.348   5.727   2.410  0.9881 -0.1387 -0.7688
15983TIP3   OH269439   4.683   0.928   1.315  0.7536 -0.1633 -0.0837
15983TIP3    H169440   4.668   1.003   1.258 -0.5549 -1.9434 -2.1871
15983TIP3    H269441   4.759   0.885   1.277 -0.0721 -1.3058 -0.4929
15984TIP3   OH269442   4.013   4.058   0.555  0.4316 -0.3190  0.2330
15984TIP3    H169443   3.923   4.043   0.584  0.6408  2.5091  2.5616
15984TIP3    H269444   4.004   4.088   0.465 -0.6993 -2.9913 -0.5970
15985TIP3   OH269445   4.137   1.752  11.326  0.0525  0.4016 -0.6043
15985TIP3    H169446   4.162   1.723  11.238 -2.1582  1.8621 -1.7711
15985TIP3    H269447   4.151   1.846  11.325 -0.4699  0.4963  0.4603
15986TIP3   OH269448   0.052   3.970  13.707  0.3294 -0.3799  0.7636
15986TIP3    H169449   0.009   3.888  13.730 -0.8953  0.1581  0.4518
15986TIP3    H269450   0.046   3.974  13.611 -0.5983  0.5782  0.8472
15987TIP3   OH269451   4.072   5.584  15.375  0.1712  0.1166 -0.1117
15987TIP3    H169452   4.029   5.500  15.361 -1.0230  0.6841  0.0608
15987TIP3    H269453   4.153   5.579  15.324 -0.6946 -0.5015 -1.4390
15988TIP3   OH269454   3.198   1.554   5.365  0.1218  0.7195  0.4389
15988TIP3    H169455   3.186   1.596   5.450 -1.4735  1.2851 -0.0430
15988TIP3    H269456   3.292   1.536   5.360 -0.0353 -1.2002  3.1969
15989TIP3   OH269457   3.054   3.270  12.940 -0.2408 -0.0896  0.7315
15989TIP3    H169458   3.014   3.226  12.865  0.8406  1.7837 -1.0101
15989TIP3    H269459   2.989   3.263  13.010 -1.7559 -0.8700 -0.7260
15990TIP3   OH269460   3.714   4.003   2.829 -0.2725 -0.1686 -0.4294
15990TIP3    H169461   3.705   4.031   2.738 -1.7176  0.9846  0.0519
15990TIP3    H269462   3.681   4.076   2.881  1.7796 -0.2803  1.0884
15991TIP3   OH269463   4.159   5.197  14.836  0.9868  0.0365 -0.3447
15991TIP3    H169464   4.171   5.285  14.871 -0.2042  0.3199 -0.6436
15991TIP3    H269465   4.196   5.201  14.748 -1.9026  1.1260 -1.5599
15992TIP3   OH269466   1.630   0.262  11.811  0.4506 -0.2737  0.2292
15992TIP3    H169467   1.666   0.192  11.864  0.5797  0.1451  0.6938
15992TIP3    H269468   1.595   0.218  11.733  0.3682 -0.8684  0.6034
15993TIP3   OH269469   1.604   4.586  13.295 -0.2466 -0.1370  0.2318
15993TIP3    H169470   1.609   4.596  13.200  1.4600  1.8426  0.5066
15993TIP3    H269471   1.556   4.504  13.307 -1.2472  0.0128 -2.3150
15994TIP3   OH269472   1.615   6.333   4.958 -0.6509 -0.2036 -0.0352
15994TIP3    H169473   1.635   6.246   4.994 -1.6809 -1.5421 -2.5634
15994TIP3    H269474   1.661   6.394   5.016  1.8290 -2.5503  0.5653
15995TIP3   OH269475   6.780   5.837  11.676 -0.5298 -0.5923  0.1400
15995TIP3    H169476   6.792   5.827  11.771 -1.4203  1.7984  0.5462
15995TIP3    H269477   6.784   5.932  11.662 -0.9360 -0.8981 -2.1477
15996TIP3   OH269478   0.919   1.394  14.081 -0.8365  0.1837  0.5616
15996TIP3    H169479   0.898   1.482  14.048  1.2607  0.8468  0.8883
15996TIP3    H269480   0.939   1.343  14.002  0.3064  0.6880  0.5065
15997TIP3   OH269481   6.045   4.849  12.329  0.0399  0.4476  0.2975
15997TIP3    H169482   5.967   4.820  12.377 -1.4116  0.6733 -1.9092
15997TIP3    H269483   6.064   4.777  12.269  1.6456  0.3254  0.9215
15998TIP3   OH269484   6.691   1.434   6.515 -0.2961  0.0926 -0.6339
15998TIP3    H169485   6.759   1.424   6.582 -0.4632  0.9046 -0.3420
15998TIP3    H269486   6.737   1.417   6.433  0.7503  2.5959 -0.6159
15999TIP3   OH269487   5.393   5.779  16.970 -0.1893 -0.3407 -0.2722
15999TIP3    H169488   5.322   5.843  16.975  0.3375  0.2003  0.7159
15999TIP3    H269489   5.363   5.714  16.907 -1.0671  0.4784 -0.7231
16000TIP3   OH269490   4.187   5.698   3.414  0.2720 -0.4955 -0.4763
16000TIP3    H169491   4.274   5.674   3.381 -0.2513 -1.7147 -0.9989
16000TIP3    H269492   4.181   5.792   3.399  0.5691 -0.7848 -2.6943
16001TIP3   OH269493   3.779   5.727   2.092  0.2005  0.2349 -0.6876
16001TIP3    H169494   3.743   5.641   2.116  1.1775 -0.8471 -2.8945
16001TIP3    H269495   3.868   5.708   2.063  0.3465  1.9680 -1.4246
16002TIP3   OH269496   4.284   3.453   1.629  0.2236  0.0487  0.2250
16002TIP3    H169497   4.203   3.404   1.645  0.4167 -1.5398 -3.3554
16002TIP3    H269498   4.354   3.393   1.652  0.4641  1.0268  2.1985
16003TIP3   OH269499   0.841   3.010  13.562 -0.6696  0.3554  0.0125
16003TIP3    H169500   0.935   2.992  13.563 -0.2897  2.2065  1.2614
16003TIP3    H269501   0.803   2.939  13.512  1.3094 -0.8939  0.2421
16004TIP3   OH269502   1.630   4.332   4.362  0.1025  0.2047 -0.3791
16004TIP3    H169503   1.565   4.319   4.293  0.7114 -2.3959 -0.5280
16004TIP3    H269504   1.581   4.330   4.443 -0.2322  0.0907 -0.5851
16005TIP3   OH269505   3.025   6.560  12.465  0.1108 -0.6353  0.3339
16005TIP3    H169506   2.991   6.638  12.421 -0.1144 -0.6196  0.5365
16005TIP3    H269507   2.965   6.545  12.537 -0.0325 -1.1851  0.1065
16006TIP3   OH269508   0.353   5.206  11.019 -0.7488 -0.1934 -0.1276
16006TIP3    H169509   0.426   5.148  10.996 -0.2823 -0.0654  0.9905
16006TIP3    H269510   0.296   5.153  11.075 -1.0767 -0.0297 -0.3028
16007TIP3   OH269511   2.086   0.197  16.703  0.1498  0.6324 -0.1836
16007TIP3    H169512   2.142   0.125  16.674 -0.1524  0.6265 -0.7545
16007TIP3    H269513   2.030   0.158  16.771  0.1470  0.3879 -0.3271
16008TIP3   OH269514   2.124   3.975  12.070  0.1670 -0.0381  0.1544
16008TIP3    H169515   2.080   3.940  12.148  2.0477 -0.2132  1.1637
16008TIP3    H269516   2.165   3.899  12.029  1.5451  0.4714  0.5612
16009TIP3   OH269517   0.153   4.642   1.265  0.2562  0.1950 -0.0748
16009TIP3    H169518   0.207   4.662   1.341 -0.0713 -0.3517  0.3038
16009TIP3    H269519   0.119   4.554   1.282 -0.9301  0.6181 -0.1904
16010TIP3   OH269520   0.654   2.985  11.354  0.0880  0.0073  0.0103
16010TIP3    H169521   0.560   2.982  11.373  0.2927  1.4032  1.2681
16010TIP3    H269522   0.679   2.893  11.347 -0.8821 -0.4648  2.2028
16011TIP3   OH269523   4.518   3.564  11.647  0.4116 -0.0766  0.0869
16011TIP3    H169524   4.448   3.617  11.607  3.5468  3.1713 -1.3942
16011TIP3    H269525   4.537   3.608  11.730  0.3454 -1.2560  0.7345
16012TIP3   OH269526   0.140   4.801  16.579  0.5507 -0.3439  0.0412
16012TIP3    H169527   0.233   4.816  16.561  0.8044  0.7014  2.1246
16012TIP3    H269528   0.126   4.710  16.554  2.1794 -0.5723 -0.1139
16013TIP3   OH269529   2.988   4.705  15.962 -0.9103  0.6781 -0.2482
16013TIP3    H169530   2.943   4.637  15.912 -0.7218 -0.2688  0.8340
16013TIP3    H269531   3.078   4.673  15.969 -0.9427  0.7749  0.7045
16014TIP3   OH269532   4.840   0.569  16.967 -0.6622 -0.4474 -0.3383
16014TIP3    H169533   4.897   0.640  16.996 -1.0379  0.4743 -1.7786
16014TIP3    H269534   4.785   0.550  17.043 -0.6489  0.9193  0.0329
16015TIP3   OH269535   3.926   1.504  11.104 -0.5334 -0.4198  0.0163
16015TIP3    H169536   3.965   1.535  11.022  0.4597  2.0631  1.3674
16015TIP3    H269537   3.965   1.418  11.118  1.1580  0.1620 -0.8959
16016TIP3   OH269538   1.717   2.682   3.440  0.1678 -0.2099  0.1822
16016TIP3    H169539   1.627   2.651   3.433  0.6984 -1.3024 -2.7354
16016TIP3    H269540   1.715   2.771   3.404  0.1533 -0.0447  0.5946
16017TIP3   OH269541   3.384   6.324   1.620  0.2158  0.5896 -0.2442
16017TIP3    H169542   3.360   6.233   1.605  0.3378  0.3862  0.7426
16017TIP3    H269543   3.455   6.341   1.559  0.8804 -0.2923  0.2735
16018TIP3   OH269544   1.571   1.027   6.351 -0.6299  0.0668 -0.4562
16018TIP3    H169545   1.512   0.976   6.296 -0.9717  1.6474 -1.5620
16018TIP3    H269546   1.523   1.107   6.371  0.6744  0.8614 -0.4129
16019TIP3   OH269547   4.171   4.670  10.786  0.2849 -0.0970 -0.0757
16019TIP3    H169548   4.211   4.682  10.701  0.3765  0.0804 -0.0094
16019TIP3    H269549   4.158   4.576  10.794 -1.1539  0.0109 -0.9457
16020TIP3   OH269550   4.164   2.156   1.055  0.5275 -0.0094 -0.4567
16020TIP3    H169551   4.156   2.234   1.110  0.1982 -0.4701  0.1559
16020TIP3    H269552   4.212   2.186   0.978  1.8893  0.4124  0.5408
16021TIP3   OH269553   1.557   4.523  10.909  0.8719 -0.2047  0.0304
16021TIP3    H169554   1.498   4.503  10.981 -0.4200  1.5268 -0.5417
16021TIP3    H269555   1.535   4.459  10.841  1.9692 -1.7196  1.0555
16022TIP3   OH269556   1.448   4.144  16.440  0.3571 -0.4869  0.1341
16022TIP3    H169557   1.371   4.123  16.388  1.0637 -1.3566 -0.5695
16022TIP3    H269558   1.519   4.092  16.402  0.8513 -1.2832  2.0483
16023TIP3   OH269559   0.092   3.840  14.520  0.1372  0.2888  0.1738
16023TIP3    H169560   0.119   3.848  14.428  0.7471 -0.2038  0.3065
16023TIP3    H269561   0.054   3.925  14.541 -2.6707 -0.5295 -1.3828
16024TIP3   OH269562   6.022   5.204   2.364 -0.4331 -0.2179 -0.2942
16024TIP3    H169563   5.985   5.180   2.449 -0.8819  0.7141 -0.2094
16024TIP3    H269564   6.017   5.124   2.311  1.9039 -1.4203  1.2385
16025TIP3   OH269565   4.841   6.672   5.173  0.2498  1.0158 -0.0140
16025TIP3    H169566   4.827   6.646   5.263  1.5756 -0.3022 -0.1709
16025TIP3    H269567   4.934   6.657   5.158 -0.5322 -1.7624 -2.5233
16026TIP3   OH269568   5.072   2.101  13.007 -0.5492  0.1978 -0.1416
16026TIP3    H169569   5.119   2.023  13.038  0.0321  0.6739  0.1802
16026TIP3    H269570   5.093   2.105  12.913  0.2348  0.5311  0.0450
16027TIP3   OH269571   0.744   5.786  12.644  0.3738 -0.3428  1.3646
16027TIP3    H169572   0.765   5.876  12.670 -1.1402  0.3875  0.1300
16027TIP3    H269573   0.804   5.768  12.572 -0.2763  0.1781  0.6908
16028TIP3   OH269574   3.886   1.977  15.238  0.3175  0.1701 -0.1891
16028TIP3    H169575   3.895   1.884  15.220 -1.3550  0.0893 -0.7078
16028TIP3    H269576   3.811   2.005  15.185  0.6949  1.7765  0.0833
16029TIP3   OH269577   1.229   4.101  13.445 -0.0935 -0.0778 -0.4687
16029TIP3    H169578   1.256   4.174  13.389 -0.9108 -0.1773 -0.9852
16029TIP3    H269579   1.134   4.107  13.449 -0.0750 -0.3619  0.5188
16030TIP3   OH269580   0.621   2.522   0.414  0.1445 -0.2501 -0.7367
16030TIP3    H169581   0.526   2.515   0.400  0.1160 -0.6953 -0.3367
16030TIP3    H269582   0.632   2.603   0.462  0.1414  0.7401 -2.3517
16031TIP3   OH269583   4.460   3.202   6.330  0.2887  0.1758 -0.2245
16031TIP3    H169584   4.408   3.138   6.379 -0.4677  0.6620 -0.3765
16031TIP3    H269585   4.478   3.272   6.393  1.3334 -0.3057  0.0114
16032TIP3   OH269586   6.771   0.689   5.018  0.2681 -0.4245 -0.5654
16032TIP3    H169587   6.800   0.728   5.101 -0.6476 -0.5134 -0.1926
16032TIP3    H269588   6.800   0.598   5.023  1.6780 -0.0236 -1.0775
16033TIP3   OH269589   1.820   1.192  15.464 -0.2397 -0.0379  0.1555
16033TIP3    H169590   1.763   1.254  15.510 -0.3934 -1.0408  1.3562
16033TIP3    H269591   1.766   1.113  15.455  0.7424 -0.7853  0.7439
16034TIP3   OH269592   0.801   4.012   1.346  0.6696  0.2074  0.5535
16034TIP3    H169593   0.857   4.030   1.422  2.8529  0.7183 -1.1375
16034TIP3    H269594   0.762   4.097   1.325  0.0197  0.0541  1.1356
16035TIP3   OH269595   1.386   1.689   5.586  0.0240 -0.2048  0.3480
16035TIP3    H169596   1.472   1.718   5.556 -0.5179  1.4367  0.3369
16035TIP3    H269597   1.338   1.670   5.506 -0.0023  0.0092  0.3123
16036TIP3   OH269598   3.325   4.708   2.708  0.1503  0.0937 -0.8282
16036TIP3    H169599   3.292   4.752   2.629  0.8706  1.1462 -0.5550
16036TIP3    H269600   3.418   4.731   2.710  0.0443  0.4171  0.5575
16037TIP3   OH269601   3.429   4.023  16.477 -0.7157  0.5363  0.3204
16037TIP3    H169602   3.502   4.022  16.416 -1.2872  1.2565 -0.3824
16037TIP3    H269603   3.466   3.990  16.559  0.3679  0.7898 -0.0614
16038TIP3   OH269604   3.034   2.625  11.766  0.1136 -0.3121  0.0333
16038TIP3    H169605   3.033   2.670  11.851  1.6916  2.0898 -1.1476
16038TIP3    H269606   2.948   2.644  11.728 -0.5404 -1.2729  1.0204
16039TIP3   OH269607   1.948   3.267   5.864 -0.8845 -0.7266  1.0777
16039TIP3    H169608   1.937   3.212   5.942  0.2389 -0.9977  1.0600
16039TIP3    H269609   1.982   3.350   5.897  0.7636 -1.2514  0.7951
16040TIP3   OH269610   2.705   0.299   0.627 -0.3499 -0.5318  0.2417
16040TIP3    H169611   2.688   0.337   0.541  0.1940  0.6463  0.6471
16040TIP3    H269612   2.640   0.229   0.635 -0.0929 -0.9793 -1.3149
16041TIP3   OH269613   6.151   1.339  14.301  0.0669  0.1043  0.2727
16041TIP3    H169614   6.147   1.426  14.341 -0.6548  0.7751 -1.1978
16041TIP3    H269615   6.097   1.284  14.358 -1.2053  1.1106  0.0777
16042TIP3   OH269616   1.023   6.343   4.785 -0.0274 -0.0644  0.4770
16042TIP3    H169617   1.075   6.421   4.765  0.6591  0.0696  2.6108
16042TIP3    H269618   1.087   6.272   4.789 -0.2600 -0.2333  1.2655
16043TIP3   OH269619   5.182   6.432   1.823  0.2323  0.0571 -0.4139
16043TIP3    H169620   5.163   6.348   1.783 -0.1055  0.8396 -1.9315
16043TIP3    H269621   5.257   6.416   1.880 -0.1434 -1.3645 -0.3174
16044TIP3   OH269622   6.038   0.311   2.663  0.3907 -0.0849  0.0452
16044TIP3    H169623   6.111   0.356   2.705  0.7968 -2.4198  1.8945
16044TIP3    H269624   5.993   0.380   2.613  1.5921  2.1423  1.9544
16045TIP3   OH269625   2.096   3.443   2.803 -0.0408 -0.0073  0.6408
16045TIP3    H169626   2.023   3.452   2.742  0.3931  1.8196  0.3421
16045TIP3    H269627   2.120   3.351   2.798 -0.7265 -0.1228 -1.1219
16046TIP3   OH269628   3.553   1.937   4.194  0.0039  0.1641  0.8104
16046TIP3    H169629   3.477   1.891   4.230 -1.1651  2.4364  1.3576
16046TIP3    H269630   3.627   1.906   4.246 -0.4579 -2.3213  0.0584
16047TIP3   OH269631   5.420   1.519   2.541  0.1209  0.0413  0.1715
16047TIP3    H169632   5.359   1.476   2.601  0.3862  0.3266  0.6499
16047TIP3    H269633   5.427   1.609   2.574 -0.5972  0.5188 -0.9516
16048TIP3   OH269634   6.749   5.903  13.141  0.0007 -0.2871 -0.6244
16048TIP3    H169635   6.697   5.862  13.210 -1.0701  0.4542 -0.9701
16048TIP3    H269636   6.810   5.961  13.186 -0.4743 -0.0553 -0.2810
16049TIP3   OH269637   6.366   5.106   0.867 -0.4591  0.1988 -0.0010
16049TIP3    H169638   6.330   5.050   0.935 -2.3846  1.1265 -0.2055
16049TIP3    H269639   6.449   5.065   0.842 -0.7540 -1.2875  1.4167
16050TIP3   OH269640   4.322   6.259   1.892  0.4046  0.6412 -0.4156
16050TIP3    H169641   4.256   6.310   1.845 -0.7809  0.2325  0.7834
16050TIP3    H269642   4.396   6.254   1.831 -0.7982  0.8028 -1.9152
16051TIP3   OH269643   4.199   2.308  11.319  0.7119  0.0782  0.3754
16051TIP3    H169644   4.144   2.325  11.242  2.2761 -0.9598 -1.0169
16051TIP3    H269645   4.220   2.394  11.354  0.7152  0.6036 -0.9147
16052TIP3   OH269646   3.066   2.492   3.013 -0.1499  0.0573  0.1740
16052TIP3    H169647   3.096   2.527   2.928 -0.4193 -1.1269 -0.4116
16052TIP3    H269648   2.982   2.536   3.028  1.2579  2.4952  1.2576
16053TIP3   OH269649   6.453   1.030   0.695  0.6185 -0.4886 -0.0537
16053TIP3    H169650   6.496   1.063   0.616  1.3803  1.9733  1.3222
16053TIP3    H269651   6.517   1.046   0.765 -0.1851 -2.3029  1.1115
16054TIP3   OH269652   5.527   4.435  14.859  0.2584  0.4132 -1.0335
16054TIP3    H169653   5.609   4.431  14.908  0.2031  1.4113 -0.8512
16054TIP3    H269654   5.520   4.349  14.817 -0.5837 -1.1422  2.1305
16055TIP3   OH269655   0.807   6.757   3.521 -0.4305  0.1696  0.1351
16055TIP3    H169656   0.768   6.843   3.501  0.8763  0.7171 -0.1216
16055TIP3    H269657   0.889   6.778   3.565 -0.1469 -0.9600  0.1542
16056TIP3   OH269658   3.548   5.367  10.975 -0.5959  0.1575 -0.0124
16056TIP3    H169659   3.607   5.323  10.914 -0.8896  0.4567 -0.5099
16056TIP3    H269660   3.524   5.449  10.931 -0.5333  0.5371  0.6484
16057TIP3   OH269661   0.676   2.242  12.261  0.1463  0.3030 -0.0666
16057TIP3    H169662   0.668   2.162  12.313  0.3265  0.3585  0.0457
16057TIP3    H269663   0.673   2.313  12.325 -0.0978  0.3920 -0.1752
16058TIP3   OH269664   3.309   6.513   5.276  0.1759  0.6940  0.5513
16058TIP3    H169665   3.214   6.521   5.290  0.2584  0.3698  1.2938
16058TIP3    H269666   3.343   6.478   5.358  0.7303 -0.7785 -0.2793
16059TIP3   OH269667   3.390   0.408   4.301  0.1628 -0.1404 -0.1725
16059TIP3    H169668   3.361   0.330   4.253 -0.7863  0.3697 -0.4483
16059TIP3    H269669   3.434   0.373   4.379  1.5896 -0.9723 -1.3184
16060TIP3   OH269670   1.060   3.278   5.275 -0.4333  0.3137 -0.9481
16060TIP3    H169671   1.021   3.191   5.269 -0.5486  0.0147  2.9628
16060TIP3    H269672   0.988   3.334   5.306  0.6854  0.9602  0.5195
16061TIP3   OH269673   6.010   2.784   1.624  0.0276  0.4733 -0.1660
16061TIP3    H169674   6.102   2.810   1.629 -0.2000  1.1479  0.7338
16061TIP3    H269675   6.001   2.717   1.692  0.4498 -1.5411 -2.0124
16062TIP3   OH269676   2.597   1.006  17.112 -0.0083  0.0877  0.3490
16062TIP3    H169677   2.568   0.915  17.111  0.9717 -0.2815  2.1044
16062TIP3    H269678   2.548   1.047  17.184 -1.0310  1.1689 -0.9303
16063TIP3   OH269679   6.762   0.183   1.444 -1.1524  0.5486  0.9310
16063TIP3    H169680   6.707   0.199   1.368  0.0148 -3.4351 -0.9070
16063TIP3    H269681   6.849   0.212   1.417 -0.7683 -0.7172  0.7933
16064TIP3   OH269682   0.336   0.811   4.271  0.2072 -0.2496 -0.2691
16064TIP3    H169683   0.331   0.762   4.189 -1.5617  0.0170 -0.3408
16064TIP3    H269684   0.326   0.744   4.340  0.2456 -0.2945 -0.3076
16065TIP3   OH269685   2.429   6.795   2.783  0.0588  0.4283  0.5156
16065TIP3    H169686   2.443   6.708   2.748 -1.0442 -0.0110  1.1493
16065TIP3    H269687   2.351   6.828   2.738 -0.3871  0.5091  1.3238
16066TIP3   OH269688   0.914   4.734  14.445  0.2985 -0.1816  0.7336
16066TIP3    H169689   0.981   4.674  14.477  1.7853  0.9081 -0.2448
16066TIP3    H269690   0.962   4.815  14.425 -1.3247  0.6429  0.0915
16067TIP3   OH269691   1.151   1.693  16.365 -0.5502  0.0962 -0.6780
16067TIP3    H169692   1.213   1.760  16.395  2.1863 -2.3492 -0.6453
16067TIP3    H269693   1.121   1.650  16.445 -1.1235  0.2727 -0.7966
16068TIP3   OH269694   3.466   3.927  14.116  0.1248  0.6125  0.1893
16068TIP3    H169695   3.444   3.864  14.047 -1.3565  1.1144  0.1851
16068TIP3    H269696   3.433   3.888  14.196  0.8748  0.5314  0.4632
16069TIP3   OH269697   5.815   4.275  15.785 -0.1598 -0.0905 -0.1659
16069TIP3    H169698   5.774   4.344  15.732  2.3722  1.4652 -0.1672
16069TIP3    H269699   5.894   4.316  15.821  0.7782 -2.6516  0.7819
16070TIP3   OH269700   3.996   1.587   3.719  0.0746  0.3030  0.2226
16070TIP3    H169701   4.033   1.622   3.799  2.2796  0.4472 -0.8406
16070TIP3    H269702   3.997   1.660   3.657 -2.1473  0.3603  0.2088
16071TIP3   OH269703   2.438   0.089   6.315 -0.2735  0.0756 -0.7429
16071TIP3    H169704   2.440   0.163   6.254  0.3877 -0.8469 -1.8604
16071TIP3    H269705   2.530   0.069   6.331 -0.4537 -0.7910 -0.7921
16072TIP3   OH269706   3.880   1.310  12.652  0.6791 -0.3235 -0.3593
16072TIP3    H169707   3.956   1.252  12.659  0.4405 -0.5294  0.6175
16072TIP3    H269708   3.854   1.326  12.743 -1.6629 -1.8562 -0.7144
16073TIP3   OH269709   2.501   2.009   1.062  0.1574  0.0129  0.0506
16073TIP3    H169710   2.505   1.914   1.055 -0.1440 -0.0997  1.3506
16073TIP3    H269711   2.434   2.026   1.128  0.7204  1.1085  0.3536
16074TIP3   OH269712   1.051   1.466  16.226 -0.3489  0.4465  0.2972
16074TIP3    H169713   1.066   1.541  16.283  1.0943 -0.2530  0.8529
16074TIP3    H269714   1.131   1.460  16.173 -1.0571  0.1779 -0.7591
16075TIP3   OH269715   3.461   6.434   2.474 -0.2981  0.1497  0.1849
16075TIP3    H169716   3.466   6.357   2.418 -0.1043 -0.0267  0.4479
16075TIP3    H269717   3.482   6.403   2.562  0.0366  0.5478  0.2508
16076TIP3   OH269718   5.408   0.344  13.530 -0.7138 -0.1264 -0.2418
16076TIP3    H169719   5.412   0.250  13.515 -0.5696 -0.3078  0.8666
16076TIP3    H269720   5.499   0.370  13.544 -0.9179 -0.1123  1.0900
16077TIP3   OH269721   3.368   0.518  14.935  0.8156  0.3661 -0.4038
16077TIP3    H169722   3.417   0.549  14.858  0.0665 -2.0699 -1.9479
16077TIP3    H269723   3.396   0.427  14.944 -1.4282 -0.2685  0.3303
16078TIP3   OH269724   3.635   3.018  11.068  0.1812  0.3527 -0.4851
16078TIP3    H169725   3.572   3.089  11.075 -1.3111 -1.0263  0.4856
16078TIP3    H269726   3.656   3.014  10.974 -0.2329  1.6121 -0.6419
16079TIP3   OH269727   6.550   0.608   2.461  0.3709  0.5852 -0.2452
16079TIP3    H169728   6.487   0.573   2.524  2.3303 -0.4646  1.1906
16079TIP3    H269729   6.578   0.692   2.498  0.6978  0.4831 -0.2518
16080TIP3   OH269730   6.753   4.474   3.449  0.0926 -0.1667  0.2716
16080TIP3    H169731   6.682   4.534   3.427  1.2631  0.5218 -1.8280
16080TIP3    H269732   6.737   4.397   3.395 -0.0839 -0.7725  1.1809
16081TIP3   OH269733   0.878   1.004   2.437 -0.5177 -0.0703  0.5054
16081TIP3    H169734   0.831   0.924   2.457 -1.4955  0.6424  1.0938
16081TIP3    H269735   0.911   0.991   2.348 -1.0444 -0.9393  0.4318
16082TIP3   OH269736   3.779   2.655   0.631  0.8189  0.5863  0.2372
16082TIP3    H169737   3.721   2.700   0.569  1.2735  0.7419 -0.0737
16082TIP3    H269738   3.744   2.566   0.636  1.5543  0.1875 -1.2491
16083TIP3   OH269739   1.918   6.430  14.890 -0.1822  0.4671 -0.4466
16083TIP3    H169740   1.906   6.502  14.828  1.7533  1.0114 -0.2122
16083TIP3    H269741   1.928   6.353  14.835 -0.4453  0.6522 -0.7576
16084TIP3   OH269742   2.063   5.667  15.531  0.0820 -0.1862  0.2972
16084TIP3    H169743   2.123   5.628  15.595 -0.4071 -2.3520 -0.5008
16084TIP3    H269744   1.979   5.672  15.577  0.1590 -0.0078  0.4205
16085TIP3   OH269745   2.931   0.975  12.109  0.3306 -0.1041 -0.1919
16085TIP3    H169746   2.998   1.043  12.121 -1.0640  0.9515  1.9095
16085TIP3    H269747   2.881   0.976  12.190 -0.3964 -2.9433 -0.5512
16086TIP3   OH269748   4.319   2.380   4.647 -0.0784  0.1439  0.0127
16086TIP3    H169749   4.278   2.312   4.700 -2.4477  1.9095  0.4831
16086TIP3    H269750   4.272   2.378   4.564  0.4509  0.6115 -0.3090
16087TIP3   OH269751   3.677   3.858   4.110 -0.1359  0.1860 -0.4936
16087TIP3    H169752   3.665   3.763   4.113 -0.5264  0.2501  0.4151
16087TIP3    H269753   3.750   3.875   4.170 -0.6804  0.5346  0.0916
16088TIP3   OH269754   5.506   6.708   3.426 -0.2951  0.0198 -0.3107
16088TIP3    H169755   5.497   6.616   3.450 -1.0389 -1.0993 -4.3977
16088TIP3    H269756   5.417   6.742   3.426 -0.1556  0.3864 -0.0156
16089TIP3   OH269757   3.100   4.403  16.621 -0.4447  0.2999  0.3912
16089TIP3    H169758   3.167   4.335  16.614 -0.6096  0.0711  1.0617
16089TIP3    H269759   3.146   4.484  16.597  0.4989  0.3969  2.4132
16090TIP3   OH269760   2.124   1.848   6.040 -0.2562  0.2817 -0.5981
16090TIP3    H169761   2.087   1.765   6.068  0.4324  0.0817 -0.2737
16090TIP3    H269762   2.160   1.830   5.953 -1.0251  0.5117 -0.9749
16091TIP3   OH269763   4.029   6.074  12.592  1.0181  0.5491 -0.8265
16091TIP3    H169764   4.041   6.146  12.653  1.1992 -0.8827  0.8546
16091TIP3    H269765   3.950   6.097  12.543 -0.3532  0.7106  1.4135
16092TIP3   OH269766   0.770   6.539  12.775 -0.2219 -0.0304 -0.1959
16092TIP3    H169767   0.727   6.514  12.693  2.7800 -1.4351 -1.4300
16092TIP3    H269768   0.743   6.629  12.790 -0.4083  0.4427 -3.0797
16093TIP3   OH269769   2.135   0.986  12.319 -0.1306 -0.6934  0.4189
16093TIP3    H169770   2.208   1.021  12.371  1.1627 -1.9066 -0.5372
16093TIP3    H269771   2.161   1.002  12.229 -2.5116  1.6869  0.1152
16094TIP3   OH269772   5.480   3.388   4.688  0.4831 -0.4250  0.0859
16094TIP3    H169773   5.514   3.334   4.617  0.0479 -0.6045  0.0151
16094TIP3    H269774   5.385   3.388   4.675  0.3419 -1.0224  1.0698
16095TIP3   OH269775   0.213   2.570   3.891 -0.1251 -0.1122  0.1975
16095TIP3    H169776   0.293   2.543   3.936 -1.2219 -0.3877  2.0348
16095TIP3    H269777   0.243   2.601   3.806  1.8455 -1.0187  0.5240
16096TIP3   OH269778   0.508   4.516  16.992  0.3269  0.0834  0.5114
16096TIP3    H169779   0.541   4.595  16.949  0.5907  1.0788  2.5131
16096TIP3    H269780   0.584   4.478  17.035 -0.1901 -0.2231  1.1585
16097TIP3   OH269781   0.595   2.320   1.041  0.0249  0.6028  0.3157
16097TIP3    H169782   0.656   2.249   1.057  0.3717  0.2955 -2.0938
16097TIP3    H269783   0.649   2.391   1.006 -0.9565  0.3436 -1.8075
16098TIP3   OH269784   4.630   2.200   0.164 -0.1106 -0.1804  0.0582
16098TIP3    H169785   4.716   2.217   0.201 -0.4414 -0.2800  0.8870
16098TIP3    H269786   4.612   2.108   0.184  1.0522 -1.1428 -3.1408
16099TIP3   OH269787   2.418   0.792   5.490 -0.8152 -0.0639  0.5197
16099TIP3    H169788   2.345   0.834   5.445  0.1591  1.4310  0.2796
16099TIP3    H269789   2.413   0.824   5.580 -2.4055 -2.5796  1.3694
16100TIP3   OH269790   5.661   1.970  11.835  0.3352  0.5164 -0.0699
16100TIP3    H169791   5.590   2.004  11.890 -0.0271 -0.0799 -0.1624
16100TIP3    H269792   5.688   2.045  11.783 -1.3266  0.3871 -1.1786
16101TIP3   OH269793   6.653   4.539   5.061  0.2695 -0.0986 -0.3044
16101TIP3    H169794   6.669   4.526   5.154 -0.5095 -1.0838 -0.2990
16101TIP3    H269795   6.656   4.452   5.023  3.3388  0.5675 -1.6840
16102TIP3   OH269796   1.608   4.256  15.242 -0.5602 -0.2432 -0.8404
16102TIP3    H169797   1.676   4.295  15.297  0.5713 -0.2808 -2.1828
16102TIP3    H269798   1.538   4.233  15.303 -0.4781  2.1829  0.2099
16103TIP3   OH269799   5.488   4.177  14.750 -0.0813 -0.4647  0.5229
16103TIP3    H169800   5.407   4.147  14.708 -0.6779  0.1797  1.2078
16103TIP3    H269801   5.493   4.125  14.831 -0.2263  0.0653  0.8730
16104TIP3   OH269802   2.201   6.660  12.398 -0.7057 -0.2643 -0.0917
16104TIP3    H169803   2.246   6.694  12.321  0.7310 -1.9575 -0.0235
16104TIP3    H269804   2.117   6.628  12.365 -0.8473  0.6338 -0.6250
16105TIP3   OH269805   6.512   3.780   4.340 -0.0643  0.3061 -0.1261
16105TIP3    H169806   6.571   3.852   4.319  1.0988 -0.7477 -0.5898
16105TIP3    H269807   6.544   3.707   4.286  0.1603 -1.1778  1.9627
16106TIP3   OH269808   0.810   3.296  15.138  0.2033 -0.1246 -0.0459
16106TIP3    H169809   0.861   3.292  15.058  3.2726 -0.6906  1.8724
16106TIP3    H269810   0.766   3.381  15.135  0.4792 -0.0443 -2.1686
16107TIP3   OH269811   6.490   1.595  13.460  0.0840 -0.2871  0.6317
16107TIP3    H169812   6.538   1.516  13.434  1.4604  0.5774  0.5448
16107TIP3    H269813   6.481   1.586  13.555  2.1026  0.4726  0.9115
16108TIP3   OH269814   0.785   5.825  11.518  0.6385 -0.4670 -0.2301
16108TIP3    H169815   0.821   5.823  11.606 -0.5710 -0.0988  0.2838
16108TIP3    H269816   0.693   5.851  11.530  0.7878  0.8058 -1.6783
16109TIP3   OH269817   4.468   2.773   4.025  0.0372  0.0709  0.2369
16109TIP3    H169818   4.389   2.746   4.073 -0.7314  0.7035 -0.6665
16109TIP3    H269819   4.494   2.695   3.976 -0.1093 -0.0883  0.4088
16110TIP3   OH269820   4.090   3.809   5.519  0.1092 -0.4539 -0.1454
16110TIP3    H169821   3.995   3.812   5.530  0.1849  0.3827  0.3464
16110TIP3    H269822   4.123   3.774   5.602  0.1943 -1.3215 -0.5417
16111TIP3   OH269823   3.438   5.631   4.652  0.0715 -0.2906 -0.1467
16111TIP3    H169824   3.408   5.646   4.741 -0.7747 -2.2588 -0.0686
16111TIP3    H269825   3.361   5.647   4.597  0.4834  0.5310 -0.4947
16112TIP3   OH269826   2.112   2.387  12.818  0.2123 -0.3903 -0.3913
16112TIP3    H169827   2.024   2.351  12.810 -1.1944  2.5883  1.0570
16112TIP3    H269828   2.137   2.372  12.909  0.6822 -0.0477 -0.4606
16113TIP3   OH269829   3.372   4.507   3.725 -0.0095  0.0681  0.0949
16113TIP3    H169830   3.303   4.442   3.711 -0.2366  0.2859  0.1924
16113TIP3    H269831   3.453   4.460   3.707 -0.1633 -0.2837  0.3097
16114TIP3   OH269832   5.604   5.780  11.525 -0.2733 -0.2573  0.0360
16114TIP3    H169833   5.693   5.751  11.544  0.5091  0.6905 -2.0531
16114TIP3    H269834   5.614   5.872  11.501 -2.0536  0.3385  1.4801
16115TIP3   OH269835   1.846   1.291  13.660 -0.6755  0.0689 -0.3440
16115TIP3    H169836   1.906   1.333  13.600 -2.0678  1.6433 -0.6535
16115TIP3    H269837   1.760   1.323  13.635 -1.6076 -1.7618  0.4179
16116TIP3   OH269838   1.245   1.735  15.075  0.1531 -0.1435 -0.2801
16116TIP3    H169839   1.245   1.797  15.003 -1.4714  0.6586  0.3733
16116TIP3    H269840   1.274   1.653  15.037  2.4093  1.0035 -1.1512
16117TIP3   OH269841   0.593   4.833   4.536  0.0487 -0.4285  0.4733
16117TIP3    H169842   0.586   4.750   4.585 -0.1587 -0.0278  1.1361
16117TIP3    H269843   0.632   4.894   4.599 -1.0711  0.3400  0.4270
16118TIP3   OH269844   3.379   6.334   0.965  0.3654  0.0568  0.1014
16118TIP3    H169845   3.430   6.365   0.890 -0.1197 -0.4282 -0.4349
16118TIP3    H269846   3.329   6.260   0.931  0.2337 -0.2505  0.9372
16119TIP3   OH269847   6.116   0.032  13.339  0.0946 -0.2622  0.0216
16119TIP3    H169848   6.197  -0.013  13.316  0.1533 -1.3160  2.1471
16119TIP3    H269849   6.144   0.117  13.372  0.0505  0.9640 -2.9184
16120TIP3   OH269850   2.243   6.421  15.217 -0.1194 -0.1373 -0.3510
16120TIP3    H169851   2.193   6.463  15.146 -1.0530 -1.5090 -0.5200
16120TIP3    H269852   2.265   6.334  15.182  2.4469  0.4498 -0.3034
16121TIP3   OH269853   5.150   4.995   5.907  0.7037  0.1244  0.2710
16121TIP3    H169854   5.082   5.037   5.960  0.5923 -1.7271  1.6626
16121TIP3    H269855   5.202   5.067   5.872 -1.4610  1.5345 -0.1281
16122TIP3   OH269856   3.512   2.544   3.085 -0.4002 -0.8841  0.0397
16122TIP3    H169857   3.584   2.602   3.109 -0.6496  0.1204 -1.5382
16122TIP3    H269858   3.435   2.601   3.088 -0.5933 -1.0291 -1.9097
16123TIP3   OH269859   2.449   5.578   2.973 -0.4699 -0.5634  0.6638
16123TIP3    H169860   2.467   5.489   2.943  0.0193 -0.4345  0.5626
16123TIP3    H269861   2.503   5.588   3.052 -0.8685 -0.5076  0.9347
16124TIP3   OH269862   3.192   3.468   0.795  0.2480  0.5383  0.0420
16124TIP3    H169863   3.192   3.394   0.735 -0.3171  0.2126  0.4356
16124TIP3    H269864   3.236   3.538   0.747 -0.0077  0.2185 -0.6687
16125TIP3   OH269865   4.429   1.090   4.214  0.0964  0.7295  0.4213
16125TIP3    H169866   4.525   1.091   4.211  0.0850  1.7060  0.1403
16125TIP3    H269867   4.406   1.163   4.271 -0.4655 -0.1203  1.3003
16126TIP3   OH269868   5.526   3.240   0.485  0.2014 -0.1586  0.0298
16126TIP3    H169869   5.522   3.195   0.570 -0.7585  1.1764  0.7201
16126TIP3    H269870   5.468   3.189   0.428  0.2954 -0.6590  0.3802
16127TIP3   OH269871   6.683   5.013   3.984  0.3032  0.0152 -0.5800
16127TIP3    H169872   6.595   4.993   3.954  1.0366 -0.0114 -2.8121
16127TIP3    H269873   6.711   4.934   4.030 -1.4776  0.6985  1.7518
16128TIP3   OH269874   2.540   1.356  12.755  0.3428 -0.0826  1.4551
16128TIP3    H169875   2.578   1.407  12.683  0.1198 -1.1230  0.5793
16128TIP3    H269876   2.481   1.417  12.799 -1.7924 -0.2171 -1.0535
16129TIP3   OH269877   1.077   5.529  12.914  0.2126 -0.4937 -0.2040
16129TIP3    H169878   1.110   5.551  13.001  1.3564  0.0417 -0.7608
16129TIP3    H269879   1.014   5.598  12.893 -0.6701 -1.0734  0.5340
16130TIP3   OH269880   0.830   3.474  15.977 -0.1457 -0.0740 -0.0768
16130TIP3    H169881   0.906   3.514  15.935  0.6276 -0.9083  0.5051
16130TIP3    H269882   0.846   3.380  15.970 -0.7191 -0.2395  0.7962
16131TIP3   OH269883   2.471   6.384  16.869  0.2709  0.2472 -0.4916
16131TIP3    H169884   2.412   6.353  16.938 -0.3899  0.1248 -1.0971
16131TIP3    H269885   2.445   6.475  16.854 -0.4534 -0.0992 -1.4474
16132TIP3   OH269886   0.453   6.711  15.623  0.1386 -0.0491 -0.0998
16132TIP3    H169887   0.516   6.659  15.673 -0.4853  0.4327  1.2183
16132TIP3    H269888   0.368   6.682  15.656 -0.3127 -0.2647 -1.4364
16133TIP3   OH269889   4.299   2.319   5.899 -0.5192  0.4113  0.2183
16133TIP3    H169890   4.205   2.335   5.911 -0.3833  1.1329  0.3570
16133TIP3    H269891   4.318   2.243   5.955 -1.2481 -0.4559 -0.7049
16134TIP3   OH269892   2.436   0.806  16.162  0.0809 -0.0687  0.7058
16134TIP3    H169893   2.440   0.900  16.178  0.4101  0.1034 -0.3699
16134TIP3    H269894   2.368   0.796  16.096 -2.2193 -0.8979  3.0885
16135TIP3   OH269895   5.744   6.747  11.283 -0.0302 -0.2808  0.6602
16135TIP3    H169896   5.685   6.728  11.210  0.7029  0.6473 -0.1935
16135TIP3    H269897   5.831   6.722  11.252  0.4687  1.2847  0.7324
16136TIP3   OH269898   2.561   1.175  12.216 -0.7694 -0.4330  0.3563
16136TIP3    H169899   2.515   1.236  12.274 -2.1398 -1.4806  0.3986
16136TIP3    H269900   2.507   1.172  12.137  0.5866  0.2575 -0.6130
16137TIP3   OH269901   1.360   6.394  10.625  0.1257 -0.2911 -0.1750
16137TIP3    H169902   1.333   6.477  10.663 -0.1477 -0.4558 -0.0112
16137TIP3    H269903   1.375   6.337  10.700  0.6054 -0.3020 -0.2758
16138TIP3   OH269904   5.479   1.535   0.631 -0.5018 -1.0950  0.3918
16138TIP3    H169905   5.517   1.448   0.636 -0.8283 -1.3340 -0.9167
16138TIP3    H269906   5.398   1.523   0.580  0.3029  0.2242 -1.2732
16139TIP3   OH269907   5.450   6.544  11.718 -0.0785 -0.3547  0.2091
16139TIP3    H169908   5.391   6.493  11.662 -0.1939  0.6864 -0.6460
16139TIP3    H269909   5.533   6.545  11.670 -0.0917  0.2828  0.1870
16140TIP3   OH269910   6.796   3.152   2.557  0.6821  0.3871  0.2729
16140TIP3    H169911   6.784   3.186   2.468 -0.2465 -1.4350 -0.3265
16140TIP3    H269912   6.710   3.117   2.581  1.2136 -0.1377  1.4618
16141TIP3   OH269913   1.094   4.975   0.728  0.4979 -0.7191 -0.2486
16141TIP3    H169914   1.052   5.013   0.805 -0.4645 -1.0692 -0.5859
16141TIP3    H269915   1.063   5.029   0.655 -0.9577 -2.1675 -0.7409
16142TIP3   OH269916   5.686   4.549   2.932  0.3063  0.2337 -0.0568
16142TIP3    H169917   5.705   4.623   2.875  3.3694  0.3962  1.0917
16142TIP3    H269918   5.629   4.584   3.001 -3.7394 -0.0532 -3.0930
16143TIP3   OH269919   3.556   4.520   1.677  0.4603  0.4214  0.4231
16143TIP3    H169920   3.549   4.443   1.621  0.9745  0.5721  0.1489
16143TIP3    H269921   3.465   4.545   1.695  0.2475  1.9010 -2.4395
16144TIP3   OH269922   3.422   0.465   3.087  0.1524 -1.0398 -0.1649
16144TIP3    H169923   3.354   0.440   3.149 -0.7580 -0.5997 -0.9838
16144TIP3    H269924   3.424   0.394   3.023  1.3443 -1.6747  0.5395
16145TIP3   OH269925   1.547   2.947  14.343  0.1407 -0.3378 -0.8523
16145TIP3    H169926   1.501   2.868  14.373 -0.1309  0.1497  0.0363
16145TIP3    H269927   1.497   2.977  14.267 -1.0926  0.2543  0.1740
16146TIP3   OH269928   4.418   4.878  13.815  0.7729  0.5653 -0.4738
16146TIP3    H169929   4.332   4.836  13.809  0.6088  0.7162  0.6460
16146TIP3    H269930   4.404   4.952  13.874  1.8703  0.0805  0.4092
16147TIP3   OH269931   1.967   3.129  12.926 -0.1909 -0.0850  0.1829
16147TIP3    H169932   2.010   3.043  12.922 -0.9598 -0.5507  1.4621
16147TIP3    H269933   1.887   3.113  12.976  0.3578  1.6679  1.6768
16148TIP3   OH269934   1.056   6.679  13.852  0.1220  0.3718 -0.3895
16148TIP3    H169935   1.068   6.671  13.946  1.0580  0.2315 -0.5129
16148TIP3    H269936   1.133   6.637  13.814  0.1252  1.0838 -1.1966
16149TIP3   OH269937   2.627   5.764   1.244 -0.4895  0.1695 -0.1060
16149TIP3    H169938   2.544   5.813   1.252 -0.2173  0.4044  1.4915
16149TIP3    H269939   2.686   5.825   1.200  0.4339  2.1170  3.5988
16150TIP3   OH269940   5.129   5.638  13.140  0.4057 -0.5001 -0.0251
16150TIP3    H169941   5.191   5.586  13.193 -1.3342 -1.7727  0.8039
16150TIP3    H269942   5.093   5.702  13.202 -0.5514 -1.0409 -0.0151
16151TIP3   OH269943   0.347   1.105   6.535 -0.0609  0.0548 -0.4004
16151TIP3    H169944   0.441   1.120   6.533 -0.0883  0.7527  2.3728
16151TIP3    H269945   0.308   1.190   6.516 -0.1405  0.3972  1.2722
16152TIP3   OH269946   6.434   4.102  15.104 -0.4720  0.1901 -0.3476
16152TIP3    H169947   6.438   4.190  15.067  0.1744  0.6655  0.8157
16152TIP3    H269948   6.448   4.115  15.198  1.6926 -1.3498 -0.4200
16153TIP3   OH269949   5.806   6.620  12.995 -0.2049  0.4741 -0.2664
16153TIP3    H169950   5.819   6.595  13.086 -3.4211  0.3054  0.1735
16153TIP3    H269951   5.888   6.594  12.952  0.7110 -0.9577  2.2196
16154TIP3   OH269952   2.931   3.382   5.738 -0.3543  0.0633 -0.7218
16154TIP3    H169953   2.872   3.309   5.756 -0.3970 -0.4051 -2.6526
16154TIP3    H269954   3.018   3.341   5.733 -0.4223  0.0703 -2.1547
16155TIP3   OH269955   6.216   5.401  15.981 -0.2161 -0.5600  0.2989
16155TIP3    H169956   6.241   5.395  16.074  0.4796 -2.6486  0.0141
16155TIP3    H269957   6.233   5.313  15.947 -0.3370  0.2424 -1.8511
16156TIP3   OH269958   1.772   4.854  15.668 -0.7174 -0.0062 -0.6223
16156TIP3    H169959   1.779   4.949  15.660 -1.7218  0.0121 -1.2790
16156TIP3    H269960   1.700   4.840  15.728  1.5168 -0.3111  2.0821
16157TIP3   OH269961   0.625   0.705   2.083 -0.4963  0.3284  0.5377
16157TIP3    H169962   0.610   0.765   2.009  0.1480  1.5735  1.4110
16157TIP3    H269963   0.553   0.723   2.143 -1.2057 -0.9208  0.0735
16158TIP3   OH269964   1.030   6.455   1.764 -0.7707 -0.2504 -0.3429
16158TIP3    H169965   1.025   6.539   1.718 -1.0150 -0.1556 -0.1463
16158TIP3    H269966   0.981   6.394   1.708 -0.3641 -0.3257 -0.6208
16159TIP3   OH269967   3.582   5.121  14.077 -0.1290 -0.2081  0.6687
16159TIP3    H169968   3.504   5.123  14.022 -0.2944  0.1299  0.9181
16159TIP3    H269969   3.588   5.209  14.114  0.7486 -0.0285  0.1126
16160TIP3   OH269970   6.264   3.269  14.091 -0.3797  0.0871  0.4557
16160TIP3    H169971   6.252   3.292  14.184  0.1970  3.1558 -0.1998
16160TIP3    H269972   6.183   3.297  14.049  0.1375  0.4921 -0.2834
16161TIP3   OH269973   1.216   3.195  16.128  0.1721 -1.0380 -0.1222
16161TIP3    H169974   1.237   3.284  16.155  0.1273 -1.0820  0.0604
16161TIP3    H269975   1.232   3.142  16.206  0.6141 -1.2534 -0.3582
16162TIP3   OH269976   2.823   2.771  14.322 -0.0070 -0.1416  1.1552
16162TIP3    H169977   2.857   2.782  14.411  0.8825  2.9257  0.4900
16162TIP3    H269978   2.886   2.714  14.279  0.6822  0.0557  1.8998
16163TIP3   OH269979   4.109   5.047  12.402  0.0265  0.4244  0.2761
16163TIP3    H169980   4.156   4.982  12.348 -0.8275 -0.1024  0.1646
16163TIP3    H269981   4.174   5.116  12.417  0.8483 -0.2984  0.1259
16164TIP3   OH269982   1.986   0.047   4.585 -0.7900 -0.3034  0.3317
16164TIP3    H169983   2.076   0.033   4.614  0.5276 -0.2635 -3.4979
16164TIP3    H269984   1.966  -0.029   4.531 -2.5470  0.4294 -0.0903
16165TIP3   OH269985   5.100   3.851  15.586 -0.2308 -0.0168  0.3321
16165TIP3    H169986   5.038   3.920  15.611 -0.2921  0.1182 -0.1873
16165TIP3    H269987   5.158   3.892  15.523 -0.5276 -0.5555 -0.3018
16166TIP3   OH269988   2.597   2.838  15.722 -0.3615 -0.8088  0.3131
16166TIP3    H169989   2.584   2.931  15.743 -2.2620 -1.5076  2.3566
16166TIP3    H269990   2.565   2.829  15.633 -1.9552  0.1290  0.7733
16167TIP3   OH269991   6.469   3.253   0.093  0.3128 -0.2353 -0.1883
16167TIP3    H169992   6.397   3.316   0.095  1.5637  1.2057  0.9432
16167TIP3    H269993   6.436   3.177   0.141 -1.0428 -0.2492 -1.1290
16168TIP3   OH269994   5.091   1.735   5.643  0.4156 -0.5693  0.7619
16168TIP3    H169995   5.171   1.785   5.629 -0.0566 -0.1675 -0.5901
16168TIP3    H269996   5.121   1.649   5.673  1.2505  0.2551  2.3122
16169TIP3   OH269997   3.136   1.609   4.031  0.1002  0.5356 -0.5855
16169TIP3    H169998   3.145   1.681   4.093  1.3552  1.0015 -1.2823
16169TIP3    H269999   3.142   1.651   3.945 -0.5364 -0.2344 -1.0120
16170TIP3   OH270000   3.014   5.135  11.877  0.7019 -0.4153  0.3030
16170TIP3    H170001   2.946   5.191  11.839  0.3019  0.2810  1.9904
16170TIP3    H270002   3.091   5.152  11.823 -0.0497 -0.0749 -0.7049
16171TIP3   OH270003   3.901   2.599   2.973  0.2004 -0.0711  0.3789
16171TIP3    H170004   3.814   2.585   2.935  0.4215 -1.1704  0.2800
16171TIP3    H270005   3.902   2.545   3.052 -0.0628  1.8016  1.7132
16172TIP3   OH270006   3.388   2.321   3.160 -0.3408 -0.8023 -0.7682
16172TIP3    H170007   3.423   2.400   3.118  0.1247 -1.6200 -1.9322
16172TIP3    H270008   3.333   2.280   3.093 -2.3162 -0.3492  0.5422
16173TIP3   OH270009   1.450   3.196   3.682  0.0347  0.4545 -0.1657
16173TIP3    H170010   1.517   3.235   3.626  0.3728 -0.3078 -0.3068
16173TIP3    H270011   1.369   3.203   3.632  0.0143  1.3459 -0.0109
16174TIP3   OH270012   4.679   1.083   3.708  0.5799 -0.4969  0.1107
16174TIP3    H170013   4.750   1.147   3.711  0.7439 -0.5837 -1.8210
16174TIP3    H270014   4.619   1.112   3.777  1.4482  0.7970  0.3469
16175TIP3   OH270015   0.393   3.691   5.794 -0.0836 -0.3035 -0.4212
16175TIP3    H170016   0.359   3.615   5.746  0.6426 -1.5755  1.0469
16175TIP3    H270017   0.365   3.677   5.884  1.4256  0.3782  0.1644
16176TIP3   OH270018   1.686   5.427   3.392 -0.6464 -0.2686  0.3123
16176TIP3    H170019   1.656   5.389   3.475  0.3774 -0.5443  0.5700
16176TIP3    H270020   1.711   5.352   3.339 -1.2876 -0.0892 -0.2484
16177TIP3   OH270021   3.536   3.396  11.277 -0.4390  0.2009 -0.1160
16177TIP3    H170022   3.524   3.482  11.237 -0.9255  0.7666  1.2387
16177TIP3    H270023   3.631   3.384  11.279 -0.4084  0.0584 -1.6442
16178TIP3   OH270024   0.941   4.893   1.562  0.6052  0.0229  0.4217
16178TIP3    H170025   0.943   4.951   1.638 -0.0585 -0.8078  1.0797
16178TIP3    H270026   0.998   4.820   1.586  0.3995 -0.2371  0.1277
16179TIP3   OH270027   3.382   2.441   1.736 -0.7239 -0.6290  0.4729
16179TIP3    H170028   3.385   2.480   1.649  0.2093 -0.5034  0.5559
16179TIP3    H270029   3.453   2.378   1.736 -2.1903 -2.3283  0.3563
16180TIP3   OH270030   0.091   4.835  11.199  0.0462 -0.4502 -0.5382
16180TIP3    H170031   0.025   4.805  11.137 -1.4792  0.5070  0.5901
16180TIP3    H270032   0.060   4.804  11.284  0.7014  0.5905  0.0892
16181TIP3   OH270033   4.152   0.340  12.878  0.5254  0.5646  0.1207
16181TIP3    H170034   4.206   0.414  12.852  0.6614  0.9201  1.3972
16181TIP3    H270035   4.067   0.378  12.899  0.4318  0.2910  0.2456
16182TIP3   OH270036   1.297   0.605  12.326 -0.3135  0.5690  0.3822
16182TIP3    H170037   1.283   0.568  12.414 -2.9506  0.3208 -0.0966
16182TIP3    H270038   1.259   0.692  12.330 -0.4827  0.5429 -0.5194
16183TIP3   OH270039   2.410   4.147  12.590  0.3522 -0.0505  0.0984
16183TIP3    H170040   2.419   4.205  12.514  0.1063 -0.6012 -0.3538
16183TIP3    H270041   2.325   4.105  12.579  0.3684 -0.2280  0.6145
16184TIP3   OH270042   4.917   3.094  11.836 -1.0119  0.1058 -0.0082
16184TIP3    H170043   4.910   3.186  11.809 -1.7614 -0.1493 -0.6744
16184TIP3    H270044   4.867   3.090  11.918 -3.1481 -0.2527 -1.2951
16185TIP3   OH270045   1.758   2.639  13.975 -0.5984  0.4032 -0.0477
16185TIP3    H170046   1.772   2.687  14.057  0.9542  0.6068 -0.4148
16185TIP3    H270047   1.669   2.662  13.949 -1.1226  0.2989  1.6037
16186TIP3   OH270048   0.425   6.540   0.987  0.2873 -0.5678 -0.5250
16186TIP3    H170049   0.469   6.625   0.991 -0.8759  0.1445 -2.0634
16186TIP3    H270050   0.476   6.490   0.923 -1.7166  0.6835 -3.2409
16187TIP3   OH270051   3.740   5.614  14.881  0.2199 -0.1107 -0.4510
16187TIP3    H170052   3.711   5.700  14.912  3.6895  1.2111 -0.7079
16187TIP3    H270053   3.804   5.585  14.947  2.5954 -0.3385 -2.7767
16188TIP3   OH270054   1.075   5.668   6.029  0.5563 -0.1034 -0.4932
16188TIP3    H170055   1.131   5.645   6.103 -1.3240  0.5659  1.1730
16188TIP3    H270056   0.991   5.627   6.048 -0.6151  1.9063 -1.1392
16189TIP3   OH270057   0.547   4.380  15.365 -0.5200 -0.2009 -0.6431
16189TIP3    H170058   0.468   4.351  15.411 -0.0921 -2.5620 -1.3113
16189TIP3    H270059   0.618   4.367  15.427 -0.2855 -0.9241 -1.0486
16190TIP3   OH270060   5.068   0.755   0.630 -0.0858  0.1966 -0.4323
16190TIP3    H170061   5.138   0.797   0.580  1.0359 -0.6867  0.3832
16190TIP3    H270062   5.082   0.661   0.618  1.1479 -0.1042  2.7518
16191TIP3   OH270063   5.057   2.934  13.589  0.3956  0.8367  0.2482
16191TIP3    H170064   5.128   2.884  13.628 -0.2673 -1.0353 -0.8822
16191TIP3    H270065   5.102   2.995  13.529  1.1007  0.3019  0.2220
16192TIP3   OH270066   1.823   1.393  17.217 -0.2429  0.2893  0.0887
16192TIP3    H170067   1.841   1.425  17.129 -0.3140 -3.3694 -1.3689
16192TIP3    H270068   1.908   1.361  17.248 -0.2550  1.3900  1.3163
16193TIP3   OH270069   6.243   0.195  12.019  0.5931  0.3459 -0.1047
16193TIP3    H170070   6.189   0.223  11.945  0.4181  0.6017  0.1173
16193TIP3    H270071   6.230   0.263  12.085  1.7511  0.7775 -0.3155
16194TIP3   OH270072   0.940   6.648   3.891 -0.5029 -0.2083 -0.4268
16194TIP3    H170073   0.987   6.576   3.849  2.0650  0.6193  0.9075
16194TIP3    H270074   0.982   6.727   3.856  0.0620  0.5325  1.8410
16195TIP3   OH270075   3.542   0.776   4.873  0.3593  0.6648  0.4433
16195TIP3    H170076   3.524   0.799   4.964 -2.7053 -1.3006  0.3959
16195TIP3    H270077   3.455   0.763   4.834  1.5572  2.4321 -3.0486
16196TIP3   OH270078   0.557   2.659  11.263  0.5188 -0.2137  0.3375
16196TIP3    H170079   0.505   2.583  11.238 -0.7561  0.6300  0.3211
16196TIP3    H270080   0.493   2.720  11.301  1.1301  1.7194 -1.6079
16197TIP3   OH270081   2.217   4.692   3.509  0.4568  0.4416  0.0166
16197TIP3    H170082   2.145   4.703   3.572  1.3001  0.7987  0.9380
16197TIP3    H270083   2.265   4.615   3.540  1.2282  0.9753  0.1737
16198TIP3   OH270084   0.398   2.792   6.374  0.2585  0.1518  0.0537
16198TIP3    H170085   0.453   2.864   6.405  0.2098  0.9033 -1.5838
16198TIP3    H270086   0.311   2.830   6.367  0.1864 -0.1275 -0.5815
16199TIP3   OH270087   3.513   0.839   4.088 -0.0810 -0.4198  0.1461
16199TIP3    H170088   3.433   0.823   4.037  0.0565 -1.2097  0.1662
16199TIP3    H270089   3.542   0.926   4.062 -0.7675 -0.2660 -0.1105
16200TIP3   OH270090   1.270   2.041   0.594 -0.1989 -0.5063  0.3128
16200TIP3    H170091   1.231   2.080   0.672  1.5783 -1.7074  1.8410
16200TIP3    H270092   1.231   1.954   0.588 -0.6262 -0.2722 -0.3797
16201TIP3   OH270093   1.126   5.948   0.229  0.3371  0.1316  0.0100
16201TIP3    H170094   1.194   5.901   0.181 -1.3312 -0.9797 -1.3138
16201TIP3    H270095   1.138   5.922   0.320  0.9918 -0.8991 -0.3677
16202TIP3   OH270096   1.166   3.664  14.065 -0.3397  0.0590 -0.3743
16202TIP3    H170097   1.120   3.746  14.086  3.0536  2.2423 -1.0531
16202TIP3    H270098   1.141   3.646  13.974  1.7855  2.5092 -1.5337
16203TIP3   OH270099   1.508   3.277   0.976 -0.1629 -0.4168  0.0532
16203TIP3    H170100   1.436   3.285   0.914 -0.0795 -1.1499 -0.1393
16203TIP3    H270101   1.499   3.353   1.033 -2.2731 -1.5178  1.2517
16204TIP3   OH270102   0.688   5.631  16.561  0.3064 -0.2688  0.0093
16204TIP3    H170103   0.770   5.601  16.599  0.0119 -0.3896  0.5496
16204TIP3    H270104   0.626   5.560  16.578 -0.5810  0.9219  1.9257
16205TIP3   OH270105   2.760   2.304   4.183  0.4312 -0.1370 -0.4744
16205TIP3    H170106   2.746   2.211   4.165 -2.1194 -0.1079  1.1038
16205TIP3    H270107   2.845   2.309   4.226  0.6240 -1.7316 -0.6640
16206TIP3   OH270108   2.606   2.407   3.390  0.0106 -0.3066 -0.2542
16206TIP3    H170109   2.649   2.380   3.308 -0.9313 -1.5430 -0.3716
16206TIP3    H270110   2.521   2.361   3.388 -0.0364 -0.3216  1.3992
16207TIP3   OH270111   2.582   5.203  11.483 -0.7068  0.6464  0.0549
16207TIP3    H170112   2.557   5.239  11.398  1.4518 -0.4907 -1.1114
16207TIP3    H270113   2.659   5.255  11.509  0.1935 -0.6675  0.0817
16208TIP3   OH270114   2.826   5.574  13.354  0.3245  0.1731 -0.1414
16208TIP3    H170115   2.829   5.649  13.413  0.9008 -0.4026  0.5744
16208TIP3    H270116   2.756   5.595  13.292 -0.5326  0.6348  0.9596
16209TIP3   OH270117   2.837   4.847   2.814 -0.1800  0.0418 -0.2875
16209TIP3    H170118   2.763   4.790   2.792 -0.0892  0.0495 -0.6107
16209TIP3    H270119   2.903   4.787   2.849 -0.5574  0.1103  0.5462
16210TIP3   OH270120   6.737   3.361   3.648 -0.1438 -0.0422  0.4892
16210TIP3    H170121   6.748   3.391   3.738 -0.4832 -1.2897  0.9615
16210TIP3    H270122   6.709   3.269   3.656 -3.2639  0.7124 -0.7884
16211TIP3   OH270123   0.725   3.570  11.378  0.2453  0.0212 -0.1139
16211TIP3    H170124   0.818   3.595  11.376  0.1290  0.3808 -1.5332
16211TIP3    H270125   0.683   3.640  11.429  0.7721 -0.2204  0.6630
16212TIP3   OH270126   5.383   4.137   5.346  0.2323 -0.5138 -0.4588
16212TIP3    H170127   5.353   4.175   5.428  2.8296  1.0572 -0.1880
16212TIP3    H270128   5.306   4.140   5.289 -0.5630  1.9876  0.6839
16213TIP3   OH270129   3.226   0.300  14.714  0.1075 -0.2649  0.4365
16213TIP3    H170130   3.253   0.356  14.641  0.2823 -0.4912  0.3285
16213TIP3    H270131   3.170   0.357  14.768 -0.2301 -0.1773 -0.0030
16214TIP3   OH270132   1.498   6.028   1.199  0.3518 -0.1597 -0.4747
16214TIP3    H170133   1.493   5.934   1.216  1.9116 -0.3761 -1.1512
16214TIP3    H270134   1.585   6.041   1.163  1.0034  1.9210  1.7804
16215TIP3   OH270135   2.163   5.288   6.211  0.4627 -0.3759  0.1481
16215TIP3    H170136   2.197   5.199   6.206  0.0809 -0.5924  1.1540
16215TIP3    H270137   2.241   5.344   6.204  0.6185 -0.7543 -1.2942
16216TIP3   OH270138   2.657   2.447  11.895  0.3130 -0.1473 -0.5722
16216TIP3    H170139   2.588   2.403  11.845  0.5729 -0.0422 -1.0155
16216TIP3    H270140   2.658   2.536  11.863  1.7237 -0.5463 -1.6747
16217TIP3   OH270141   5.464   6.189  13.101 -0.2290  0.0701 -0.0269
16217TIP3    H170142   5.379   6.159  13.068  0.7111 -0.7101 -1.7940
16217TIP3    H270143   5.505   6.234  13.027  1.3909 -0.6249  0.4082
16218TIP3   OH270144   0.711   5.904   3.114  0.6580 -0.9725  0.2454
16218TIP3    H170145   0.710   5.810   3.096  1.2172 -1.4804  2.6338
16218TIP3    H270146   0.804   5.925   3.126  0.3844 -0.6257  2.0027
16219TIP3   OH270147   4.881   4.496   3.342  0.4014 -0.0664 -0.0343
16219TIP3    H170148   4.807   4.435   3.345  0.4160 -0.0409  1.0583
16219TIP3    H270149   4.843   4.578   3.310 -0.1016  0.0279  0.7879
16220TIP3   OH270150   6.617   6.444  16.773 -0.2502  0.1101  0.7688
16220TIP3    H170151   6.567   6.472  16.850  0.5439  0.0595  1.3008
16220TIP3    H270152   6.583   6.357  16.754 -0.5979  0.2074  0.9270
16221TIP3   OH270153   2.909   3.743   0.830 -0.2023 -0.0115  0.1705
16221TIP3    H170154   2.853   3.742   0.753  1.2269 -0.6957 -0.8933
16221TIP3    H270155   2.905   3.654   0.864 -0.6184  0.2194  0.7277
16222TIP3   OH270156   0.362   1.492   1.199  0.0700  0.0167  0.2903
16222TIP3    H170157   0.368   1.475   1.293 -4.1493 -1.7169  0.3674
16222TIP3    H270158   0.294   1.559   1.190  1.2881  1.0757 -1.4893
16223TIP3   OH270159   3.646   6.427  14.515  0.1710 -0.0602 -0.2279
16223TIP3    H170160   3.647   6.469  14.429 -0.3120  0.0378 -0.1853
16223TIP3    H270161   3.681   6.339  14.499  1.1617  0.3483 -0.3212
16224TIP3   OH270162   0.979   3.669  11.354 -0.1740  0.0842 -0.0933
16224TIP3    H170163   1.030   3.659  11.435 -0.8212  0.4662  0.3590
16224TIP3    H270164   1.042   3.651  11.284  0.3738 -0.2972  0.4980
16225TIP3   OH270165   5.448   4.998  13.651 -0.5938 -0.2255  0.0774
16225TIP3    H170166   5.481   4.948  13.576 -0.8908 -1.0889  0.5257
16225TIP3    H270167   5.435   4.933  13.720 -2.8881  0.1568  0.0350
16226TIP3   OH270168   0.021   5.654  17.169  0.6728 -0.2133  0.3848
16226TIP3    H170169   0.035   5.748  17.164  2.3790 -0.5066 -0.6795
16226TIP3    H270170   0.088   5.622  17.229 -0.8144 -0.5913  1.8988
16227TIP3   OH270171   5.215   5.711  14.234 -0.2600  0.1645  0.0906
16227TIP3    H170172   5.204   5.662  14.315 -0.9419 -0.1742 -0.1975
16227TIP3    H270173   5.212   5.803  14.261  0.6132  0.0470  0.5812
16228TIP3   OH270174   0.006   3.119   2.874 -0.4202 -0.5975 -0.5104
16228TIP3    H170175  -0.063   3.086   2.816 -1.1136 -0.1705  0.0662
16228TIP3    H270176   0.020   3.209   2.846  0.1109 -0.7734 -0.8160
16229TIP3   OH270177   0.071   1.051  14.772 -0.0742  0.1626  0.6870
16229TIP3    H170178   0.050   0.972  14.722 -1.5308  1.1230 -0.2563
16229TIP3    H270179   0.165   1.063  14.761 -0.4280  0.5677 -2.1238
16230TIP3   OH270180   4.718   0.238   4.361  0.1364 -0.4003 -0.2025
16230TIP3    H170181   4.651   0.172   4.379  1.0193 -1.4341 -0.5990
16230TIP3    H270182   4.722   0.243   4.265 -1.8826  2.2988 -0.1929
16231TIP3   OH270183   0.368   2.335  12.796  0.0547  0.6435  0.4818
16231TIP3    H170184   0.313   2.399  12.751 -0.1617 -0.4897 -0.8947
16231TIP3    H270185   0.307   2.282  12.848 -0.3650 -1.4376 -2.0411
16232TIP3   OH270186   0.071   3.480  12.478 -0.4486 -0.3167  0.4961
16232TIP3    H170187   0.162   3.508  12.484 -0.2813 -0.8854  0.6031
16232TIP3    H270188   0.021   3.553  12.514  0.0629 -0.6431  1.8967
16233TIP3   OH270189   5.248   3.040   4.681 -0.0324 -0.1678  0.2501
16233TIP3    H170190   5.161   3.019   4.714 -0.2181  0.8253  0.4081
16233TIP3    H270191   5.231   3.091   4.602  0.3921  1.5039  1.2232
16234TIP3   OH270192   6.719   2.492  16.124  0.1188 -0.2488  0.4332
16234TIP3    H170193   6.637   2.494  16.076  0.4719  2.1302 -0.1410
16234TIP3    H270194   6.694   2.501  16.216 -0.3620 -1.3348  0.4098
16235TIP3   OH270195   5.511   0.947   6.371  0.0068 -0.4647 -0.0435
16235TIP3    H170196   5.594   0.973   6.333  0.3441 -1.1369  0.2306
16235TIP3    H270197   5.472   0.887   6.307 -0.9979  1.0764 -0.9068
16236TIP3   OH270198   5.963   2.584  13.183 -0.7079 -0.3800  0.3826
16236TIP3    H170199   6.004   2.506  13.221 -2.7839 -0.6325  2.2300
16236TIP3    H270200   5.869   2.564  13.183 -1.2682  2.0771  0.8131
16237TIP3   OH270201   0.416   2.746  12.290  0.5275 -0.0732 -0.2731
16237TIP3    H170202   0.438   2.780  12.377  2.7101 -1.6814 -0.1767
16237TIP3    H270203   0.429   2.651  12.297  0.2832 -0.2688 -2.2451
16238TIP3   OH270204   2.342   0.880   2.298 -0.3190 -0.3294 -0.4412
16238TIP3    H170205   2.396   0.803   2.282  1.4147  1.0815 -1.4868
16238TIP3    H270206   2.339   0.926   2.214  0.7404  2.0294  0.7697
16239TIP3   OH270207   2.152   4.342  13.283 -0.0425 -0.3314  0.1000
16239TIP3    H170208   2.221   4.358  13.219 -1.2934 -1.0361 -1.4357
16239TIP3    H270209   2.153   4.420  13.339  1.0357  0.2961 -0.7802
16240TIP3   OH270210   2.777   0.440   4.975 -0.8519 -1.0057  0.1725
16240TIP3    H170211   2.682   0.438   4.988 -1.2367 -0.0818 -2.3145
16240TIP3    H270212   2.803   0.348   4.971 -1.7782 -1.2658 -0.0657
16241TIP3   OH270213   3.998   4.144  11.328  0.5094  0.4779 -0.0091
16241TIP3    H170214   4.079   4.164  11.375 -1.2756  1.2546  2.9005
16241TIP3    H270215   3.986   4.219  11.269  0.2360  2.0562  1.9680
16242TIP3   OH270216   6.789   1.342   5.413 -0.1564 -0.9763  0.0102
16242TIP3    H170217   6.698   1.313   5.406  0.5161 -2.8205 -1.5632
16242TIP3    H270218   6.839   1.261   5.428  1.4667 -0.2993 -1.5719
16243TIP3   OH270219   6.473   5.351   2.300 -0.5256  0.2972 -0.0531
16243TIP3    H170220   6.495   5.295   2.225  0.9077  0.5961  0.1209
16243TIP3    H270221   6.477   5.440   2.265  0.5744  0.4597  0.4691
16244TIP3   OH270222   4.750   5.910   3.542 -0.0861 -0.6558  0.2082
16244TIP3    H170223   4.744   5.963   3.463  1.1491 -0.2753  0.3673
16244TIP3    H270224   4.792   5.967   3.607 -0.2986 -1.2528  0.8783
16245TIP3   OH270225   2.945   4.256  12.656 -0.3531 -0.1968 -0.0690
16245TIP3    H170226   2.874   4.318  12.668  0.9065  1.6282 -1.7553
16245TIP3    H270227   2.963   4.222  12.744 -3.1936 -0.6090  0.3883
16246TIP3   OH270228   3.028   4.973   4.146 -0.5144 -0.6281 -0.2522
16246TIP3    H170229   3.059   4.933   4.227 -0.4143  0.1572  0.1026
16246TIP3    H270230   3.073   4.926   4.076 -0.3922 -1.1226  0.1632
16247TIP3   OH270231   3.483   5.539  11.575 -0.0900  0.0321 -0.1205
16247TIP3    H170232   3.527   5.514  11.493 -0.3814 -0.4919 -0.1211
16247TIP3    H270233   3.396   5.569  11.547 -0.1085  0.0683 -0.0239
16248TIP3   OH270234   0.194   6.672  11.757 -0.1632 -0.0348  0.3910
16248TIP3    H170235   0.205   6.590  11.806  1.4817 -0.6498 -0.9787
16248TIP3    H270236   0.171   6.644  11.668  1.7608  0.9381 -0.4405
16249TIP3   OH270237   5.384   2.019  15.039 -0.5426 -0.6705  0.2772
16249TIP3    H170238   5.301   2.041  14.997 -0.4803 -1.3718 -0.2290
16249TIP3    H270239   5.370   2.039  15.131 -1.2562 -0.7476  0.1909
16250TIP3   OH270240   3.855   4.812   0.316 -0.3219  0.4460  0.1962
16250TIP3    H170241   3.822   4.725   0.293  1.9412 -0.2926 -0.3740
16250TIP3    H270242   3.807   4.836   0.395 -0.7517 -1.4467  0.5290
16251TIP3   OH270243   4.431   6.025  12.370 -0.2142  0.2780  0.1650
16251TIP3    H170244   4.481   5.987  12.442  0.2817 -0.3806 -0.5184
16251TIP3    H270245   4.480   6.002  12.292 -1.0094  0.5698 -0.4300
16252TIP3   OH270246   2.022   4.274  16.665 -0.0542  0.1385 -0.4161
16252TIP3    H170247   2.043   4.285  16.572 -2.1464 -2.8005 -1.3292
16252TIP3    H270248   2.095   4.224  16.701 -1.0173 -2.0924 -1.4420
16253TIP3   OH270249   1.330   1.425  16.920 -0.4461  0.1356  0.3115
16253TIP3    H170250   1.294   1.438  16.833  1.4824  0.8211 -0.4269
16253TIP3    H270251   1.305   1.504  16.968  0.2062  0.6895 -0.2480
16254TIP3   OH270252   0.342   6.311  16.566  0.1180 -0.2414  0.8310
16254TIP3    H170253   0.252   6.339  16.581  0.2865  0.6637  0.2397
16254TIP3    H270254   0.350   6.227  16.612 -1.5629 -1.2551 -0.6619
16255TIP3   OH270255   3.702   4.701  13.941 -0.9232 -0.1415 -0.3441
16255TIP3    H170256   3.699   4.734  14.030  0.6894 -0.5770 -0.1167
16255TIP3    H270257   3.698   4.779  13.886  5.3717  0.8459  0.1981
16256TIP3   OH270258   0.917   2.293  17.096 -0.3953 -0.1509 -0.6198
16256TIP3    H170259   1.008   2.279  17.120 -0.4162  0.6118 -0.0526
16256TIP3    H270260   0.873   2.212  17.121 -0.2415  0.2603  1.1077
16257TIP3   OH270261   1.000   5.919   3.788 -0.1726  0.2975 -0.2843
16257TIP3    H170262   0.913   5.888   3.813 -0.8460  0.9049 -1.8119
16257TIP3    H270263   1.011   6.000   3.837  0.7174 -1.2056  2.0840
16258TIP3   OH270264   6.246   1.681   0.538  0.9876 -0.2518  0.2993
16258TIP3    H170265   6.210   1.756   0.491  1.5538 -0.7022 -0.8521
16258TIP3    H270266   6.329   1.662   0.494  1.2456 -1.0472  1.1005
16259TIP3   OH270267   1.637   3.936  14.510 -0.1740 -0.0966  0.1777
16259TIP3    H170268   1.630   3.928  14.605 -0.1606 -2.7655 -0.0094
16259TIP3    H270269   1.547   3.930  14.479  0.0141 -1.8682 -0.1105
16260TIP3   OH270270   6.616   1.074   4.617 -0.2893 -0.3477 -0.3878
16260TIP3    H170271   6.702   1.059   4.579  0.8228 -0.6486  2.1184
16260TIP3    H270272   6.621   1.162   4.654 -0.9988 -0.4112 -0.1320
16261TIP3   OH270273   1.729   6.235  13.042 -0.5779 -0.4858  0.5786
16261TIP3    H170274   1.653   6.221  12.985  0.9650  0.6732 -1.8413
16261TIP3    H270275   1.734   6.330  13.052  1.6282 -0.4035 -0.8645
16262TIP3   OH270276   4.089   4.616  17.280 -0.6878  0.3911  0.1412
16262TIP3    H170277   4.100   4.580  17.367  0.8675 -0.6725 -0.4749
16262TIP3    H270278   4.137   4.698  17.281  3.5983 -1.9682 -1.1240
16263TIP3   OH270279   6.524   2.627  12.907  0.0585  0.2061  0.5188
16263TIP3    H170280   6.467   2.662  12.976  0.2791  1.6791 -0.0292
16263TIP3    H270281   6.610   2.664  12.926  0.4303 -0.5190  0.2595
16264TIP3   OH270282   1.600   6.763   2.206 -0.3874 -0.4406  0.4707
16264TIP3    H170283   1.686   6.754   2.248 -0.5726 -0.2151  0.8935
16264TIP3    H270284   1.538   6.770   2.278 -0.6030  0.8824  0.1816
16265TIP3   OH270285   5.250   1.115  16.503  0.2994 -0.1195  0.0658
16265TIP3    H170286   5.291   1.033  16.530  1.5375  0.7179  0.7783
16265TIP3    H270287   5.306   1.184  16.540 -1.7969  1.0622  1.1539
16266TIP3   OH270288   6.228   2.513   5.381 -0.0767  0.4133  0.4485
16266TIP3    H170289   6.162   2.581   5.394  0.2368  0.8078 -0.0368
16266TIP3    H270290   6.194   2.461   5.309 -0.4957 -0.1720  1.0565
16267TIP3   OH270291   1.050   3.372   3.768 -0.5237  0.1440 -0.9928
16267TIP3    H170292   0.980   3.436   3.754 -0.6372  0.1805 -0.2748
16267TIP3    H270293   1.023   3.296   3.718 -0.1209  0.8492 -2.3058
16268TIP3   OH270294   4.832   4.665   2.967 -0.7105  0.2297  0.1404
16268TIP3    H170295   4.791   4.592   2.922 -0.7219  0.4867 -0.2685
16268TIP3    H270296   4.780   4.678   3.046 -0.3286 -0.6163  0.5430
16269TIP3   OH270297   6.649   6.786   3.961  0.4403 -1.2447 -0.2545
16269TIP3    H170298   6.661   6.813   3.870 -2.3849 -2.8930 -1.1833
16269TIP3    H270299   6.605   6.859   4.003 -2.5621 -2.3006 -1.4642
16270TIP3   OH270300   1.327   0.925  13.776 -0.1771 -0.2971 -0.6244
16270TIP3    H170301   1.393   0.993  13.765  1.7697 -1.6522  2.1776
16270TIP3    H270302   1.357   0.853  13.721  1.4832 -1.4305  1.7009
16271TIP3   OH270303   5.992   5.399   2.616 -0.2377 -0.4598 -0.3489
16271TIP3    H170304   6.018   5.447   2.695 -0.3087 -1.1755  0.1098
16271TIP3    H270305   6.040   5.442   2.545  1.6822 -1.3305  0.3901
16272TIP3   OH270306   1.900   1.075   0.759 -0.3947  0.5594  0.2793
16272TIP3    H170307   1.925   1.113   0.674  1.6649  2.6369  1.7584
16272TIP3    H270308   1.831   1.133   0.791 -1.5387 -0.5256 -0.1739
16273TIP3   OH270309   5.945   4.047  11.947 -0.4583 -0.2571  0.2654
16273TIP3    H170310   5.876   4.097  11.991 -1.1906 -1.3095  0.3047
16273TIP3    H270311   5.907   4.019  11.865  0.6990  1.1248 -0.7792
16274TIP3   OH270312   5.791   3.028  11.647 -0.2628 -0.3719 -0.0090
16274TIP3    H170313   5.787   3.039  11.552  1.0583 -1.8577 -0.2748
16274TIP3    H270314   5.881   3.054  11.670 -0.2787 -0.9199  0.6936
16275TIP3   OH270315   1.325   5.444  15.935  0.0282  0.2060 -0.2029
16275TIP3    H170316   1.352   5.352  15.937  0.4362  0.3417  0.8049
16275TIP3    H270317   1.303   5.460  15.843  2.2364 -0.2306 -0.8362
16276TIP3   OH270318   1.564   0.577  12.950  0.3704 -0.2172  0.7517
16276TIP3    H170319   1.521   0.615  13.026  0.5968 -0.7038  1.1180
16276TIP3    H270320   1.565   0.483  12.966  1.0880 -0.2573  0.5013
16277TIP3   OH270321   0.485   0.536   4.677  0.2546  0.0741  0.2232
16277TIP3    H170322   0.437   0.564   4.599 -0.9417 -0.2324  0.8324
16277TIP3    H270323   0.558   0.483   4.643 -0.2437 -0.0391 -0.6864
16278TIP3   OH270324   3.895   4.813  17.034  0.1700 -0.2935  0.4991
16278TIP3    H170325   3.861   4.812  17.124 -0.8629  1.4939  0.1464
16278TIP3    H270326   3.866   4.897  16.999  1.3696 -0.5856 -1.2101
16279TIP3   OH270327   3.706   0.864  11.453  0.0607  0.0313 -0.0834
16279TIP3    H170328   3.688   0.893  11.363  0.7280  1.0479  0.0965
16279TIP3    H270329   3.793   0.824  11.447  0.3628  0.6450  0.2300
16280TIP3   OH270330   4.128   3.581  11.582  0.1798  0.3961  0.6800
16280TIP3    H170331   4.204   3.634  11.557  0.9590  0.7248  3.5697
16280TIP3    H270332   4.059   3.644  11.598 -1.5037 -0.0236 -4.2206
16281TIP3   OH270333   0.150   6.446  16.993 -0.0087  0.0109 -0.1764
16281TIP3    H170334   0.226   6.464  16.938 -0.7112  1.8686 -0.5941
16281TIP3    H270335   0.186   6.424  17.079  1.0001  1.2182 -0.2776
16282TIP3   OH270336   6.577   2.597  16.795 -0.0523 -0.6364  0.4212
16282TIP3    H170337   6.571   2.616  16.702 -1.2639 -1.5936  0.2935
16282TIP3    H270338   6.670   2.612  16.817  0.4771 -1.5298 -1.1761
16283TIP3   OH270339   0.012   5.281  13.394  0.0119 -0.2599  0.0666
16283TIP3    H170340  -0.002   5.216  13.325 -0.3881 -0.9802  0.8197
16283TIP3    H270341   0.107   5.285  13.404  0.0606 -0.3241 -0.3679
16284TIP3   OH270342   4.521   3.435   5.962  0.6704  0.1632 -0.4098
16284TIP3    H170343   4.586   3.365   5.966  0.8067  0.3226  0.1901
16284TIP3    H270344   4.454   3.402   5.901  0.6004 -0.6035  0.0699
16285TIP3   OH270345   1.147   3.738  16.904 -0.6338 -0.4651 -0.3097
16285TIP3    H170346   1.130   3.802  16.834  0.8686 -0.5305 -0.7712
16285TIP3    H270347   1.161   3.792  16.982  0.4677 -0.2060 -0.6632
16286TIP3   OH270348   3.712   2.040  15.051 -0.4086  0.4666  0.4796
16286TIP3    H170349   3.747   2.014  14.966  0.1442  0.5129  0.6887
16286TIP3    H270350   3.619   2.018  15.047  0.0816 -1.7443  0.7256
16287TIP3   OH270351   4.055   2.815  11.153 -0.1424 -0.1692  0.4942
16287TIP3    H170352   4.049   2.909  11.169 -1.1904  0.3660 -2.6692
16287TIP3    H270353   3.992   2.776  11.213  0.8272  1.0601  2.3508
16288TIP3   OH270354   0.805   2.798  16.302 -0.4636 -0.3325 -0.3106
16288TIP3    H170355   0.767   2.759  16.381 -0.1096 -1.6491 -0.7857
16288TIP3    H270356   0.795   2.893  16.315 -0.9186 -0.5600  1.0551
16289TIP3   OH270357   1.594   3.591  11.284  0.2619  0.4386  0.5372
16289TIP3    H170358   1.677   3.573  11.242  0.0439  2.0333 -0.6338
16289TIP3    H270359   1.618   3.627  11.370  0.7449 -0.2581  0.6990
16290TIP3   OH270360   1.780   3.048  14.280 -0.0554  0.8435  0.3983
16290TIP3    H170361   1.699   2.998  14.287  0.5923 -0.1238  1.2404
16290TIP3    H270362   1.765   3.109  14.208 -1.6943  0.9989  0.8414
16291TIP3   OH270363   5.981   5.133  12.269  0.2331  0.3524 -0.6466
16291TIP3    H170364   5.998   5.039  12.278  2.2640  0.8465  1.0822
16291TIP3    H270365   5.905   5.149  12.326 -0.0055 -0.1960 -0.8041
16292TIP3   OH270366   1.685   5.218   5.242  0.3651  0.0878 -0.0741
16292TIP3    H170367   1.723   5.306   5.248  0.7964 -0.0861 -0.2408
16292TIP3    H270368   1.748   5.162   5.287 -0.8299  0.1405  1.6843
16293TIP3   OH270369   5.883   6.301  11.648  0.0815  0.1651  0.3986
16293TIP3    H170370   5.874   6.263  11.560  2.7920 -0.5156  0.3732
16293TIP3    H270371   5.971   6.277  11.675 -0.6023  0.6788  3.1883
16294TIP3   OH270372   0.553   0.746   0.410 -0.5032  0.3143  0.0139
16294TIP3    H170373   0.560   0.731   0.504 -0.3686  0.9851  0.1149
16294TIP3    H270374   0.584   0.836   0.398  2.1334 -0.6537 -1.0051
16295TIP3   OH270375   6.031   2.900   4.538 -0.8694  0.4269  0.6129
16295TIP3    H170376   6.089   2.881   4.612 -1.7367 -2.3170  0.6655
16295TIP3    H270377   5.943   2.900   4.577 -1.4259 -2.0387 -0.5128
16296TIP3   OH270378   5.029   5.705   5.634  0.0911 -0.7510 -0.2047
16296TIP3    H170379   5.063   5.789   5.604 -0.7607 -0.5538 -0.6073
16296TIP3    H270380   5.067   5.693   5.721 -1.7082  1.1701  0.8828
16297TIP3   OH270381   4.162   3.421  11.809 -1.0686 -0.9355 -0.1517
16297TIP3    H170382   4.152   3.464  11.724 -0.4265 -3.1170 -1.3869
16297TIP3    H270383   4.130   3.485  11.873  0.4567  1.5818 -1.8270
16298TIP3   OH270384   5.765   0.773  10.813 -0.0794 -1.1361 -0.6765
16298TIP3    H170385   5.805   0.697  10.856  1.1241 -0.9563 -1.4510
16298TIP3    H270386   5.826   0.795  10.743 -0.2454  0.7432 -0.2608
16299TIP3   OH270387   6.776   1.687   6.180 -0.2636  0.2159 -0.0204
16299TIP3    H170388   6.725   1.665   6.102 -1.2189 -2.3677  1.2685
16299TIP3    H270389   6.713   1.683   6.252  0.6059  2.6021  0.8996
16300TIP3   OH270390   0.136   4.849   3.550 -0.1590 -0.6078 -0.2190
16300TIP3    H170391   0.072   4.824   3.616 -0.8340  1.3309 -0.1084
16300TIP3    H270392   0.137   4.776   3.488 -3.6966  0.0290 -1.1161
16301TIP3   OH270393   0.549   2.329  14.704 -0.4904 -0.1115 -0.1181
16301TIP3    H170394   0.471   2.382  14.726 -0.3917 -0.4589  1.1252
16301TIP3    H270395   0.620   2.393  14.698 -0.5514  0.0150  0.4562
16302TIP3   OH270396   0.747   4.890   3.710  0.0670  0.5271 -0.2823
16302TIP3    H170397   0.812   4.878   3.779  2.0812  0.2589 -2.1731
16302TIP3    H270398   0.715   4.979   3.723  1.5331  1.0161  0.0966
16303TIP3   OH270399   6.071   5.979  12.681  0.6711  0.0632  0.4948
16303TIP3    H170400   6.156   5.955  12.717  0.5657 -2.4521 -0.7806
16303TIP3    H270401   6.091   6.017  12.595  0.5127 -1.5325 -0.2857
16304TIP3   OH270402   0.692   0.072   1.687 -0.0183 -0.4145 -0.2353
16304TIP3    H170403   0.629   0.103   1.752  1.0081  1.1470  0.0428
16304TIP3    H270404   0.773   0.059   1.737  0.6446  0.3349 -1.1158
16305TIP3   OH270405   2.385   4.416  12.469  0.4804 -1.1879  0.2334
16305TIP3    H170406   2.342   4.395  12.385  0.8795  0.1830 -0.3267
16305TIP3    H270407   2.315   4.450  12.524  0.7573  0.7117 -0.5615
16306TIP3   OH270408   0.021   3.785   4.358  0.1819 -0.3242  0.5539
16306TIP3    H170409  -0.036   3.777   4.282  2.0913  1.8171 -1.1451
16306TIP3    H270410   0.002   3.872   4.394  1.3762 -0.1628  0.8031
16307TIP3   OH270411   4.259   6.681  14.640 -0.1254 -0.1204  0.1715
16307TIP3    H170412   4.265   6.774  14.659  0.3989 -0.1488  0.1512
16307TIP3    H270413   4.237   6.676  14.547  2.4224 -0.0389 -0.4762
16308TIP3   OH270414   1.440   1.201   0.967 -0.2243  0.6380 -0.4310
16308TIP3    H170415   1.432   1.134   1.036  1.2086 -0.0146 -0.8829
16308TIP3    H270416   1.397   1.162   0.891 -0.8936  0.9379 -0.2124
16309TIP3   OH270417   0.197   5.695   4.327  0.3339 -0.3832 -0.4630
16309TIP3    H170418   0.157   5.674   4.411 -1.3825  3.8569 -0.1116
16309TIP3    H270419   0.153   5.637   4.264 -1.1955 -0.7916  0.9605
16310TIP3   OH270420   3.650   2.011   1.762 -0.4648 -0.3466 -0.3747
16310TIP3    H170421   3.575   1.964   1.725 -0.1722 -0.9111 -0.2540
16310TIP3    H270422   3.625   2.027   1.854 -0.6699 -0.0370 -0.4820
16311TIP3   OH270423   4.522   5.559   1.172 -0.0094 -0.4131 -0.1820
16311TIP3    H170424   4.523   5.646   1.210 -2.2075 -0.6883  0.6061
16311TIP3    H270425   4.566   5.504   1.236 -0.4105 -0.2305  0.2504
16312TIP3   OH270426   5.102   1.316  12.779 -0.5671 -0.0079  0.3968
16312TIP3    H170427   5.087   1.254  12.708 -1.0334 -0.2533  0.7050
16312TIP3    H270428   5.189   1.295  12.812 -0.4037  0.0217 -0.0140
16313TIP3   OH270429   5.231   4.920   1.310  0.0084 -0.0791 -0.3825
16313TIP3    H170430   5.322   4.941   1.288 -0.2937  2.5290  0.6485
16313TIP3    H270431   5.237   4.853   1.377  1.1941  0.0331 -0.3689
16314TIP3   OH270432   3.514   4.016  16.738  0.1481  0.1345 -0.4767
16314TIP3    H170433   3.555   4.103  16.742 -0.6635  0.4154  3.7589
16314TIP3    H270434   3.585   3.955  16.758 -0.1597  0.1664  0.7534
16315TIP3   OH270435   5.126   5.399   5.990  0.4253  0.5953 -0.0667
16315TIP3    H170436   5.187   5.331   6.020  0.7860  1.0075  0.1386
16315TIP3    H270437   5.116   5.456   6.066 -0.5544  0.2924  0.0380
16316TIP3   OH270438   5.913   4.724  14.548  0.0979  0.1209 -0.9864
16316TIP3    H170439   5.822   4.716  14.576 -0.3496  1.1658 -2.0500
16316TIP3    H270440   5.925   4.818  14.532  2.0104  0.2931  1.1798
16317TIP3   OH270441   6.087   0.857   4.337 -0.2306  0.3886  0.1103
16317TIP3    H170442   6.107   0.765   4.321 -0.1921  0.6239 -1.2169
16317TIP3    H270443   5.991   0.862   4.336 -0.2069  0.6544 -1.5246
16318TIP3   OH270444   2.720   4.706  13.513  0.4150  0.2980 -0.2250
16318TIP3    H170445   2.803   4.744  13.483  0.0025  0.3001 -1.4002
16318TIP3    H270446   2.656   4.775  13.497  0.0088 -0.1114 -0.3724
16319TIP3   OH270447   6.111   5.314  13.480  0.3217  0.1012  0.0610
16319TIP3    H170448   6.154   5.229  13.471  1.2493  0.5838 -0.1053
16319TIP3    H270449   6.038   5.311  13.417 -0.3028 -0.9603  0.8055
16320TIP3   OH270450   0.364   3.145  15.070 -0.2012  0.7128  0.0130
16320TIP3    H170451   0.374   3.150  15.165 -1.5892  0.2050  0.1965
16320TIP3    H270452   0.309   3.068  15.056 -1.4876  1.8110 -1.1006
16321TIP3   OH270453   4.700   0.157   0.769  0.8423 -0.5034  0.3827
16321TIP3    H170454   4.729   0.207   0.845 -1.7305  0.7307  0.6312
16321TIP3    H270455   4.626   0.207   0.735 -0.0231 -2.6800 -1.0525
16322TIP3   OH270456   2.324   5.415  13.459 -0.1360 -0.2868 -0.3128
16322TIP3    H170457   2.331   5.510  13.469  0.4708  0.0047 -3.1634
16322TIP3    H270458   2.414   5.385  13.448 -0.4700 -0.9547 -1.3045
16323TIP3   OH270459   2.549   3.827  15.627  0.2264 -0.4262 -0.5383
16323TIP3    H170460   2.614   3.889  15.594  0.8738 -1.3849 -1.0546
16323TIP3    H270461   2.581   3.741  15.602  0.3111 -1.1487  1.8577
16324TIP3   OH270462   5.609   3.038   5.812 -0.0043  0.5213 -0.3815
16324TIP3    H170463   5.598   2.973   5.743 -1.3754  1.2106 -0.8230
16324TIP3    H270464   5.520   3.063   5.837  0.4520 -0.1102  2.0252
16325TIP3   OH270465   3.696   5.135   2.202 -0.1434 -0.0165 -0.4086
16325TIP3    H170466   3.678   5.052   2.159  0.3795 -0.7694  0.8029
16325TIP3    H270467   3.696   5.114   2.296  1.2475  1.0948 -0.1488
16326TIP3   OH270468   1.662   2.667  15.519  0.4178 -0.1989  0.5881
16326TIP3    H170469   1.576   2.641  15.552 -0.2857 -1.4461 -2.0805
16326TIP3    H270470   1.712   2.585  15.516  1.5682  0.4405  1.6609
16327TIP3   OH270471   0.744   3.735  17.228  0.9488 -0.1900 -0.3225
16327TIP3    H170472   0.695   3.793  17.170  1.9004  2.5300  1.4789
16327TIP3    H270473   0.683   3.664  17.248 -1.8292  2.3928  0.8000
16328TIP3   OH270474   1.565   6.115   1.797 -0.1732  0.8238  0.5674
16328TIP3    H170475   1.609   6.140   1.878 -0.5723 -0.6784  1.2645
16328TIP3    H270476   1.617   6.157   1.728  1.8000 -0.0866  1.4383
16329TIP3   OH270477   0.496   1.137   0.329  0.4614  0.0874 -0.2828
16329TIP3    H170478   0.438   1.145   0.405  0.1815 -0.6802 -0.4056
16329TIP3    H270479   0.544   1.219   0.326  2.0551 -0.7150  2.0252
16330TIP3   OH270480   5.582   3.368  11.965 -0.4174  0.4269 -0.1453
16330TIP3    H170481   5.560   3.316  11.887  1.1106 -0.5348  0.0422
16330TIP3    H270482   5.632   3.308  12.020 -1.7032  1.0163  1.7095
16331TIP3   OH270483   2.109   1.107  16.845 -0.1247  0.0170 -0.1245
16331TIP3    H170484   2.139   1.017  16.858 -0.4019 -0.2621 -1.2807
16331TIP3    H270485   2.027   1.098  16.796 -1.3647  0.8248  1.7461
16332TIP3   OH270486   0.799   6.086  10.855 -0.2092  0.3301  0.0973
16332TIP3    H170487   0.827   6.066  10.766  1.5561 -0.1976  0.7695
16332TIP3    H270488   0.729   6.024  10.873  1.6174 -1.7257  0.2368
16333TIP3   OH270489   3.056   1.729  13.594 -0.2435 -0.1942  0.0379
16333TIP3    H170490   2.996   1.718  13.668  0.8201 -1.4294  0.7373
16333TIP3    H270491   3.040   1.652  13.539 -1.9829  1.3782 -1.7481
16334TIP3   OH270492   3.256   1.535  15.711  0.7159  0.0987  0.3343
16334TIP3    H170493   3.285   1.513  15.623 -0.6253 -0.1295 -0.0594
16334TIP3    H270494   3.261   1.631  15.715 -0.7800  0.2472 -0.5735
16335TIP3   OH270495   3.294   0.821  13.550 -0.0678 -0.5498  0.0125
16335TIP3    H170496   3.203   0.849  13.557 -0.6469 -3.1639  4.0746
16335TIP3    H270497   3.345   0.893  13.587 -0.5660  0.1258 -0.5949
16336TIP3   OH270498   3.472   3.921   3.858 -0.4957  0.0562 -0.4563
16336TIP3    H170499   3.523   3.973   3.797  1.8544 -0.5664  0.9154
16336TIP3    H270500   3.476   3.969   3.941 -0.0778 -1.2158  0.2770
16337TIP3   OH270501   5.151   6.255   4.019  0.5931  0.3757 -0.2336
16337TIP3    H170502   5.206   6.185   4.054  2.2996  0.9269 -1.6855
16337TIP3    H270503   5.067   6.213   4.000  0.3556 -0.3977  2.3800
16338TIP3   OH270504   1.898   0.135  17.192 -0.1799 -0.7141 -0.3337
16338TIP3    H170505   1.863   0.223  17.183 -0.6374 -0.8409  0.1609
16338TIP3    H270506   1.993   0.147  17.197 -0.0708 -0.4295 -2.4880
16339TIP3   OH270507   6.145   1.559   2.537  0.1466 -0.2994 -0.1944
16339TIP3    H170508   6.096   1.633   2.571  1.5453  1.1134 -1.1448
16339TIP3    H270509   6.228   1.561   2.586  1.7803  1.1807 -2.8858
16340TIP3   OH270510   6.679   0.368  13.320 -0.3547 -0.4143  0.4644
16340TIP3    H170511   6.689   0.306  13.392  0.2999 -2.0036 -0.9826
16340TIP3    H270512   6.761   0.418  13.320  0.3129 -1.5006 -0.1939
16341TIP3   OH270513   2.618   3.237   5.349 -0.5188  0.3021  0.2550
16341TIP3    H170514   2.600   3.327   5.323 -3.7283 -0.3334 -0.0432
16341TIP3    H270515   2.590   3.232   5.440 -0.1639 -0.3403  0.3333
16342TIP3   OH270516   2.187   6.815  14.747  0.1815  0.5593 -0.3567
16342TIP3    H170517   2.144   6.839  14.829  1.1639 -1.4358  0.7681
16342TIP3    H270518   2.250   6.886  14.732  0.9869  0.2338  1.3820
16343TIP3   OH270519   1.740   6.096  12.541 -0.8779 -0.5993  0.0319
16343TIP3    H170520   1.678   6.039  12.496 -2.9439 -0.1455  2.2054
16343TIP3    H270521   1.728   6.077  12.634  0.3508  1.3983  0.6417
16344TIP3   OH270522   3.739   5.621   4.129  0.2574  0.2600 -0.1033
16344TIP3    H170523   3.747   5.526   4.114  0.2456  0.5437 -2.1238
16344TIP3    H270524   3.646   5.639   4.113  0.2039  0.5651  0.5698
16345TIP3   OH270525   1.625   6.462  15.740  0.1447  0.1603  0.3596
16345TIP3    H170526   1.546   6.444  15.791 -0.3343  2.0507  0.3275
16345TIP3    H270527   1.678   6.518  15.797  0.2938  1.0383 -0.6272
16346TIP3   OH270528   3.911   0.356   5.173 -0.2877  0.0238 -0.4092
16346TIP3    H170529   3.909   0.422   5.242  2.7673 -0.1136 -0.1440
16346TIP3    H270530   3.844   0.292   5.200 -1.5513  1.7203  0.5940
16347TIP3   OH270531   4.599   0.157   1.416  0.3147 -0.0338  0.3045
16347TIP3    H170532   4.577   0.159   1.323  1.0073  1.1230  0.1621
16347TIP3    H270533   4.643   0.072   1.428 -2.4847 -1.5713  0.2271
16348TIP3   OH270534   3.459   2.971   5.386 -0.2188 -1.0227 -0.6029
16348TIP3    H170535   3.397   3.033   5.423  1.2278  1.6412 -2.4644
16348TIP3    H270536   3.490   2.920   5.461 -2.1151 -0.1302  0.8266
16349TIP3   OH270537   3.718   1.327   3.319  0.6040  0.2455  0.0184
16349TIP3    H170538   3.765   1.284   3.248  0.0673  1.2105 -0.9313
16349TIP3    H270539   3.786   1.370   3.371  1.2206 -2.1609  1.3172
16350TIP3   OH270540   2.564   0.878  12.243 -0.8031 -0.3955 -0.2577
16350TIP3    H170541   2.612   0.892  12.162  1.1177 -0.7940  0.7625
16350TIP3    H270542   2.555   0.965  12.281  0.3197 -0.4567  0.1795
16351TIP3   OH270543   3.907   6.674  15.469 -0.1361  0.4161 -0.3281
16351TIP3    H170544   3.828   6.706  15.513  0.3853  1.2788  0.0002
16351TIP3    H270545   3.877   6.645  15.383 -0.6192  1.9140 -0.6799
16352TIP3   OH270546   2.413   2.499  11.374  0.3408 -0.1574 -0.4263
16352TIP3    H170547   2.437   2.494  11.282  2.0981  1.5170 -0.0933
16352TIP3    H270548   2.365   2.581  11.382 -0.2981 -0.5698  0.0584
16353TIP3   OH270549   0.598   1.290  15.424  0.1756 -0.0610  0.0517
16353TIP3    H170550   0.606   1.376  15.465  0.7821 -0.0655 -0.0586
16353TIP3    H270551   0.685   1.271  15.390  0.3234 -1.1823  1.0059
16354TIP3   OH270552   0.431   4.629   2.788  0.4705 -0.2517  0.6267
16354TIP3    H170553   0.458   4.721   2.798  1.5506 -0.6953  1.8362
16354TIP3    H270554   0.358   4.619   2.849  0.8510 -0.3986  1.0596
16355TIP3   OH270555   1.593   4.438  15.041 -0.1923  0.0476 -0.0020
16355TIP3    H170556   1.600   4.360  15.095 -2.1444 -1.1125 -1.3579
16355TIP3    H270557   1.565   4.507  15.101 -0.4077 -0.7686  0.8379
16356TIP3   OH270558   5.571   4.355  14.228  0.1829 -0.1351  0.8193
16356TIP3    H170559   5.537   4.343  14.317  1.0389 -1.8828  0.9364
16356TIP3    H270560   5.666   4.363  14.240  0.2042  0.6466  0.1445
16357TIP3   OH270561   4.273   0.349   5.601  0.1345  0.2986 -0.2713
16357TIP3    H170562   4.258   0.431   5.650  1.6185  0.3506  0.1043
16357TIP3    H270563   4.260   0.280   5.666  2.0946  0.3674  0.2292
16358TIP3   OH270564   1.562   2.353   0.596 -0.1116  0.0099  0.4356
16358TIP3    H170565   1.623   2.329   0.666 -1.2753 -1.3433  1.0072
16358TIP3    H270566   1.483   2.381   0.643 -1.0269 -1.2421 -0.3470
16359TIP3   OH270567   0.391   5.797  15.991 -0.3209 -0.7157 -0.3854
16359TIP3    H170568   0.353   5.724  15.942 -1.0793  1.7630 -3.6771
16359TIP3    H270569   0.347   5.795  16.076 -4.2866 -0.9098 -2.3297
16360TIP3   OH270570   5.258   0.038   5.059 -0.9118  0.3715  0.5365
16360TIP3    H170571   5.310   0.015   5.136 -0.1096  0.9471  0.1788
16360TIP3    H270572   5.229  -0.045   5.023  0.6971 -0.0146  0.1035
16361TIP3   OH270573   0.413   2.478  13.073  0.0958 -0.0243  0.2640
16361TIP3    H170574   0.341   2.540  13.083  0.9084  0.8652  0.7495
16361TIP3    H270575   0.373   2.401  13.034 -1.2232  0.2513  1.0284
16362TIP3   OH270576   4.477   5.689   4.261  0.1679  0.0511 -0.2044
16362TIP3    H170577   4.572   5.701   4.259  0.0122  1.7811  1.3144
16362TIP3    H270578   4.460   5.624   4.193  2.7184 -2.4370  1.4003
16363TIP3   OH270579   6.323   5.840  14.116 -0.3672 -0.2577 -0.6033
16363TIP3    H170580   6.350   5.879  14.200 -1.7055 -0.7987  0.0905
16363TIP3    H270581   6.404   5.811  14.076  0.2297 -0.5664  0.8022
16364TIP3   OH270582   4.869   1.252   1.024 -0.5013  0.6444 -0.2537
16364TIP3    H170583   4.960   1.231   1.003 -0.6292  1.8730 -2.2112
16364TIP3    H270584   4.863   1.242   1.119  1.7991  0.9969 -0.0451
16365TIP3   OH270585   0.830   3.188   4.186  0.3745  0.1619 -0.6985
16365TIP3    H170586   0.795   3.206   4.099  2.3288 -0.5369 -1.6482
16365TIP3    H270587   0.914   3.145   4.170  1.1135  0.7028  1.5183
16366TIP3   OH270588   5.585   0.008   3.860 -0.4512  0.0541 -0.1330
16366TIP3    H170589   5.652  -0.038   3.909 -0.8287 -0.7868 -0.4008
16366TIP3    H270590   5.518  -0.058   3.842  0.1517  0.0772 -2.6835
16367TIP3   OH270591   1.102   1.072  13.669  0.3067 -0.1088  0.2688
16367TIP3    H170592   1.091   1.007  13.600  0.9821  1.0271 -0.9410
16367TIP3    H270593   1.191   1.059  13.702  0.1870 -0.2749  0.5268
16368TIP3   OH270594   3.517   4.337  10.733  0.2220 -0.0691 -0.3451
16368TIP3    H170595   3.457   4.289  10.791 -0.6238  2.7098  1.1410
16368TIP3    H270596   3.463   4.361  10.658  0.7508 -1.7458 -1.2814
16369TIP3   OH270597   4.829   2.476  16.940  0.1895  0.4303 -0.4098
16369TIP3    H170598   4.866   2.388  16.944  0.5309  0.6825  2.8925
16369TIP3    H270599   4.735   2.462  16.927  0.6137 -0.3023 -3.0972
16370TIP3   OH270600   5.150   0.800  15.351 -0.3410 -0.7151 -0.7796
16370TIP3    H170601   5.146   0.893  15.330 -0.3630 -0.7668 -1.0079
16370TIP3    H270602   5.061   0.777  15.378 -0.0835 -0.4223  0.3507
16371TIP3   OH270603   1.746   0.001  11.904 -0.4171 -0.2043 -0.4599
16371TIP3    H170604   1.657  -0.031  11.893 -0.0769 -1.6334  0.8640
16371TIP3    H270605   1.795  -0.040  11.833 -0.4170 -0.9465 -0.0317
16372TIP3   OH270606   4.316   2.782   3.443  0.5760 -0.4900 -0.1024
16372TIP3    H170607   4.270   2.809   3.523  2.4885  0.2981  0.7820
16372TIP3    H270608   4.250   2.790   3.374 -0.2718  1.8994  0.9031
16373TIP3   OH270609   1.423   6.733   6.329  0.3943  0.0851  0.1027
16373TIP3    H170610   1.475   6.805   6.364 -0.9035  0.6194  0.9443
16373TIP3    H270611   1.352   6.775   6.282 -0.1295 -0.6427  0.2379
16374TIP3   OH270612   0.468   4.512   2.542 -0.2646 -0.1636 -0.4206
16374TIP3    H170613   0.500   4.427   2.571  0.4476 -0.2509 -1.4402
16374TIP3    H270614   0.465   4.565   2.622  0.8206 -0.6694 -0.0336
16375TIP3   OH270615   5.067   2.963   5.385  0.0328  0.2572 -0.2840
16375TIP3    H170616   5.147   3.014   5.372 -0.0397  0.6682  0.8640
16375TIP3    H270617   5.005   2.999   5.322  0.4403  0.5759 -0.5101
16376TIP3   OH270618   5.059   6.788  15.683 -0.1999 -0.4573  0.2122
16376TIP3    H170619   5.063   6.692  15.690 -2.0258 -0.5385  0.2714
16376TIP3    H270620   5.061   6.804  15.588 -1.1967 -0.6319  0.1531
16377TIP3   OH270621   0.977   4.756  16.690 -0.1843  0.0770 -0.6105
16377TIP3    H170622   0.969   4.812  16.768  0.8878  0.1206 -0.5270
16377TIP3    H270623   1.042   4.690  16.714 -1.7011 -1.4251 -0.5957
16378TIP3   OH270624   3.640   1.172  16.030 -0.3396  0.1009  0.1471
16378TIP3    H170625   3.674   1.177  16.119 -0.0582  1.4918 -0.0227
16378TIP3    H270626   3.570   1.238  16.027 -0.3460  0.0636 -0.6633
16379TIP3   OH270627   0.977   1.732   1.577 -0.4036 -0.0781  0.1496
16379TIP3    H170628   0.986   1.687   1.661 -0.8254 -0.5433 -0.0481
16379TIP3    H270629   1.016   1.672   1.513 -2.2985 -0.8577 -0.3193
16380TIP3   OH270630   3.666   0.901  11.858 -0.1287 -0.5551  0.2517
16380TIP3    H170631   3.719   0.824  11.835  0.6308 -0.1581  0.6681
16380TIP3    H270632   3.729   0.972  11.868 -0.7119 -0.1334  1.0103
16381TIP3   OH270633   2.522   3.801  11.480  0.2257  0.1263  0.3313
16381TIP3    H170634   2.509   3.862  11.553  2.4605 -0.8206  1.5797
16381TIP3    H270635   2.614   3.774  11.488  0.1598 -0.9251 -2.1311
16382TIP3   OH270636   6.505   0.510  12.420  0.4600  0.1908 -0.0872
16382TIP3    H170637   6.536   0.420  12.412  0.6013  0.2072  0.2687
16382TIP3    H270638   6.435   0.506  12.484  0.8500  0.4237  0.3631
16383TIP3   OH270639   3.178   0.515  11.345 -0.5059 -0.2465 -0.0065
16383TIP3    H170640   3.169   0.609  11.332 -2.9252 -0.2574  1.2699
16383TIP3    H270641   3.169   0.478  11.257 -0.2281  0.6620 -0.4257
16384TIP3   OH270642   6.358   2.321  14.581 -0.9066 -0.3846  0.3085
16384TIP3    H170643   6.285   2.372  14.615 -0.2707  1.2488 -0.6668
16384TIP3    H270644   6.436   2.367  14.613 -0.3178 -1.2145  0.0804
16385TIP3   OH270645   4.536   1.942   0.213  0.3213 -0.5618  0.6616
16385TIP3    H170646   4.590   1.937   0.291 -2.5037 -0.4225  2.6867
16385TIP3    H270647   4.497   1.855   0.205  0.9957 -0.7509 -0.9478
16386TIP3   OH270648   4.081   6.261  16.970 -0.2711 -0.3668  0.5301
16386TIP3    H170649   4.003   6.218  17.003 -1.7924  1.9960  0.1376
16386TIP3    H270650   4.065   6.269  16.875  0.2532  0.4851  0.5110
16387TIP3   OH270651   0.952   0.626   0.895 -0.5218  0.1060 -0.2228
16387TIP3    H170652   0.861   0.649   0.877 -0.5390  0.7800  0.6913
16387TIP3    H270653   0.955   0.531   0.887 -1.0494  0.1865 -1.4019
16388TIP3   OH270654   6.281   1.965  16.308  0.4907 -0.1385  0.1885
16388TIP3    H170655   6.216   1.968  16.378  0.2886 -1.3196  0.0572
16388TIP3    H270656   6.365   1.967  16.354  0.3604  0.3286  0.4083
16389TIP3   OH270657   6.713   2.762   1.148 -0.3664 -0.2648 -1.0632
16389TIP3    H170658   6.669   2.785   1.066 -0.6602 -2.1835 -1.4720
16389TIP3    H270659   6.769   2.837   1.167 -1.4520  0.8687 -2.2023
16390TIP3   OH270660   3.234   2.604  12.296 -0.1707  0.0829  0.1282
16390TIP3    H170661   3.199   2.671  12.354  1.2977  1.5676 -0.6823
16390TIP3    H270662   3.317   2.639  12.264 -0.0212 -1.5278 -1.3711
16391TIP3   OH270663   0.672   1.912  15.481 -0.2838  0.4241 -0.1733
16391TIP3    H170664   0.755   1.865  15.471 -1.3549 -1.5254 -0.0470
16391TIP3    H270665   0.613   1.871  15.418 -1.4594  1.1121  0.4543
16392TIP3   OH270666   5.520   5.685  14.182  0.0343  0.1098 -0.1196
16392TIP3    H170667   5.530   5.720  14.093  0.3500  0.8228  0.1927
16392TIP3    H270668   5.428   5.702  14.203  0.1474  0.6233 -0.0273
16393TIP3   OH270669   6.439   1.503   2.961  0.0834  0.1304 -0.5522
16393TIP3    H170670   6.494   1.546   3.026  2.6811 -1.4746 -1.5811
16393TIP3    H270671   6.379   1.449   3.012  1.0401  0.1145  0.5627
16394TIP3   OH270672   0.811   4.507  13.533  0.3690  0.2453  0.1554
16394TIP3    H170673   0.874   4.494  13.604 -2.4394  0.3347  2.7871
16394TIP3    H270674   0.733   4.543  13.576 -1.9845 -1.1434 -2.7282
16395TIP3   OH270675   3.051   6.154  15.855  0.1997  0.1563  0.6066
16395TIP3    H170676   3.022   6.219  15.791 -0.5415 -0.5416  0.2172
16395TIP3    H270677   2.987   6.159  15.925 -0.0040 -0.3277  0.4561
16396TIP3   OH270678   3.822   3.703  12.126  0.1774 -0.1116 -0.0129
16396TIP3    H170679   3.830   3.791  12.089 -0.4980 -0.4759 -1.0319
16396TIP3    H270680   3.728   3.689  12.134  0.2957 -0.5284  0.6663
16397TIP3   OH270681   5.065   3.956  13.069  0.7924  0.0468  0.3416
16397TIP3    H170682   5.025   3.892  13.010  1.1835  0.2961 -0.2013
16397TIP3    H270683   5.151   3.920  13.089  1.0736  0.4703 -0.0875
16398TIP3   OH270684   4.739   3.407  15.304 -0.1037 -0.3089 -0.1781
16398TIP3    H170685   4.751   3.343  15.234  0.0014 -1.5234  0.9147
16398TIP3    H270686   4.670   3.466  15.272 -2.7354 -3.0429  0.1752
16399TIP3   OH270687   0.621   0.586   6.219 -0.3934 -0.5596  0.2029
16399TIP3    H170688   0.527   0.595   6.205 -0.5735 -0.3208  1.5316
16399TIP3    H270689   0.629   0.528   6.294  0.5269 -0.6515  0.0447
16400TIP3   OH270690   4.818   4.519  14.073 -0.0056 -0.0078 -0.5034
16400TIP3    H170691   4.874   4.464  14.128 -0.9397 -1.1540 -0.6601
16400TIP3    H270692   4.825   4.480  13.986 -0.5353  0.2246 -0.6512
16401TIP3   OH270693   5.372   5.739  13.043 -0.8869  0.4317 -0.1105
16401TIP3    H170694   5.300   5.684  13.075 -0.1510 -1.3553 -1.4044
16401TIP3    H270695   5.386   5.709  12.953 -0.0176  2.3268 -0.6275
16402TIP3   OH270696   0.218   1.438  16.274 -0.0538  0.6031  0.2927
16402TIP3    H170697   0.262   1.515  16.237  3.0870 -1.9641 -1.5533
16402TIP3    H270698   0.209   1.458  16.367  0.8900  3.1000 -0.1173
16403TIP3   OH270699   2.610   2.541   4.677 -0.2728 -0.0473  0.4077
16403TIP3    H170700   2.663   2.536   4.597  1.8974  0.3840  1.7962
16403TIP3    H270701   2.618   2.632   4.706 -1.3080 -0.1202  0.9715
16404TIP3   OH270702   6.021   3.824  14.064  0.1794  0.5873  0.3529
16404TIP3    H170703   5.927   3.808  14.058  0.0884  0.7666  1.1852
16404TIP3    H270704   6.028   3.900  14.122  0.8376  0.5489  0.3254
16405TIP3   OH270705   6.227   1.782  13.371 -0.1688 -0.3731 -0.3005
16405TIP3    H170706   6.181   1.721  13.314 -0.3342  1.1083 -1.7985
16405TIP3    H270707   6.261   1.849  13.312  1.4733  0.0798  1.1156
16406TIP3   OH270708   2.870   4.415   0.919 -0.1617 -0.8678 -0.0865
16406TIP3    H170709   2.861   4.507   0.946  1.5919 -1.0028  1.0743
16406TIP3    H270710   2.875   4.366   1.001  0.8376 -1.7884 -0.6822
16407TIP3   OH270711   0.533   3.429  15.320  0.3763 -0.3060  0.5350
16407TIP3    H170712   0.567   3.449  15.233  0.4261 -1.9870  0.1633
16407TIP3    H270713   0.447   3.392  15.305  0.9136 -1.8295  1.1184
16408TIP3   OH270714   1.154   6.252  13.721  0.2802 -0.2064 -0.2538
16408TIP3    H170715   1.201   6.254  13.638  1.4069 -1.2272  0.3459
16408TIP3    H270716   1.078   6.309  13.707  0.6844 -0.0333 -1.8342
16409TIP3   OH270717   6.096   2.720   4.124  0.4461 -1.0439  0.3355
16409TIP3    H170718   6.117   2.638   4.169  1.5260 -0.6137  0.6316
16409TIP3    H270719   6.181   2.757   4.101  0.0106  0.5994  1.2936
16410TIP3   OH270720   0.896   6.062  16.272 -0.1108  0.2534  0.2390
16410TIP3    H170721   0.960   6.031  16.337  0.4988  0.4773 -0.2423
16410TIP3    H270722   0.891   5.990  16.209  0.7242  0.7948 -0.4684
16411TIP3   OH270723   6.711   2.956   5.951  0.1202  0.3078  0.4559
16411TIP3    H170724   6.804   2.967   5.930  0.4839 -1.7333  0.9047
16411TIP3    H270725   6.709   2.947   6.046 -0.2784 -1.7930  0.2684
16412TIP3   OH270726   2.932   0.289  16.726  0.2492 -0.1395 -0.2073
16412TIP3    H170727   2.868   0.344  16.682  2.1667  0.5989 -2.1455
16412TIP3    H270728   2.987   0.351  16.775  2.4061 -0.2358 -2.3823
16413TIP3   OH270729   1.326   2.631  10.430  0.0824  0.2131 -0.0445
16413TIP3    H170730   1.272   2.700  10.391  0.5724  0.1074 -0.9109
16413TIP3    H270731   1.412   2.643  10.391  0.5748  0.0901  0.9882
16414TIP3   OH270732   0.003   2.059  12.659  0.2899 -0.3283  0.1058
16414TIP3    H170733   0.080   2.117  12.660  0.4944 -0.6025  0.3741
16414TIP3    H270734  -0.072   2.119  12.662  0.4898 -0.0552 -0.2985
16415TIP3   OH270735   1.466   2.666   4.919 -0.2299 -0.4572  0.5472
16415TIP3    H170736   1.429   2.606   4.854  2.6198 -0.4840 -1.1435
16415TIP3    H270737   1.500   2.609   4.988  0.3720 -0.6652  0.0826
16416TIP3   OH270738   4.845   2.267   4.555 -0.0993 -0.4462  0.6679
16416TIP3    H170739   4.918   2.206   4.544  0.0810 -0.1486  0.2237
16416TIP3    H270740   4.773   2.213   4.588 -0.1752 -1.0416 -0.4648
16417TIP3   OH270741   5.709   4.183  15.220  0.5163  0.7505  0.1209
16417TIP3    H170742   5.786   4.156  15.270  0.8198  1.0350 -0.1916
16417TIP3    H270743   5.641   4.121  15.246  1.0378  0.0637 -0.1284
16418TIP3   OH270744   0.047   1.792   0.468 -0.2765  0.3837 -0.1442
16418TIP3    H170745   0.141   1.777   0.452 -0.1959  0.8265 -0.0963
16418TIP3    H270746   0.044   1.872   0.521 -0.6160 -0.3481  0.9585
16419TIP3   OH270747   4.554   0.638   3.888 -0.2446 -0.1300  0.0089
16419TIP3    H170748   4.548   0.721   3.841  0.5005  1.5778  2.8504
16419TIP3    H270749   4.463   0.608   3.895 -0.4190 -0.1168 -1.9362
16420TIP3   OH270750   6.054   1.081   3.266 -0.2862  0.1848 -0.0820
16420TIP3    H170751   5.989   1.058   3.333  1.5803  0.2304  1.7815
16420TIP3    H270752   6.090   1.164   3.296  1.1233 -0.1842 -0.7449
16421TIP3   OH270753   5.110   2.820   3.519 -0.0518  0.0596  0.2185
16421TIP3    H170754   5.173   2.854   3.455 -0.6933  0.1351 -0.3763
16421TIP3    H270755   5.152   2.742   3.554  0.8851  0.7547  0.6761
16422TIP3   OH270756   6.542   0.715   2.894  0.4119 -0.4611  0.1977
16422TIP3    H170757   6.506   0.710   2.982  0.6015  0.7190  0.3515
16422TIP3    H270758   6.583   0.801   2.890  0.3473 -0.4829 -1.0716
16423TIP3   OH270759   3.597   4.532  12.304 -0.2573  0.3216 -0.0966
16423TIP3    H170760   3.677   4.583  12.292 -1.0658  1.2195 -2.0033
16423TIP3    H270761   3.598   4.470  12.231 -1.4946  0.6257 -0.3785
16424TIP3   OH270762   0.672   2.728  12.935 -0.4331  0.7546 -0.4086
16424TIP3    H170763   0.594   2.746  12.987 -1.0671 -0.0226 -1.0751
16424TIP3    H270764   0.716   2.813  12.927 -0.4530  0.9208  1.1851
16425TIP3   OH270765   1.697   2.013   4.858  0.0572 -0.0243  0.1430
16425TIP3    H170766   1.615   1.990   4.814  0.2239  1.8914 -1.2328
16425TIP3    H270767   1.720   1.935   4.909 -1.2511 -1.5427 -1.5178
16426TIP3   OH270768   0.898   3.096   5.528 -0.2064 -0.1129  0.0505
16426TIP3    H170769   0.914   3.170   5.587 -1.2268  1.3064 -1.3883
16426TIP3    H270770   0.805   3.102   5.507  0.0286 -0.9034 -1.2665
16427TIP3   OH270771   6.003   0.996  15.044  0.1019  0.0276 -0.1925
16427TIP3    H170772   5.957   0.935  15.102  2.0319 -0.8995  0.4301
16427TIP3    H270773   5.969   1.082  15.068 -0.0763 -0.4719  1.4515
16428TIP3   OH270774   6.087   3.983  10.870  0.9269  0.5442 -0.5129
16428TIP3    H170775   5.994   3.965  10.856  0.8773 -0.2987  0.8044
16428TIP3    H270776   6.096   4.077  10.853 -0.0947  0.5676 -0.9638
16429TIP3   OH270777   6.311   2.485   0.911  0.6536  0.1985 -0.0270
16429TIP3    H170778   6.343   2.544   0.843  0.5825  0.8577  0.5044
16429TIP3    H270779   6.292   2.542   0.985 -0.5449 -0.3400  0.0906
16430TIP3   OH270780   5.277   5.709   2.727 -0.0476 -0.1739 -0.3016
16430TIP3    H170781   5.335   5.740   2.657 -0.2016  2.2145  0.6026
16430TIP3    H270782   5.189   5.723   2.694 -0.1537  2.6876  1.0259
16431TIP3   OH270783   5.304   3.865   0.691  0.1115  0.7303 -0.6795
16431TIP3    H170784   5.264   3.944   0.655  0.5216  1.1221 -0.2840
16431TIP3    H270785   5.383   3.851   0.638  0.4969  1.0761 -0.2014
16432TIP3   OH270786   6.237   0.412  13.919 -0.1799  0.0662 -0.1577
16432TIP3    H170787   6.249   0.437  13.827  2.9008 -0.4819  0.0525
16432TIP3    H270788   6.263   0.490  13.968  2.8456 -1.1808  0.3267
16433TIP3   OH270789   5.795   0.881  13.482 -0.0332  0.1801  0.3338
16433TIP3    H170790   5.727   0.929  13.436 -1.0315 -3.0302 -1.6792
16433TIP3    H270791   5.748   0.830  13.548  0.9565  1.4299  2.0740
16434TIP3   OH270792   0.789   4.539   4.807 -0.1163 -0.5014 -0.5220
16434TIP3    H170793   0.803   4.632   4.824  0.3145 -0.5397 -0.6632
16434TIP3    H270794   0.876   4.505   4.786 -0.3054 -0.8915 -0.6773
16435TIP3   OH270795   0.944   5.169   3.393  0.1085  0.2097 -0.4689
16435TIP3    H170796   1.030   5.211   3.398  1.8130 -3.0335 -1.2872
16435TIP3    H270797   0.961   5.077   3.413 -3.5617 -0.0963  1.6491
16436TIP3   OH270798   6.358   6.506   5.874  0.1532 -0.3954  0.0415
16436TIP3    H170799   6.301   6.440   5.835 -1.7486  0.7961  0.7328
16436TIP3    H270800   6.345   6.498   5.968 -0.2115  1.0501  0.1273
16437TIP3   OH270801   3.696   6.136  14.045  0.3694 -0.1285 -0.1877
16437TIP3    H170802   3.668   6.164  14.132 -0.0335 -0.6586 -0.1421
16437TIP3    H270803   3.778   6.089  14.061  0.4230 -0.0115 -0.1224
16438TIP3   OH270804   0.954   3.701   2.340 -0.7232 -0.2432  0.0530
16438TIP3    H170805   0.923   3.791   2.346 -1.3146 -0.4417 -0.0030
16438TIP3    H270806   0.877   3.650   2.314 -0.9575 -1.0807  2.2236
16439TIP3   OH270807   0.533   3.001   6.467 -0.5158  0.1629 -0.1202
16439TIP3    H170808   0.557   3.018   6.558 -0.0030  0.5860 -0.3336
16439TIP3    H270809   0.569   3.074   6.418  1.9782 -1.6131 -1.0722
16440TIP3   OH270810   3.414   4.938   4.098 -0.1532 -0.3468 -0.5096
16440TIP3    H170811   3.493   4.958   4.148  0.1620 -1.2300 -0.6517
16440TIP3    H270812   3.357   4.894   4.162 -0.0207 -0.8587 -0.7400
16441TIP3   OH270813   2.338   5.574  14.965  0.3656 -0.2350  0.6772
16441TIP3    H170814   2.416   5.605  14.919  0.4207  1.0469  1.6249
16441TIP3    H270815   2.351   5.479  14.971  1.1099 -0.2240 -0.5452
16442TIP3   OH270816   5.271   2.267   4.403  0.3202 -0.3521 -0.0520
16442TIP3    H170817   5.226   2.200   4.455 -0.8931  1.3433  1.1646
16442TIP3    H270818   5.323   2.315   4.468 -1.2559  1.8309 -0.3706
16443TIP3   OH270819   0.215   4.485   5.725  0.1544  0.0683 -0.1904
16443TIP3    H170820   0.145   4.550   5.732 -0.5370 -0.4878 -1.7507
16443TIP3    H270821   0.183   4.410   5.775  0.2224  0.3105  0.2173
16444TIP3   OH270822   0.941   6.176  13.899 -0.1044 -0.3863 -0.1309
16444TIP3    H170823   0.967   6.124  13.975 -1.1545  1.1673  1.3392
16444TIP3    H270824   1.023   6.211  13.865  0.0858  2.5833  3.0590
16445TIP3   OH270825   2.649   5.047   0.049 -0.0256  0.1328 -0.2540
16445TIP3    H170826   2.693   4.992  -0.017  1.6947  0.2653  0.7616
16445TIP3    H270827   2.713   5.115   0.069 -0.0532 -0.5982  2.4489
16446TIP3   OH270828   6.484   2.538   2.713  0.6525 -0.0328 -0.3282
16446TIP3    H170829   6.413   2.479   2.690  0.4329 -0.6252  1.7253
16446TIP3    H270830   6.554   2.517   2.651  0.2231 -1.7836 -0.2524
16447TIP3   OH270831   5.983   5.961  15.482 -0.1129  0.4140  0.1181
16447TIP3    H170832   6.050   6.001  15.538 -0.4946  1.2429 -0.0165
16447TIP3    H270833   5.902   6.006  15.504 -0.4040  0.2389 -0.5801
16448TIP3   OH270834   5.568   1.593  13.466  0.4088  0.0029  0.0106
16448TIP3    H170835   5.661   1.614  13.457  0.4797 -0.6338 -0.7885
16448TIP3    H270836   5.541   1.639  13.546  1.1885  0.9279 -0.2425
16449TIP3   OH270837   3.441   3.957   3.376  0.2141  0.6729 -0.2355
16449TIP3    H170838   3.405   3.926   3.293 -1.0689 -0.7841  0.8393
16449TIP3    H270839   3.477   4.044   3.355  1.6754 -0.4627 -2.7444
16450TIP3   OH270840   4.206   5.195  14.575  0.5022 -0.1661  0.2173
16450TIP3    H170841   4.254   5.135  14.518 -0.0197 -0.9039  0.5411
16450TIP3    H270842   4.148   5.243  14.517  1.9629  1.0764 -0.2463
16451TIP3   OH270843   2.436   1.613   4.113  0.0214 -0.3120 -0.4898
16451TIP3    H170844   2.494   1.570   4.050  1.4169  0.1150  0.4799
16451TIP3    H270845   2.440   1.706   4.089 -1.9366 -0.5134 -1.7396
16452TIP3   OH270846   3.185   6.325   3.570 -0.0993  0.4981  0.2124
16452TIP3    H170847   3.193   6.401   3.627 -0.7238  0.2517  0.6414
16452TIP3    H270848   3.254   6.266   3.600 -0.5684  0.2728  0.8798
16453TIP3   OH270849   3.472   1.243   1.856  0.7161 -0.4137 -0.0236
16453TIP3    H170850   3.448   1.151   1.848  0.4832 -0.1674 -2.5849
16453TIP3    H270851   3.390   1.291   1.841  0.8633  0.2492  1.1446
16454TIP3   OH270852   3.644   3.431   3.730 -0.5638 -0.3090  0.7335
16454TIP3    H170853   3.640   3.432   3.635 -0.8885  0.4064  0.7544
16454TIP3    H270854   3.589   3.504   3.758  0.2581  0.0578  1.4444
16455TIP3   OH270855   4.345   3.939   3.705  0.3559 -0.0648 -0.0380
16455TIP3    H170856   4.266   3.896   3.735  1.0169 -0.7708  0.6978
16455TIP3    H270857   4.314   4.020   3.664 -0.6182  0.4813  1.7408
16456TIP3   OH270858   2.127   6.081  11.584  0.1017  0.3007  0.4312
16456TIP3    H170859   2.220   6.100  11.574 -0.1687  0.4743 -1.9858
16456TIP3    H270860   2.125   5.999  11.635  1.5124  0.9274  1.5419
16457TIP3   OH270861   3.901   5.814   0.117  0.5283 -0.5938 -0.7291
16457TIP3    H170862   3.972   5.874   0.141 -1.6585  1.7624  0.1176
16457TIP3    H270863   3.901   5.748   0.186  1.4719 -0.2348 -0.3736
16458TIP3   OH270864   1.249   0.134  13.369  0.6725  0.4553  0.6542
16458TIP3    H170865   1.188   0.203  13.393 -0.1806  0.5884 -1.7198
16458TIP3    H270866   1.253   0.077  13.446 -1.4527  1.1541  1.3221
16459TIP3   OH270867   2.234   5.017   6.160 -0.1196  0.6264 -0.5387
16459TIP3    H170868   2.324   5.010   6.194 -1.0030 -0.1664  1.7371
16459TIP3    H270869   2.209   4.927   6.140 -0.7938  0.7175 -0.1197
16460TIP3   OH270870   4.317   2.015  13.303 -0.3569  0.1523  0.2603
16460TIP3    H170871   4.273   1.994  13.222 -1.6364 -1.5716  1.3672
16460TIP3    H270872   4.304   2.109  13.315 -1.8344  0.0431 -0.5306
16461TIP3   OH270873   5.773   2.239  17.060  0.1528 -0.2150 -0.2386
16461TIP3    H170874   5.759   2.148  17.034  2.5072 -0.8391  0.6394
16461TIP3    H270875   5.866   2.255  17.045  0.1817  1.4418  1.5292
16462TIP3   OH270876   5.889   3.532  11.187  0.2618  0.1240 -0.0879
16462TIP3    H170877   5.893   3.487  11.272  0.9219  1.5277  0.6369
16462TIP3    H270878   5.798   3.524  11.160 -0.6854  2.4629  2.3007
16463TIP3   OH270879   3.323   6.599  16.849  0.0005 -0.0513 -0.6086
16463TIP3    H170880   3.323   6.602  16.944 -0.5818  1.5870 -0.6529
16463TIP3    H270881   3.414   6.617  16.824 -0.3925  2.3456 -0.4246
16464TIP3   OH270882   4.736   6.101  16.797  0.0897  0.5900 -0.2075
16464TIP3    H170883   4.718   6.034  16.731 -1.0400  1.5474 -0.8845
16464TIP3    H270884   4.664   6.095  16.859  1.3944 -0.6310  1.2489
16465TIP3   OH270885   0.664   0.013  13.604 -0.1350 -0.1697 -0.5174
16465TIP3    H170886   0.611  -0.064  13.626 -0.1541  0.3637  1.3970
16465TIP3    H270887   0.751  -0.022  13.588 -0.1528 -0.6097  0.2904
16466TIP3   OH270888   2.988   2.645   1.947 -0.1051  0.5480 -0.3832
16466TIP3    H170889   2.948   2.729   1.923 -0.4329  0.1508 -1.2446
16466TIP3    H270890   3.073   2.646   1.904  0.5125  1.0564  0.8117
16467TIP3   OH270891   5.150   6.419  17.147  0.0455  0.0050 -0.1053
16467TIP3    H170892   5.138   6.488  17.082 -0.4014 -0.0783 -0.1143
16467TIP3    H270893   5.121   6.458  17.230  0.0974 -0.0693 -0.0522
16468TIP3   OH270894   5.885   2.904   5.468  0.1986 -0.2054  0.2874
16468TIP3    H170895   5.915   2.990   5.440  0.4424  0.0807  1.3942
16468TIP3    H270896   5.934   2.843   5.413 -0.3822  0.3621 -0.8908
16469TIP3   OH270897   2.029   0.689  15.296  0.0760 -0.3887  0.4800
16469TIP3    H170898   2.100   0.739  15.257  0.0951 -1.5736 -1.0987
16469TIP3    H270899   2.072   0.619  15.344  0.0043 -1.3652 -0.8371
16470TIP3   OH270900   1.029   1.710   0.020 -0.4252 -0.0085  0.1941
16470TIP3    H170901   1.089   1.641   0.048 -0.7054 -0.7906 -1.0587
16470TIP3    H270902   0.942   1.673   0.037 -0.6376 -1.0693 -2.8767
16471TIP3   OH270903   3.327   6.806  17.213  0.1796 -0.0242  0.8054
16471TIP3    H170904   3.308   6.736  17.276  1.8675 -0.1696  1.1809
16471TIP3    H270905   3.357   6.761  17.134 -0.1692  0.2208  0.5327
16472TIP3   OH270906   4.349   3.024   0.602  0.4213 -0.2368  0.2026
16472TIP3    H170907   4.287   3.033   0.530 -0.0924 -0.6890  0.5803
16472TIP3    H270908   4.429   2.991   0.561 -0.2574 -1.6933  0.0063
16473TIP3   OH270909   3.279   6.431   4.053 -0.7072  0.5059  0.4735
16473TIP3    H170910   3.219   6.370   4.096 -1.2964 -1.2532 -2.6942
16473TIP3    H270911   3.351   6.376   4.022 -0.0873  1.7744 -0.3960
16474TIP3   OH270912   4.698   5.263   1.316 -0.2230 -0.1882 -0.5682
16474TIP3    H170913   4.679   5.321   1.390 -0.8560 -0.1582 -0.7580
16474TIP3    H270914   4.792   5.245   1.325 -0.7113 -1.9344  1.5290
16475TIP3   OH270915   0.872   1.918   0.275  0.1451 -0.1192  0.5403
16475TIP3    H170916   0.839   1.877   0.196 -0.1687 -0.8773  1.0519
16475TIP3    H270917   0.945   1.973   0.246 -1.3168  1.2824 -0.5483
16476TIP3   OH270918   0.635   2.289   4.152  0.3022 -0.0901  0.0192
16476TIP3    H170919   0.678   2.344   4.087  0.3240 -0.6266 -0.4237
16476TIP3    H270920   0.674   2.315   4.235 -1.4675  2.3024  0.1452
16477TIP3   OH270921   1.512   4.130  11.939  0.1039  0.1377  0.9363
16477TIP3    H170922   1.420   4.122  11.965  0.3925 -0.9079  1.6869
16477TIP3    H270923   1.518   4.083  11.856 -0.2979  1.3019  0.2415
16478TIP3   OH270924   0.559   4.694   3.104  0.0678 -0.2726 -0.8272
16478TIP3    H170925   0.636   4.716   3.052 -0.1233  0.5105 -0.7840
16478TIP3    H270926   0.503   4.642   3.045  0.8007 -1.1885 -0.7305
16479TIP3   OH270927   0.001   4.478   0.471 -0.7680  0.5901 -0.4710
16479TIP3    H170928   0.065   4.428   0.420 -0.6553 -0.9495  1.1429
16479TIP3    H270929  -0.082   4.461   0.428 -0.8371 -1.6000  0.4844
16480TIP3   OH270930   4.502   4.354   5.471  0.5014 -0.5190  0.1367
16480TIP3    H170931   4.532   4.343   5.562 -1.0060  1.7869  0.9508
16480TIP3    H270932   4.548   4.432   5.440  0.8128 -1.1559 -1.0142
16481TIP3   OH270933   3.881   0.532  16.304 -0.6230 -0.7943 -0.0706
16481TIP3    H170934   3.927   0.480  16.370  0.8606 -0.6657 -0.9913
16481TIP3    H270935   3.872   0.618  16.345 -1.2294 -1.1797  0.6322
16482TIP3   OH270936   1.297   0.409   1.103 -0.1794  0.1490  0.2073
16482TIP3    H170937   1.383   0.388   1.139  0.1326  1.7224  0.4066
16482TIP3    H270938   1.269   0.328   1.060  1.6235 -0.2267 -0.3136
16483TIP3   OH270939   5.898   3.449   2.901  0.2209 -0.7668 -0.5755
16483TIP3    H170940   5.857   3.500   2.971  0.6163 -4.1797  2.3229
16483TIP3    H270941   5.981   3.493   2.884 -0.0835  0.3827  0.8051
16484TIP3   OH270942   1.304   5.105  12.642  0.6366  0.0942 -0.7837
16484TIP3    H170943   1.290   5.127  12.550 -1.2993 -0.6382 -0.6798
16484TIP3    H270944   1.265   5.177  12.690 -0.0208 -0.4363 -0.5181
16485TIP3   OH270945   5.272   1.493   5.299 -0.7125 -0.0102 -0.1296
16485TIP3    H170946   5.278   1.566   5.236 -0.5284 -0.3044 -0.4558
16485TIP3    H270947   5.341   1.433   5.272 -0.8101 -0.2659  0.1945
16486TIP3   OH270948   2.387   2.817   6.294 -0.3378  0.5148 -0.1641
16486TIP3    H170949   2.392   2.721   6.291  1.2278  0.5574  0.9022
16486TIP3    H270950   2.344   2.841   6.211 -2.1825 -1.1767  0.2545
16487TIP3   OH270951   0.931   0.322   0.095 -0.1380 -0.4071  0.2491
16487TIP3    H170952   1.011   0.328   0.148 -2.1653 -0.1733  3.4542
16487TIP3    H270953   0.918   0.410   0.062  1.0166 -0.4928 -0.4794
16488TIP3   OH270954   2.744   0.083  13.926  0.2847  0.1096  0.2463
16488TIP3    H170955   2.729   0.166  13.972  0.6202  1.5476 -2.1736
16488TIP3    H270956   2.740   0.105  13.833  1.1522 -2.4567 -0.4515
16489TIP3   OH270957   6.127   6.716  13.808 -0.6820  0.0227  0.4665
16489TIP3    H170958   6.108   6.717  13.902 -1.4056  1.5350  0.3177
16489TIP3    H270959   6.041   6.718  13.766 -0.4441 -2.7155 -0.2663
16490TIP3   OH270960   2.562   4.066   3.846  0.2385 -0.0650 -0.0145
16490TIP3    H170961   2.520   4.072   3.760  0.7971 -0.5365 -0.3245
16490TIP3    H270962   2.538   4.148   3.890  0.4707  0.4557 -0.8514
16491TIP3   OH270963   5.982   3.194  15.003  0.2872  0.3595  0.3268
16491TIP3    H170964   5.939   3.276  15.028 -0.1979  0.2066 -0.0065
16491TIP3    H270965   5.936   3.126  15.052  0.1225  0.1931 -0.0561
16492TIP3   OH270966   4.734   4.047  12.584 -0.3045 -0.6724  0.1561
16492TIP3    H170967   4.706   4.109  12.651  0.7687 -0.6392  0.5802
16492TIP3    H270968   4.808   4.090  12.541 -0.1359 -1.2709 -0.1556
16493TIP3   OH270969   4.244   5.065  15.890 -0.3368  0.4917 -1.0598
16493TIP3    H170970   4.159   5.106  15.898 -0.1096  0.4499  2.1318
16493TIP3    H270971   4.307   5.135  15.905  0.2285  0.5177 -3.3561
16494TIP3   OH270972   5.089   5.036   3.310 -0.2068  0.0372  0.2874
16494TIP3    H170973   5.075   5.104   3.245  1.0998 -0.5303 -0.6326
16494TIP3    H270974   5.083   4.954   3.261  0.5020 -0.4113  0.9237
16495TIP3   OH270975   1.063   5.734  14.725 -0.0591  0.0636  1.1960
16495TIP3    H170976   1.092   5.790  14.653 -0.7014  1.0285  1.6708
16495TIP3    H270977   1.131   5.667  14.732  1.4120  1.5537  1.4837
16496TIP3   OH270978   5.448   0.486  11.253  0.3418 -0.2301  0.2997
16496TIP3    H170979   5.368   0.479  11.305  0.6286  0.0742  0.7861
16496TIP3    H270980   5.419   0.523  11.169  0.3698  2.5807  1.4641
16497TIP3   OH270981   1.321   0.616  17.127 -0.3480 -0.3056 -0.0917
16497TIP3    H170982   1.332   0.536  17.076  1.1224  0.2554 -0.6935
16497TIP3    H270983   1.305   0.586  17.217  0.0967 -1.2686 -0.3311
16498TIP3   OH270984   6.763   1.528  12.953  0.5924 -0.3870  0.5973
16498TIP3    H170985   6.784   1.621  12.951  0.0172 -0.2670 -0.2465
16498TIP3    H270986   6.828   1.490  13.012  2.3369  0.1892 -0.8890
16499TIP3   OH270987   6.771   0.888  13.619  0.1001  0.1355  0.5544
16499TIP3    H170988   6.775   0.959  13.682  1.9167  1.2081 -0.7445
16499TIP3    H270989   6.824   0.818  13.658  1.5759  0.9515  0.0553
16500TIP3   OH270990   0.105   5.504  16.650 -0.0175 -0.0657  0.3343
16500TIP3    H170991   0.030   5.454  16.682 -0.5615 -1.0550 -2.3839
16500TIP3    H270992   0.181   5.448  16.668 -0.1216  0.0828  1.2880
16501TIP3   OH270993   4.643   3.350  12.110  0.1252  0.3370  0.0965
16501TIP3    H170994   4.592   3.269  12.101 -0.2664  0.4854  0.8925
16501TIP3    H270995   4.728   3.329  12.072 -0.0250 -0.4030  0.1486
16502TIP3   OH270996   5.089   4.886  11.453  0.1054  0.4661 -0.2004
16502TIP3    H170997   5.046   4.945  11.392 -1.2269  1.8441  1.9757
16502TIP3    H270998   5.181   4.913  11.452  0.2760 -0.1304 -2.2212
16503TIP3   OH270999   4.960   3.212  14.406 -0.6089 -0.3750 -0.6438
16503TIP3    H171000   5.014   3.145  14.364  0.1619 -0.5831  0.6338
16503TIP3    H271001   4.892   3.163  14.452  0.9291 -0.4286  1.6692
16504TIP3   OH271002   1.198   0.947   6.855  0.4006  0.0703 -0.2906
16504TIP3    H171003   1.132   1.011   6.827  0.2097  0.2087  0.4617
16504TIP3    H271004   1.179   0.932   6.948 -0.9651 -2.7289 -0.9593
16505TIP3   OH271005   1.064   4.445  15.724  0.2095 -0.1599  0.1007
16505TIP3    H171006   1.066   4.530  15.768 -0.5865  0.7516 -1.5710
16505TIP3    H271007   1.022   4.387  15.787  0.7792  0.6869  1.2734
16506TIP3   OH271008   3.207   4.795  12.233 -0.3807  0.0064  0.1871
16506TIP3    H171009   3.130   4.843  12.204 -0.3158  0.1925  0.3254
16506TIP3    H271010   3.281   4.841  12.194 -0.3970 -0.7743 -0.7868
16507TIP3   OH271011   2.270   6.510   4.865  0.1832  0.0548  0.2346
16507TIP3    H171012   2.176   6.489   4.873  0.1981  0.0139  0.3032
16507TIP3    H271013   2.304   6.497   4.953  0.4462 -0.8701 -0.0067
16508TIP3   OH271014   6.456   1.326   5.908  0.1546  0.4157  0.4443
16508TIP3    H171015   6.432   1.418   5.901  0.2530  0.4032 -0.0436
16508TIP3    H271016   6.375   1.279   5.892  0.6581  0.3460 -2.1926
16509TIP3   OH271017   3.028   3.980   5.200  0.3717 -0.4033  0.4894
16509TIP3    H171018   3.030   4.032   5.120  0.8251  0.0002  0.7626
16509TIP3    H271019   3.085   4.027   5.262 -2.1588  0.7852  1.9755
16510TIP3   OH271020   5.061   1.031   0.437 -0.1298  0.1170  0.1098
16510TIP3    H171021   4.975   0.994   0.417  0.7788 -0.1814 -3.5842
16510TIP3    H271022   5.044   1.099   0.502 -2.9136 -1.1126  0.7270
16511TIP3   OH271023   4.549   0.975   5.367 -0.3409  0.7856 -0.0543
16511TIP3    H171024   4.629   0.922   5.371 -1.0022 -0.2007  0.1777
16511TIP3    H271025   4.580   1.062   5.342  0.8998  0.5921  0.7299
16512TIP3   OH271026   0.219   4.639  12.771 -0.0633 -0.0148 -0.4853
16512TIP3    H171027   0.169   4.715  12.742  2.1374  1.6694  0.0837
16512TIP3    H271028   0.204   4.635  12.866  0.5838  0.2553 -0.3755
16513TIP3   OH271029   4.885   2.573  10.738  0.5030  0.9555 -0.7389
16513TIP3    H171030   4.834   2.493  10.748  0.6914  0.7277 -1.6163
16513TIP3    H271031   4.878   2.616  10.823 -1.8982  1.3775 -1.1320
16514TIP3   OH271032   5.408   6.008  15.047  0.3418  0.3197  0.2821
16514TIP3    H171033   5.338   6.022  14.983  0.0470  0.4978  0.6364
16514TIP3    H271034   5.366   6.024  15.132  1.1013  1.6053  0.4288
16515TIP3   OH271035   0.622   2.434   3.740 -0.2703  0.0505  0.5643
16515TIP3    H171036   0.631   2.355   3.687  0.8849  0.1310  0.6114
16515TIP3    H271037   0.666   2.502   3.689 -0.0561  0.3572  1.1513
16516TIP3   OH271038   2.639   4.484   5.379 -0.4109  0.4120 -0.6474
16516TIP3    H171039   2.685   4.561   5.412  0.3112 -0.8062  1.2653
16516TIP3    H271040   2.704   4.440   5.323 -1.0078  1.4585 -2.1993
16517TIP3   OH271041   5.107   2.444  11.975 -0.8501  0.0509 -0.0539
16517TIP3    H171042   5.094   2.445  11.880 -1.1876  0.6669 -0.0066
16517TIP3    H271043   5.081   2.356  12.002 -1.8682  0.2508 -0.3792
16518TIP3   OH271044   5.696   4.582  13.114 -0.1976  0.1205 -0.0557
16518TIP3    H171045   5.622   4.593  13.054 -0.9655  0.3440  0.9221
16518TIP3    H271046   5.774   4.595  13.059 -0.7617 -3.3166 -1.7826
16519TIP3   OH271047   3.009   5.131   5.623 -0.5142  0.2020  0.1851
16519TIP3    H171048   3.049   5.057   5.578 -2.7888 -1.3950  0.7062
16519TIP3    H271049   2.989   5.194   5.553  0.0183 -0.3293 -0.4540
16520TIP3   OH271050   0.698   2.696   3.582 -0.5326  0.2123 -0.0908
16520TIP3    H171051   0.699   2.728   3.492  0.2416  1.2895  0.2922
16520TIP3    H271052   0.620   2.736   3.621  0.9825  2.5282  0.6807
16521TIP3   OH271053   5.370   4.220   3.903  0.2456  0.0964 -0.1847
16521TIP3    H171054   5.352   4.126   3.896  0.1034  0.0278  1.0531
16521TIP3    H271055   5.290   4.262   3.872  0.3445 -0.1797 -0.8320
16522TIP3   OH271056   5.990   2.091  11.889  0.6439 -0.6766  0.1962
16522TIP3    H171057   6.026   2.133  11.967 -1.5195  1.0067  0.3256
16522TIP3    H271058   5.895   2.093  11.902  0.3870 -3.6925 -0.8155
16523TIP3   OH271059   2.829   6.573  13.310  0.4473  0.3383  0.1065
16523TIP3    H171060   2.850   6.507  13.376 -1.9275  1.8760  2.5039
16523TIP3    H271061   2.759   6.533  13.258 -0.4465  0.6618  1.0569
16524TIP3   OH271062   6.747   4.240   3.649  0.6352 -0.0651 -0.1165
16524TIP3    H171063   6.681   4.241   3.580 -0.6953 -0.7131  1.1131
16524TIP3    H271064   6.800   4.162   3.630  2.5180  1.7207 -2.4188
16525TIP3   OH271065   2.456   2.011   5.490  0.0123  0.2156  0.3643
16525TIP3    H171066   2.383   2.055   5.534 -0.8551  0.4379 -1.2559
16525TIP3    H271067   2.534   2.059   5.519 -0.6293  0.8969  0.9853
16526TIP3   OH271068   0.061   6.004  12.919  0.1633  0.2201 -0.1781
16526TIP3    H171069   0.017   5.981  13.001 -1.2920  1.3867 -0.6202
16526TIP3    H271070   0.097   6.092  12.935  0.2464  0.2723 -0.6386
16527TIP3   OH271071   6.427   4.154   3.115 -0.3409  0.0160  0.0432
16527TIP3    H171072   6.383   4.126   3.195 -2.3290 -0.8164 -1.3009
16527TIP3    H271073   6.429   4.249   3.121 -1.0413 -0.0108  0.7947
16528TIP3   OH271074   5.166   5.538   0.785 -0.0570  0.1727 -0.7315
16528TIP3    H171075   5.079   5.568   0.812 -0.0235 -0.2119 -0.1657
16528TIP3    H271076   5.224   5.610   0.809  0.0550 -0.3976  0.8199
16529TIP3   OH271077   5.172   5.422  11.288  0.3292  0.4263 -0.2494
16529TIP3    H171078   5.152   5.509  11.322 -0.4385  0.7248 -1.4722
16529TIP3    H271079   5.231   5.384  11.354  0.9498  1.9865  0.1116
16530TIP3   OH271080   3.082   6.765   3.530  0.0768 -0.1552  0.4369
16530TIP3    H171081   3.110   6.691   3.584  0.1466 -0.4819 -0.0459
16530TIP3    H271082   3.018   6.811   3.583  0.0517 -0.5488  0.7479
16531TIP3   OH271083   0.520   6.712   4.357 -0.6025 -0.2003  0.6314
16531TIP3    H171084   0.553   6.648   4.294 -2.5218  0.1255 -0.7858
16531TIP3    H271085   0.597   6.742   4.405  0.2700 -3.8245  1.5995
16532TIP3   OH271086   1.754   2.023   6.673  0.8038  0.2350  0.2921
16532TIP3    H171087   1.739   2.068   6.590 -0.1230 -2.1720 -0.9081
16532TIP3    H271088   1.840   1.982   6.662  0.8308  0.2016  0.6471
16533TIP3   OH271089   1.505   1.550  14.422  0.2873  0.7459 -0.2171
16533TIP3    H171090   1.519   1.478  14.361 -0.5520 -0.5263  1.0513
16533TIP3    H271091   1.580   1.608  14.409  0.2663  0.3569 -2.2315
16534TIP3   OH271092   2.757   6.769  12.651  0.2071  0.0561  0.3946
16534TIP3    H171093   2.784   6.746  12.562 -0.3192  1.4469 -0.1380
16534TIP3    H271094   2.662   6.772  12.647  0.0832 -1.7757  1.4963
16535TIP3   OH271095   0.217   3.010  16.696 -0.2909  0.0485  0.2396
16535TIP3    H171096   0.227   2.916  16.689 -1.1130 -0.1101  1.0527
16535TIP3    H271097   0.136   3.030  16.650 -0.2332  0.3279  0.2573
16536TIP3   OH271098   1.580   3.227  15.611 -0.4333  0.3754  0.2869
16536TIP3    H171099   1.569   3.184  15.696 -1.2806  0.8837  0.4319
16536TIP3    H271100   1.668   3.264  15.614  0.3141 -1.3539  0.1627
16537TIP3   OH271101   5.011   2.893  14.152 -1.1009 -0.1245  0.2806
16537TIP3    H171102   4.921   2.872  14.177 -1.7269  0.0566 -1.7354
16537TIP3    H271103   5.020   2.858  14.064  1.1352 -1.0008  0.8243
16538TIP3   OH271104   2.700   3.749   0.263 -0.6164 -0.5978 -0.5460
16538TIP3    H171105   2.644   3.792   0.328 -2.5126 -2.3352 -0.9891
16538TIP3    H271106   2.694   3.804   0.185 -0.6275 -0.0588 -0.1664
16539TIP3   OH271107   1.592   1.515   1.161 -0.1974  0.4997 -0.0603
16539TIP3    H171108   1.579   1.485   1.071 -0.2258 -0.3471  0.2191
16539TIP3    H271109   1.574   1.437   1.214 -1.0366  1.2190  0.7247
16540TIP3   OH271110   6.339   1.546  16.348 -0.2273 -0.7307  1.0455
16540TIP3    H171111   6.418   1.524  16.397  1.8112  0.5888 -1.5454
16540TIP3    H271112   6.340   1.641  16.342 -2.0904 -0.6945  1.0776
16541TIP3   OH271113   5.267   1.547  11.472 -0.3330 -0.4604 -0.3491
16541TIP3    H171114   5.334   1.495  11.518 -1.0688 -1.5998 -0.5606
16541TIP3    H271115   5.258   1.505  11.387 -0.8155  0.1155 -0.5850
16542TIP3   OH271116   1.825   6.641  11.277 -0.3326  0.0707  0.5065
16542TIP3    H171117   1.860   6.623  11.190 -0.2458 -1.1267  0.7807
16542TIP3    H271118   1.730   6.650  11.264 -0.2749  0.2633  0.2297
16543TIP3   OH271119   0.237   1.655   0.758 -0.0025 -0.0989 -0.6003
16543TIP3    H171120   0.328   1.625   0.761 -0.2699 -1.3621 -3.1683
16543TIP3    H271121   0.186   1.576   0.738 -1.4732  0.8814 -0.8139
16544TIP3   OH271122   2.350   1.806  13.332  0.1462 -0.3371  0.1751
16544TIP3    H171123   2.388   1.815  13.420 -0.3160  2.6928  0.1151
16544TIP3    H271124   2.401   1.865  13.278 -0.7478 -0.8197 -1.2156
16545TIP3   OH271125   3.253   0.115   6.266  0.1682  0.1515 -0.1777
16545TIP3    H171126   3.232   0.164   6.346  2.0377 -0.7094  0.8597
16545TIP3    H271127   3.309   0.175   6.216 -0.7198  0.5558 -0.7020
16546TIP3   OH271128   3.003   2.971  12.301  0.3234 -0.2735  0.4028
16546TIP3    H171129   3.080   2.986  12.247 -0.9750  1.1169 -1.1251
16546TIP3    H271130   2.970   3.059  12.320 -1.8049 -0.8700 -0.3651
16547TIP3   OH271131   1.657   0.365  14.763 -0.5541 -0.2043 -0.3206
16547TIP3    H171132   1.653   0.272  14.742  0.2604 -0.1190 -0.8859
16547TIP3    H271133   1.611   0.408  14.691  0.5986 -0.0474 -0.9725
16548TIP3   OH271134   6.498   2.133  10.814  0.4747  0.4532 -0.0189
16548TIP3    H171135   6.583   2.177  10.804  0.7114  0.2701  1.0704
16548TIP3    H271136   6.433   2.200  10.793  0.8633  1.0034  0.5152
16549TIP3   OH271137   1.462   6.732   0.493  0.3177 -0.0658 -0.0222
16549TIP3    H171138   1.406   6.728   0.414  2.2344  0.1558 -1.4278
16549TIP3    H271139   1.499   6.820   0.492 -0.0297  0.1119  1.4421
16550TIP3   OH271140   5.494   3.731  12.922  0.2006  0.7527  0.2829
16550TIP3    H171141   5.532   3.818  12.938 -0.2626  0.7058  1.6779
16550TIP3    H271142   5.489   3.691  13.008 -2.0088  0.3384 -0.0087
16551TIP3   OH271143   6.755   4.388  12.324 -0.1095  0.0620  0.2200
16551TIP3    H171144   6.702   4.392  12.244 -0.7201 -0.9458  0.5725
16551TIP3    H271145   6.692   4.374  12.394  0.6670 -1.6821  0.5934
16552TIP3   OH271146   0.196   0.480  12.463 -0.2084 -0.4832  0.6067
16552TIP3    H171147   0.208   0.463  12.370  3.4770 -1.4126  1.1545
16552TIP3    H271148   0.189   0.575  12.470 -0.6286 -0.4166 -0.6059
16553TIP3   OH271149   2.068   6.654  11.787  0.3520  0.1252  0.6054
16553TIP3    H171150   2.065   6.615  11.874 -0.3723 -0.7838  0.1883
16553TIP3    H271151   2.025   6.589  11.730  0.2935  0.9569 -0.3198
16554TIP3   OH271152   4.585   0.658  17.240 -0.5428  0.2731 -0.1336
16554TIP3    H171153   4.507   0.658  17.296 -0.4644  2.6406  0.0196
16554TIP3    H271154   4.560   0.604  17.165 -2.2894  0.8688 -0.0153
16555TIP3   OH271155   0.078   1.957  11.484 -0.1381 -0.2895 -0.4037
16555TIP3    H171156   0.071   1.862  11.496  0.2496 -0.3558 -0.6721
16555TIP3    H271157   0.056   1.970  11.392 -2.6669  0.1584  0.2300
16556TIP3   OH271158   6.335   0.739  11.837 -0.1535 -0.0112 -0.6520
16556TIP3    H171159   6.348   0.751  11.743  0.9101  0.3445 -0.4679
16556TIP3    H271160   6.374   0.653  11.856  0.9212  0.5396 -0.3002
16557TIP3   OH271161   5.414   0.566  10.970  0.2741 -0.0520  0.3675
16557TIP3    H171162   5.505   0.540  10.957 -0.4058 -2.6388  0.4613
16557TIP3    H271163   5.376   0.565  10.882  0.2790  0.8142  0.3531
16558TIP3   OH271164   5.172   6.503   1.372 -0.8061  0.2119 -0.8755
16558TIP3    H171165   5.176   6.572   1.306  1.7875 -0.2011 -1.2028
16558TIP3    H271166   5.221   6.538   1.447  2.0392 -1.8457 -1.6710
16559TIP3   OH271167   2.447   6.539   5.867 -0.1211 -0.1156  0.3481
16559TIP3    H171168   2.382   6.567   5.932  0.4465  1.0165  0.4423
16559TIP3    H271169   2.489   6.462   5.906 -0.4029  0.0201  0.9214
16560TIP3   OH271170   0.713   1.459  10.930 -0.3692  0.5705  0.0572
16560TIP3    H171171   0.763   1.533  10.895 -2.2595  1.4722 -0.8076
16560TIP3    H271172   0.700   1.402  10.854  1.7836 -1.1121  0.8875
16561TIP3   OH271173   6.622   1.177  16.072  0.0669 -0.2215  0.8390
16561TIP3    H171174   6.712   1.187  16.105 -0.0142  0.5318  0.8416
16561TIP3    H271175   6.615   1.243  16.004  0.0113 -1.3227 -0.2300
16562TIP3   OH271176   4.904   3.813  14.483 -0.4848  0.0562  0.3019
16562TIP3    H171177   4.956   3.736  14.463  1.7323  1.7917 -0.8256
16562TIP3    H271178   4.852   3.828  14.404 -1.8976 -1.0136  1.0066
16563TIP3   OH271179   1.343   2.128   1.978 -0.5504  0.3046 -0.3283
16563TIP3    H171180   1.320   2.050   1.927  0.1655 -1.5405  2.0734
16563TIP3    H271181   1.309   2.110   2.066  2.1165  1.4458  0.9927
16564TIP3   OH271182   6.562   5.465  10.847 -0.1413  0.0888  0.2556
16564TIP3    H171183   6.642   5.466  10.795 -1.0649 -1.1748 -1.2206
16564TIP3    H271184   6.523   5.551  10.830 -0.7367 -0.5350 -1.6448
16565TIP3   OH271185   3.780   6.152  14.787  0.3267 -0.1279  0.2361
16565TIP3    H171186   3.796   6.138  14.880  0.1203  1.0310  0.4543
16565TIP3    H271187   3.865   6.177  14.752 -0.3043  2.9160  0.7952
16566TIP3   OH271188   3.577   4.771   6.193  0.0089  0.4091 -0.1669
16566TIP3    H171189   3.515   4.841   6.213 -0.9897 -0.4979 -0.0645
16566TIP3    H271190   3.562   4.705   6.261  0.2083 -0.3795 -0.8694
16567TIP3   OH271191   3.413   2.382   0.724 -0.2306  0.1885  0.2522
16567TIP3    H171192   3.394   2.300   0.771  1.6189 -0.1863  0.3781
16567TIP3    H271193   3.353   2.380   0.649 -0.2784 -1.2449  0.2981
16568TIP3   OH271194   4.094   4.591   3.125 -0.0025 -0.1076  0.2070
16568TIP3    H171195   4.067   4.526   3.060 -1.2669 -1.3098  1.8799
16568TIP3    H271196   4.190   4.590   3.122  0.0339 -2.5605  0.6267
16569TIP3   OH271197   2.419   6.477  13.797  0.2139 -0.2887 -0.5076
16569TIP3    H171198   2.440   6.521  13.715 -0.5831  0.0096 -0.5501
16569TIP3    H271199   2.454   6.388  13.786 -1.6293 -0.8631 -1.9436
16570TIP3   OH271200   2.079   6.703   4.348  0.0603 -0.4213  0.9367
16570TIP3    H171201   2.127   6.772   4.304 -0.3316 -0.9571 -0.3553
16570TIP3    H271202   2.146   6.650   4.391  0.7604 -1.6947 -1.5926
16571TIP3   OH271203   0.819   2.988   3.957  0.2475  0.3362 -0.3161
16571TIP3    H171204   0.741   2.994   4.012 -0.6238 -0.4560 -1.4344
16571TIP3    H271205   0.801   3.047   3.883 -0.7700 -2.3678 -2.2977
16572TIP3   OH271206   5.496   4.843   4.911  0.2537 -0.3111  0.1103
16572TIP3    H171207   5.583   4.824   4.875  1.0655  3.0712  0.0722
16572TIP3    H271208   5.445   4.874   4.836 -0.6202 -1.0837  0.3711
16573TIP3   OH271209   3.234   2.057  15.219  0.4124 -0.0567  0.0441
16573TIP3    H171210   3.199   2.085  15.304  0.9709 -0.8675  0.5504
16573TIP3    H271211   3.229   2.135  15.164 -1.5532  0.0209  0.3069
16574TIP3   OH271212   3.561   3.785   5.418 -0.5705  0.6531 -0.4884
16574TIP3    H171213   3.489   3.833   5.460 -0.1358  1.5868 -0.7958
16574TIP3    H271214   3.519   3.707   5.380 -0.9772 -0.1715  1.6009
16575TIP3   OH271215   6.412   1.111  14.531  0.2024  0.2153  0.2689
16575TIP3    H171216   6.420   1.205  14.515  1.0195  0.1714  0.3947
16575TIP3    H271217   6.376   1.076  14.449 -0.1714  0.6434  0.2471
16576TIP3   OH271218   2.243   1.420   3.614  0.4646  0.5215  0.0927
16576TIP3    H171219   2.221   1.348   3.555  2.4351  0.3024 -0.4154
16576TIP3    H271220   2.239   1.382   3.701 -1.8196  0.6804  0.0991
16577TIP3   OH271221   1.878   1.086   2.768  0.2081  0.9568 -0.0330
16577TIP3    H171222   1.968   1.086   2.801 -0.4703  1.1230  1.8602
16577TIP3    H271223   1.875   1.011   2.708  0.6914 -1.2267  2.5649
16578TIP3   OH271224   4.302   0.162   3.720 -0.3631 -0.2084  1.0036
16578TIP3    H171225   4.395   0.182   3.709 -0.2040 -0.8611  1.1448
16578TIP3    H271226   4.257   0.230   3.670  0.2033 -0.1321  0.5860
16579TIP3   OH271227   2.205   1.023  15.625 -0.4493 -0.0547 -0.3154
16579TIP3    H171228   2.155   1.076  15.687 -1.6803 -1.7268  0.1644
16579TIP3    H271229   2.162   1.036  15.541  0.7939  1.6611 -0.7160
16580TIP3   OH271230   1.811   5.742   4.523 -0.3012 -0.4518  0.2080
16580TIP3    H171231   1.812   5.713   4.614  1.4516  0.4614  0.4997
16580TIP3    H271232   1.902   5.764   4.504 -0.9242  0.9493 -1.2474
16581TIP3   OH271233   1.862   2.234  13.536 -0.0157 -0.2128 -0.1312
16581TIP3    H171234   1.850   2.328  13.548  0.6120  0.1438 -2.1200
16581TIP3    H271235   1.957   2.222  13.534 -0.0827 -1.0421  1.1421
16582TIP3   OH271236   4.816   1.569  14.608 -0.1265 -0.3814  0.5003
16582TIP3    H171237   4.733   1.616  14.597  0.9846  1.6777  0.5888
16582TIP3    H271238   4.797   1.502  14.673 -1.8820 -0.3739  0.0406
16583TIP3   OH271239   4.251   6.575   2.473  0.3567  0.4270 -0.3253
16583TIP3    H171240   4.168   6.618   2.493 -0.1557 -0.7565  0.1470
16583TIP3    H271241   4.236   6.483   2.494  2.1285  0.3760  0.7727
16584TIP3   OH271242   4.841   4.982  13.473 -0.0433 -0.7469 -0.5269
16584TIP3    H171243   4.769   4.920  13.483 -0.2732 -0.0889  2.3883
16584TIP3    H271244   4.798   5.066  13.455  0.1003 -0.7493 -0.8855
16585TIP3   OH271245   2.924   2.996   4.065 -0.2992  0.1176  0.3393
16585TIP3    H171246   2.879   3.059   4.009  0.5778  0.5597  0.1163
16585TIP3    H271247   2.909   2.911   4.024 -1.1264  0.2336  0.4024
16586TIP3   OH271248   5.038   3.362   3.829 -0.2256 -0.0153 -0.3209
16586TIP3    H171249   5.063   3.326   3.914 -0.9911  0.1683 -0.0154
16586TIP3    H271250   5.054   3.456   3.837  3.5042 -0.4307 -1.7185
16587TIP3   OH271251   0.709   4.911  11.427  0.3458 -0.7964 -0.0389
16587TIP3    H171252   0.656   4.968  11.371  0.4088 -2.0616 -1.4387
16587TIP3    H271253   0.764   4.863  11.366  2.0981 -0.5418  1.3084
16588TIP3   OH271254   2.589   6.126  14.145  0.6044  0.3455  0.2453
16588TIP3    H171255   2.580   6.203  14.201  0.4206 -0.4425  1.3162
16588TIP3    H271256   2.674   6.137  14.102  1.5283  0.1098  1.9883
16589TIP3   OH271257   4.415   5.012  14.167 -0.1120 -0.1704 -0.0633
16589TIP3    H171258   4.359   4.987  14.240  0.4951 -2.4562 -0.3215
16589TIP3    H271259   4.355   5.027  14.094 -0.5650 -0.0838  0.3267
16590TIP3   OH271260   5.479   3.189  10.841 -0.3584 -0.5089 -0.3081
16590TIP3    H171261   5.518   3.146  10.917 -0.0094 -0.1857 -0.3043
16590TIP3    H271262   5.421   3.122  10.803  1.8153 -1.7283 -1.5732
16591TIP3   OH271263   1.210   2.016   2.907 -0.5245  0.0244  0.0385
16591TIP3    H171264   1.123   2.053   2.925  0.6676  2.0855  1.8058
16591TIP3    H271265   1.242   1.987   2.993  0.0847 -1.7849 -0.7731
16592TIP3   OH271266   4.950   6.542   1.890  0.0773  0.9500  0.0115
16592TIP3    H171267   5.031   6.493   1.900 -2.2392 -3.1141 -0.1116
16592TIP3    H271268   4.924   6.528   1.799 -1.4198  1.1105  0.3861
16593TIP3   OH271269   2.406   5.882   1.351  0.1985  0.1155 -0.3609
16593TIP3    H171270   2.318   5.916   1.365 -0.9829 -3.1358  0.6429
16593TIP3    H271271   2.436   5.857   1.439  1.1977 -0.8811 -0.9721
16594TIP3   OH271272   2.338   2.292  11.926  0.1197  0.1039 -0.1407
16594TIP3    H171273   2.324   2.297  11.831 -2.3286 -0.3862  0.1528
16594TIP3    H271274   2.271   2.231  11.957  0.4388  0.7861  1.9843
16595TIP3   OH271275   2.124   6.387  11.247 -0.3762  0.5833  0.5919
16595TIP3    H171276   2.158   6.442  11.317  0.1989  1.5247 -0.4073
16595TIP3    H271277   2.076   6.447  11.189 -2.6002 -0.5100  1.2447
16596TIP3   OH271278   4.323   4.080   2.601  0.0034 -0.1202  0.2113
16596TIP3    H171279   4.242   4.032   2.615  0.1413 -0.4026  0.0579
16596TIP3    H271280   4.304   4.138   2.527  0.0617 -0.4769 -0.0878
16597TIP3   OH271281   6.273   3.498   3.624 -0.0044 -0.2393 -0.0892
16597TIP3    H171282   6.341   3.475   3.560  0.2568 -0.7141  0.3470
16597TIP3    H271283   6.271   3.593   3.625  0.1533 -0.2293 -0.6341
16598TIP3   OH271284   1.308   5.757   5.843  0.4566 -0.1994 -0.1255
16598TIP3    H171285   1.236   5.767   5.905  0.1384  1.3265 -0.7169
16598TIP3    H271286   1.383   5.734   5.897 -0.7249 -3.1526  0.3714
16599TIP3   OH271287   3.198   4.852   2.492 -0.7975 -0.3858 -0.1904
16599TIP3    H171288   3.139   4.843   2.417 -0.5098 -0.7704 -0.3746
16599TIP3    H271289   3.283   4.871   2.453 -0.6878 -0.3877  0.0474
16600TIP3   OH271290   5.247   1.787  11.100 -0.1336  0.0838  0.5002
16600TIP3    H171291   5.221   1.873  11.065  1.1414  0.0081 -0.6785
16600TIP3    H271292   5.299   1.748  11.030  0.1177 -1.2542  1.4208
16601TIP3   OH271293   0.887   5.798   0.914 -0.0089 -0.3924 -0.6346
16601TIP3    H171294   0.897   5.887   0.948  1.4455 -0.9595  0.4607
16601TIP3    H271295   0.792   5.787   0.905 -0.1972  1.2951 -0.8554
16602TIP3   OH271296   1.519   3.154  16.934 -0.1359 -0.0602 -0.2761
16602TIP3    H171297   1.534   3.149  17.029 -0.0043 -1.4093 -0.3443
16602TIP3    H271298   1.455   3.224  16.923 -1.7946 -1.3114  1.0406
16603TIP3   OH271299   3.433   3.439  11.549  0.1079 -0.4781  0.7425
16603TIP3    H171300   3.504   3.407  11.605  2.0720  1.5904 -0.4869
16603TIP3    H271301   3.459   3.412  11.461 -0.9393 -0.2181  0.3600
16604TIP3   OH271302   0.249   5.528   5.881  0.0009 -0.3901 -0.3365
16604TIP3    H171303   0.302   5.450   5.866 -1.0565 -0.6687 -2.8553
16604TIP3    H271304   0.312   5.596   5.902  1.1740 -1.2654 -0.9156
16605TIP3   OH271305   0.407   0.455   5.980 -0.8570 -0.1521 -0.1374
16605TIP3    H171306   0.329   0.420   5.938 -2.5565  0.3131  2.5348
16605TIP3    H271307   0.384   0.544   6.003  0.3729 -0.0939  0.9158
16606TIP3   OH271308   0.554   0.805  14.781  0.9849 -0.0228  0.2028
16606TIP3    H171309   0.612   0.866  14.735 -0.7053  2.1261  0.8355
16606TIP3    H271310   0.539   0.846  14.866 -1.7409 -0.3339 -0.0948
16607TIP3   OH271311   5.506   0.115   0.121 -0.1990  0.0468  0.0446
16607TIP3    H171312   5.447   0.138   0.049 -0.1202 -1.3014 -0.4712
16607TIP3    H271313   5.448   0.103   0.196 -0.5291 -0.7678 -0.3378
16608TIP3   OH271314   4.152   5.005   2.817 -0.0896  0.3548 -0.2461
16608TIP3    H171315   4.207   5.065   2.767 -0.1088  0.5128 -0.0784
16608TIP3    H271316   4.063   5.038   2.804 -0.2404 -0.3959 -1.2127
16609TIP3   OH271317   2.802   0.610  12.785  0.6060  0.5058 -0.2234
16609TIP3    H171318   2.752   0.559  12.849  0.4895  1.7135  0.6594
16609TIP3    H271319   2.851   0.544  12.735  1.2245 -0.4152  1.5414
16610TIP3   OH271320   6.597   5.384   2.855 -0.2525  0.2102 -0.0594
16610TIP3    H171321   6.689   5.407   2.864  0.0133 -1.2627  1.3739
16610TIP3    H271322   6.588   5.354   2.765  0.7651 -0.0159 -0.0925
16611TIP3   OH271323   5.365   2.186   5.396  0.3049  0.0315  0.1871
16611TIP3    H171324   5.420   2.112   5.372 -1.0340 -1.0067  0.2780
16611TIP3    H271325   5.426   2.261   5.401  1.2993 -0.6115 -2.0021
16612TIP3   OH271326   5.462   4.103  11.774  0.3520 -0.4515  0.0300
16612TIP3    H171327   5.499   4.024  11.812 -1.2007 -1.2317 -0.0542
16612TIP3    H271328   5.432   4.155  11.849  1.2377 -0.0019  0.0764
16613TIP3   OH271329   6.337   5.475   2.679  0.3253  0.5873 -0.3822
16613TIP3    H171330   6.402   5.410   2.706  0.5834  1.2891  0.7287
16613TIP3    H271331   6.290   5.497   2.760 -0.1001  1.4071 -0.8439
16614TIP3   OH271332   4.274   6.635  16.613 -0.1660  0.0222 -0.0470
16614TIP3    H171333   4.290   6.542  16.597  0.0327  0.1177 -0.4045
16614TIP3    H271334   4.180   6.645  16.602 -0.2621 -0.2382  0.5079
16615TIP3   OH271335   1.971   6.117  16.781 -0.2309 -0.2629  0.2818
16615TIP3    H171336   1.899   6.168  16.743 -1.2576 -2.8611 -1.3639
16615TIP3    H271337   1.974   6.038  16.728  2.8121 -0.9181  1.3692
16616TIP3   OH271338   4.941   5.415  14.862  0.2089 -0.0893  0.1529
16616TIP3    H171339   4.857   5.462  14.859  0.1197 -0.3367 -1.5580
16616TIP3    H271340   4.944   5.365  14.780  1.4175 -1.1554  0.8309
16617TIP3   OH271341   3.294   3.169   1.473 -0.0058 -0.2660  0.0939
16617TIP3    H171342   3.244   3.139   1.397 -0.5699  1.8543 -0.4251
16617TIP3    H271343   3.352   3.237   1.438 -2.3790  2.8930  1.9641
16618TIP3   OH271344   5.904   0.865   5.187  0.2181 -0.2908 -0.0024
16618TIP3    H171345   5.879   0.943   5.236  0.7458 -0.2272  0.1747
16618TIP3    H271346   5.970   0.822   5.242  1.5704  0.3267 -1.1184
16619TIP3   OH271347   3.051   0.352  17.248  0.2811 -0.5421  0.5629
16619TIP3    H171348   3.140   0.378  17.272 -0.1369  0.1935  1.3491
16619TIP3    H271349   3.009   0.328  17.331 -0.8662  1.0846  0.4971
16620TIP3   OH271350   0.302   4.769   5.623 -0.4677  0.1363  0.1615
16620TIP3    H171351   0.213   4.781   5.655 -0.0222 -0.9299  1.8111
16620TIP3    H271352   0.336   4.858   5.614 -1.4540  0.5227  0.1550
16621TIP3   OH271353   5.768   4.343  15.003  0.0175  0.5136 -0.4932
16621TIP3    H171354   5.739   4.305  15.086  0.2279  0.7509 -0.3098
16621TIP3    H271355   5.861   4.321  14.998 -0.0067  0.4599 -0.6874
16622TIP3   OH271356   0.596   6.228  15.191 -0.2734 -0.5886  0.1224
16622TIP3    H171357   0.676   6.184  15.221 -0.3370 -0.9394 -0.2184
16622TIP3    H271358   0.565   6.277  15.267  0.0572 -0.7593  0.3657
16623TIP3   OH271359   1.058   0.057   0.094 -0.2236  0.2123 -0.0899
16623TIP3    H171360   1.020  -0.031   0.093 -0.2819  0.2168 -3.6150
16623TIP3    H271361   0.987   0.114   0.125 -0.7888 -0.7120  0.3352
16624TIP3   OH271362   0.347   2.258   5.741  0.0459  0.0768 -0.1100
16624TIP3    H171363   0.260   2.283   5.772  0.1038  1.4986 -1.0314
16624TIP3    H271364   0.368   2.179   5.790 -0.1831  1.7765  2.8926
16625TIP3   OH271365   0.873   5.571  11.510 -0.3140  0.3085 -0.4448
16625TIP3    H171366   0.961   5.554  11.476 -0.4669 -0.3638 -0.5005
16625TIP3    H271367   0.853   5.660  11.480 -0.0450  0.1027 -1.2333
16626TIP3   OH271368   4.829   0.246  11.605 -0.0727  0.0578 -0.4495
16626TIP3    H171369   4.803   0.309  11.673 -0.2327 -2.9508  2.3628
16626TIP3    H271370   4.923   0.263  11.592  0.5348 -0.9057  2.3293
16627TIP3   OH271371   4.979   0.906   1.899 -0.2778  0.1515 -0.3049
16627TIP3    H171372   4.979   0.846   1.825 -1.1671  1.7440 -1.6452
16627TIP3    H271373   4.888   0.909   1.928 -0.1687  0.4990  0.0109
16628TIP3   OH271374   4.070   3.892   0.759 -0.0771 -0.6938 -0.5629
16628TIP3    H171375   3.977   3.868   0.759 -0.3370  0.0046  3.3202
16628TIP3    H271376   4.073   3.971   0.704 -2.3164  0.9086  1.4623
16629TIP3   OH271377   1.970   2.759  15.481 -0.3550 -0.3319 -0.1829
16629TIP3    H171378   1.989   2.772  15.574 -0.0728 -1.1954 -0.1116
16629TIP3    H271379   1.874   2.756  15.476 -0.3548 -1.5625  0.2788
16630TIP3   OH271380   0.378   2.502   2.838 -0.9954  0.4257 -0.5150
16630TIP3    H171381   0.367   2.579   2.783 -1.0079  1.7739  1.3090
16630TIP3    H271382   0.289   2.475   2.861 -0.9537  1.3064  0.7466
16631TIP3   OH271383   1.774   3.124  15.803 -0.0159 -0.2043  0.0014
16631TIP3    H171384   1.755   3.031  15.813  0.8413 -0.4128 -0.1953
16631TIP3    H271385   1.809   3.151  15.888 -2.4242  0.5038  0.8003
16632TIP3   OH271386   3.939   0.051  12.230 -0.6180 -0.3793 -0.7107
16632TIP3    H171387   3.860   0.052  12.176 -0.9504  1.5466 -0.2131
16632TIP3    H271388   3.967  -0.041  12.228 -1.7638 -0.7374 -2.4692
16633TIP3   OH271389   3.599   0.320  15.168 -0.5226  0.0084 -0.4376
16633TIP3    H171390   3.679   0.271  15.189  0.4434  1.3721 -0.8630
16633TIP3    H271391   3.623   0.375  15.094 -2.3179 -0.6899 -1.5680
16634TIP3   OH271392   3.829   5.721  13.436 -0.5090 -0.4928  0.3294
16634TIP3    H171393   3.793   5.633  13.428 -0.1700 -0.3720 -3.3976
16634TIP3    H271394   3.754   5.779  13.431 -0.4308 -0.4755 -0.8282
16635TIP3   OH271395   5.650   2.654   4.422 -0.1408 -0.0688  0.1817
16635TIP3    H171396   5.696   2.643   4.505  1.3751 -2.6666 -0.9532
16635TIP3    H271397   5.695   2.596   4.361 -2.5557  0.1822 -1.9453
16636TIP3   OH271398   5.356   0.686  11.911 -0.6390 -0.4583  0.2604
16636TIP3    H171399   5.288   0.658  11.850 -0.9199 -1.5130  1.0593
16636TIP3    H271400   5.313   0.687  11.996 -0.0398  0.2678  0.5606
16637TIP3   OH271401   5.648   0.546   5.525  0.3243  0.4956  0.7369
16637TIP3    H171402   5.569   0.514   5.567 -1.3055  1.0907 -1.7937
16637TIP3    H271403   5.713   0.476   5.539 -1.1688 -0.8108  1.2410
16638TIP3   OH271404   6.602   2.534   4.941 -0.6002 -0.0721  0.5565
16638TIP3    H171405   6.661   2.518   4.868  0.2918  1.1983  0.9763
16638TIP3    H271406   6.547   2.456   4.945 -0.7610 -0.1082 -1.5554
16639TIP3   OH271407   1.154   1.592   1.418  0.1984  0.1326  0.0870
16639TIP3    H171408   1.242   1.619   1.391  0.6715 -1.0406  0.3932
16639TIP3    H271409   1.154   1.497   1.405 -0.3376 -0.1513  2.0271
16640TIP3   OH271410   2.188   4.758   6.039  0.4708 -0.0188 -0.1201
16640TIP3    H171411   2.205   4.733   6.130  1.8241  1.1318 -0.0398
16640TIP3    H271412   2.092   4.762   6.033  0.3652 -0.3504  1.1837
16641TIP3   OH271413   4.322   3.346  15.232 -0.3841 -0.4455 -0.1325
16641TIP3    H171414   4.383   3.298  15.175  0.9286 -0.0059  0.8705
16641TIP3    H271415   4.318   3.293  15.311  2.4350  1.9000  1.6876
16642TIP3   OH271416   3.811   2.474  11.178 -0.2693  0.0123 -0.1602
16642TIP3    H171417   3.856   2.527  11.244 -0.6446  0.8054 -0.5309
16642TIP3    H271418   3.721   2.468  11.210 -0.0974 -0.8652  0.1575
16643TIP3   OH271419   6.183   0.988   1.621 -0.1029  0.3924  0.2954
16643TIP3    H171420   6.115   0.963   1.684 -0.8196 -0.5531 -0.8228
16643TIP3    H271421   6.262   0.998   1.674 -0.4213 -1.5686  1.2198
16644TIP3   OH271422   1.261   1.002  15.135  0.1949  0.6199 -0.2328
16644TIP3    H171423   1.173   0.985  15.166 -0.2648  2.7158 -0.3125
16644TIP3    H271424   1.318   0.956  15.196 -0.8804  0.8021  0.9159
16645TIP3   OH271425   1.144   4.399   5.774 -0.0892 -0.2707  0.0239
16645TIP3    H171426   1.169   4.422   5.863 -1.5872  0.2733  0.3291
16645TIP3    H271427   1.059   4.442   5.761  1.1735  1.6482 -2.4914
16646TIP3   OH271428   0.298   4.068   0.749  0.0166 -0.1199  0.2121
16646TIP3    H171429   0.332   4.005   0.685 -1.0863 -1.4092  0.8683
16646TIP3    H271430   0.211   4.090   0.717  1.1776  2.7249 -1.1499
16647TIP3   OH271431   6.073   0.273   5.618 -0.4257 -0.1922  0.3077
16647TIP3    H171432   6.142   0.247   5.557  1.5731  1.5796  1.7204
16647TIP3    H271433   6.046   0.192   5.660  2.3438 -0.6877  1.2617
16648TIP3   OH271434   1.906   0.752  14.662 -0.3280  0.3767  0.0848
16648TIP3    H171435   1.812   0.741  14.678  0.0089  0.2501  2.1907
16648TIP3    H271436   1.911   0.811  14.587 -2.0886 -1.0966 -1.2156
16649TIP3   OH271437   6.803   1.902   2.649 -0.3440 -0.1474  0.1882
16649TIP3    H171438   6.762   1.904   2.563  0.9248  2.1691 -0.4109
16649TIP3    H271439   6.886   1.855   2.635 -0.8637 -1.1667  0.4980
16650TIP3   OH271440   0.447   5.920   0.288  0.2367 -0.8905  0.3712
16650TIP3    H171441   0.410   5.860   0.223  1.2531 -0.5155 -0.5493
16650TIP3    H271442   0.541   5.908   0.282  0.5134  1.3092 -0.3324
16651TIP3   OH271443   1.517   4.889   4.861  0.2854  0.6115 -0.4628
16651TIP3    H171444   1.423   4.891   4.878  0.7400  1.1466  2.1375
16651TIP3    H271445   1.555   4.948   4.925  2.5291 -0.5859 -0.6238
16652TIP3   OH271446   2.365   3.584   3.939 -0.0295  0.1266  0.2680
16652TIP3    H171447   2.327   3.580   4.027  0.1869 -0.3375  0.3419
16652TIP3    H271448   2.372   3.677   3.920 -0.6698  0.2183  0.4876
16653TIP3   OH271449   3.658   1.577  11.145 -0.1074  0.2322  0.1075
16653TIP3    H171450   3.750   1.554  11.129 -0.4102 -2.7232  2.3476
16653TIP3    H271451   3.661   1.642  11.215  0.3324  1.5466 -1.0975
16654TIP3   OH271452   3.617   6.641   0.247  0.2365 -0.4017 -0.0494
16654TIP3    H171453   3.638   6.662   0.338 -0.6776 -2.8139  0.7606
16654TIP3    H271454   3.673   6.699   0.195  0.9321  0.8416  2.0435
16655TIP3   OH271455   5.172   3.651   4.440 -0.3164 -0.3165  0.1913
16655TIP3    H171456   5.092   3.704   4.446 -0.8669 -0.8994 -1.4725
16655TIP3    H271457   5.234   3.707   4.392 -0.3276 -0.5253 -0.0690
16656TIP3   OH271458   1.649   2.310  15.728 -0.0012 -0.3272 -0.3736
16656TIP3    H171459   1.623   2.394  15.765  1.2737 -0.9640  2.0901
16656TIP3    H271460   1.639   2.248  15.800 -1.0423 -2.3311 -2.1827
16657TIP3   OH271461   2.418   1.676   1.612  0.0988  0.0974  0.0373
16657TIP3    H171462   2.329   1.652   1.590 -0.2770  1.6027 -0.1930
16657TIP3    H271463   2.464   1.678   1.527  0.4950 -1.2354  0.2201
16658TIP3   OH271464   3.924   4.586  16.486  0.0827 -0.1855  0.1765
16658TIP3    H171465   3.925   4.555  16.576 -0.1110  1.1488  0.6592
16658TIP3    H271466   3.996   4.649  16.482 -0.5649  0.5397 -0.2992
16659TIP3   OH271467   4.975   4.532   2.310 -0.2039 -0.3321  0.1831
16659TIP3    H171468   5.035   4.487   2.370  0.0439  1.2161  1.1176
16659TIP3    H271469   4.896   4.478   2.311  0.7634 -1.8068 -0.2267
16660TIP3   OH271470   6.744   5.188   1.202 -0.2370 -0.7847  0.2443
16660TIP3    H171471   6.806   5.255   1.172  1.7056 -2.0926  1.2239
16660TIP3    H271472   6.698   5.229   1.276  0.3666 -0.2476  0.3216
16661TIP3   OH271473   6.687   3.982   4.209  0.0485 -0.8550 -0.6408
16661TIP3    H171474   6.649   4.001   4.123 -1.4819  1.4182  0.4835
16661TIP3    H271475   6.759   4.044   4.218 -1.0375  0.2701  0.5012
16662TIP3   OH271476   4.387   5.000   2.518  0.3033 -0.6464  0.2996
16662TIP3    H171477   4.322   4.943   2.558 -0.4217 -0.3890 -0.4987
16662TIP3    H271478   4.466   4.946   2.512  0.1643 -0.9654  1.2527
16663TIP3   OH271479   5.685   1.116   1.692 -0.0588 -0.3311  0.4004
16663TIP3    H171480   5.754   1.051   1.676  0.8550  0.8616 -0.5952
16663TIP3    H271481   5.722   1.172   1.761 -0.7792 -0.7572  1.1420
16664TIP3   OH271482   1.729   2.358  15.275 -0.6646 -0.3204 -0.9768
16664TIP3    H171483   1.740   2.351  15.180 -0.1324 -0.5824 -0.8950
16664TIP3    H271484   1.635   2.347  15.288 -0.9251  1.0278 -1.5865
16665TIP3   OH271485   4.461   5.356  13.354 -0.3475 -0.1802 -0.1664
16665TIP3    H171486   4.496   5.418  13.418  1.1973  0.3744 -1.5294
16665TIP3    H271487   4.380   5.324  13.394 -1.4092  3.0159  0.3806
16666TIP3   OH271488   2.380   5.557  12.127  0.2940  0.0811  0.4970
16666TIP3    H171489   2.454   5.599  12.170  0.7661  0.5318 -0.7125
16666TIP3    H271490   2.417   5.477  12.088  0.7317  1.5058 -2.1630
16667TIP3   OH271491   0.191   6.090  14.376  0.2280  0.0191  0.0615
16667TIP3    H171492   0.161   6.012  14.328 -1.5083 -0.7024  2.1962
16667TIP3    H271493   0.264   6.058  14.429  0.1819  0.0860  0.1650
16668TIP3   OH271494   1.165   0.780  16.609 -0.0842  0.4503 -0.1319
16668TIP3    H171495   1.207   0.710  16.559 -0.4647  0.8489 -1.0325
16668TIP3    H271496   1.202   0.860  16.573 -0.7113  0.7572 -0.0951
16669TIP3   OH271497   4.712   1.166  12.943 -0.4263 -0.0906  0.1941
16669TIP3    H171498   4.750   1.106  12.878  0.5400 -0.9863  1.5386
16669TIP3    H271499   4.788   1.212  12.979 -0.8073 -0.4888  1.5380
16670TIP3   OH271500   6.082   1.524  14.490  0.4224  0.2645 -0.2687
16670TIP3    H171501   6.014   1.579  14.452  1.2979  1.2201 -0.4656
16670TIP3    H271502   6.144   1.586  14.530  0.4684 -0.6460  1.1130
16671TIP3   OH271503   6.720   4.392   2.471  0.0129  0.3291  0.1098
16671TIP3    H171504   6.812   4.410   2.491 -0.4729  1.3754  1.5136
16671TIP3    H271505   6.685   4.354   2.552 -0.8854  0.3176 -0.2762
16672TIP3   OH271506   5.879   4.802   6.354  0.8261  0.4310  0.2212
16672TIP3    H171507   5.877   4.877   6.414  0.6629  1.2678 -0.8205
16672TIP3    H271508   5.951   4.821   6.294  0.5680 -0.0903 -0.2546
16673TIP3   OH271509   3.282   2.941   3.334 -0.1598  0.3003 -0.2535
16673TIP3    H171510   3.361   2.970   3.378  0.5668 -1.0503 -0.6630
16673TIP3    H271511   3.300   2.851   3.308 -1.7791  0.0264 -0.4664
16674TIP3   OH271512   5.690   6.443  15.353  0.3323 -0.2963 -0.3600
16674TIP3    H171513   5.637   6.490  15.418  1.3097  0.7371 -0.2814
16674TIP3    H271514   5.629   6.382  15.311 -0.4293 -0.6278  1.1828
16675TIP3   OH271515   4.832   2.051  11.800  0.1176 -0.4903 -0.1957
16675TIP3    H171516   4.783   2.012  11.872  0.4460 -0.8410 -0.1634
16675TIP3    H271517   4.807   2.143  11.801  0.2856 -0.4538  0.4967
16676TIP3   OH271518   3.647   5.081   3.542 -0.3450  0.1403 -0.4233
16676TIP3    H171519   3.708   5.060   3.472 -0.7974 -0.0037 -0.7775
16676TIP3    H271520   3.560   5.072   3.502 -0.6949 -2.5585  0.8389
16677TIP3   OH271521   4.772   5.039  17.149 -0.1385  0.3181 -0.5966
16677TIP3    H171522   4.802   4.961  17.195  0.7804  1.6431  1.0749
16677TIP3    H271523   4.850   5.092  17.137 -1.0086  1.6870 -0.3305
16678TIP3   OH271524   1.544   3.463   3.934  0.3537 -0.0419 -0.7134
16678TIP3    H171525   1.602   3.408   3.881 -0.1348 -1.4707  0.2084
16678TIP3    H271526   1.470   3.481   3.877 -0.1180 -1.4788 -0.5735
16679TIP3   OH271527   2.510   4.019   5.153 -0.2690 -0.0245 -0.8521
16679TIP3    H171528   2.574   4.016   5.082  0.3102 -2.0126 -0.2936
16679TIP3    H271529   2.464   3.935   5.147 -0.7525  0.1178  0.6246
16680TIP3   OH271530   4.506   4.253  13.490 -0.1335  0.8950 -0.2537
16680TIP3    H171531   4.565   4.180  13.508 -1.2814 -0.0003 -0.0116
16680TIP3    H271532   4.489   4.248  13.396 -1.8566 -0.4496  0.1107
16681TIP3   OH271533   3.297   5.064  12.387 -0.5600  0.2631 -0.0218
16681TIP3    H171534   3.210   5.042  12.419 -0.9868  1.6419 -0.1623
16681TIP3    H271535   3.283   5.090  12.296 -0.4360  3.0163  0.6870
16682TIP3   OH271536   1.616   2.501  16.525 -0.1536 -0.2704  0.2722
16682TIP3    H171537   1.612   2.495  16.620  0.7572 -0.6145  0.2936
16682TIP3    H271538   1.614   2.594  16.506 -2.7856 -0.2292  0.4942
16683TIP3   OH271539   1.132   4.023   1.751  0.5750 -0.0043 -0.5889
16683TIP3    H171540   1.166   4.004   1.839 -1.7373 -2.6518 -0.1939
16683TIP3    H271541   1.051   4.072   1.768  0.5805  0.2452 -1.2895
16684TIP3   OH271542   3.760   2.326   5.432  0.4345 -0.3970 -0.2615
16684TIP3    H171543   3.769   2.296   5.522 -0.9533 -0.0833  0.0039
16684TIP3    H271544   3.847   2.356   5.407  0.8473 -0.5736  0.9447
16685TIP3   OH271545   3.494   6.160   4.064  0.0742 -0.6652 -0.0772
16685TIP3    H171546   3.452   6.078   4.039 -0.1572 -0.7659  0.6323
16685TIP3    H271547   3.519   6.147   4.156  1.9915 -0.7552 -0.5885
16686TIP3   OH271548   6.548   2.928  10.715 -0.2419  0.2915  0.3602
16686TIP3    H171549   6.512   2.880  10.639 -0.7053  1.0294  0.1119
16686TIP3    H271550   6.618   2.871  10.748 -0.5877 -0.4180 -0.1224
16687TIP3   OH271551   6.397   3.505   0.304  0.3186 -0.0967  0.2771
16687TIP3    H171552   6.325   3.536   0.249 -0.2472 -1.1354  0.4321
16687TIP3    H271553   6.356   3.476   0.385  1.0049  0.1067  0.7043
16688TIP3   OH271554   4.106   0.218  11.936 -0.1128 -0.3891 -0.0544
16688TIP3    H171555   4.046   0.144  11.924  1.2916 -1.5917  0.2032
16688TIP3    H271556   4.179   0.182  11.986  1.3256  0.7913 -1.2339
16689TIP3   OH271557   6.205   1.953  11.421  0.6694  0.2249  0.1858
16689TIP3    H171558   6.281   1.903  11.390  1.2183 -0.3194  2.3228
16689TIP3    H271559   6.149   1.962  11.344  1.7657 -1.4601 -0.8360
16690TIP3   OH271560   2.644   3.650  16.142 -0.5105  0.4641 -0.0419
16690TIP3    H171561   2.601   3.721  16.191 -0.5125  0.8508 -0.5948
16690TIP3    H271562   2.623   3.669  16.050 -0.3508 -0.1509 -0.2019
16691TIP3   OH271563   0.636   5.142   6.872 -0.1571  0.1934  0.2757
16691TIP3    H171564   0.659   5.049   6.869 -0.9038  0.0211 -0.4319
16691TIP3    H271565   0.636   5.169   6.780 -0.3244  0.7984  0.4548
16692TIP3   OH271566   4.334   2.572  17.037 -0.6753 -0.2421 -0.3309
16692TIP3    H171567   4.331   2.611  16.949 -1.2170 -0.0651 -0.2352
16692TIP3    H271568   4.372   2.640  17.092 -0.7137 -0.2068 -0.3484
16693TIP3   OH271569   2.295   2.130   1.240  0.3025 -0.0517 -0.1616
16693TIP3    H171570   2.327   2.170   1.321  0.8685  1.6320 -1.2005
16693TIP3    H271571   2.275   2.039   1.265  0.6226  0.3931  1.8170
16694TIP3   OH271572   2.962   3.356   6.644 -0.4854 -0.0510  0.2687
16694TIP3    H171573   3.043   3.403   6.664 -0.5705  0.1020  0.2482
16694TIP3    H271574   2.983   3.264   6.664 -0.1706 -0.0724 -0.1524
16695TIP3   OH271575   2.524   4.607   4.365  0.1386  0.3276 -0.3479
16695TIP3    H171576   2.453   4.549   4.339  0.4356  0.2553 -1.0204
16695TIP3    H271577   2.602   4.568   4.325  0.4701  0.6999 -0.0627
16696TIP3   OH271578   6.085   0.215   1.215  0.5025  0.4464  0.1079
16696TIP3    H171579   6.070   0.309   1.202 -1.2435  0.6702  3.1709
16696TIP3    H271580   6.021   0.173   1.158  1.4184  1.0912 -1.4234
16697TIP3   OH271581   5.816   1.697  14.435  0.3073 -0.2739 -0.0660
16697TIP3    H171582   5.796   1.763  14.369  1.1429 -0.8688 -0.9480
16697TIP3    H271583   5.774   1.728  14.515 -0.3568  0.6804 -0.7781
16698TIP3   OH271584   4.726   4.911  13.195 -0.4754  0.3675 -0.4585
16698TIP3    H171585   4.713   4.996  13.237  0.0856  0.0631  0.3558
16698TIP3    H271586   4.681   4.849  13.253  0.1649 -0.0425 -0.3912
16699TIP3   OH271587   1.709   1.072   1.942  0.3501 -0.2706  0.2291
16699TIP3    H171588   1.658   1.059   1.862 -1.1577 -0.6532  1.2301
16699TIP3    H271589   1.653   1.128   1.996  2.0104  1.2509  0.4233
16700TIP3   OH271590   2.910   4.556   0.083  0.2368  0.3797  0.1498
16700TIP3    H171591   2.990   4.508   0.062 -0.5702 -0.7871 -0.2387
16700TIP3    H271592   2.940   4.647   0.094  1.9620 -0.3920  2.1720
16701TIP3   OH271593   4.699   4.171   0.984  0.5670 -0.5884  0.2165
16701TIP3    H171594   4.791   4.159   1.009  0.6349  1.5916  1.0679
16701TIP3    H271595   4.662   4.083   0.988  2.1828 -1.2236  1.6515
16702TIP3   OH271596   0.834   5.546   4.827 -0.3316 -0.4097  0.1966
16702TIP3    H171597   0.783   5.480   4.781 -0.4699  0.7320 -1.3372
16702TIP3    H271598   0.772   5.617   4.845  0.3085  0.2335 -0.1170
16703TIP3   OH271599   1.946   0.021  13.844 -0.3133 -0.1937 -0.2974
16703TIP3    H171600   2.027  -0.028  13.854 -1.7281 -2.1703  2.0297
16703TIP3    H271601   1.938   0.072  13.925 -0.4108  1.5638 -1.3785
16704TIP3   OH271602   1.322   2.797  13.433 -0.1379 -0.0404  1.0407
16704TIP3    H171603   1.292   2.707  13.443 -0.8123  0.3120  2.3759
16704TIP3    H271604   1.411   2.797  13.467  0.9532 -0.7963 -1.6561
16705TIP3   OH271605   1.372   4.853   5.211 -0.3327  0.5140 -0.2534
16705TIP3    H171606   1.357   4.825   5.121  2.6385 -2.2989  0.0096
16705TIP3    H271607   1.466   4.872   5.215 -0.1384 -0.7783  2.5685
16706TIP3   OH271608   6.104   6.681   5.058 -0.1179 -0.3851 -0.2358
16706TIP3    H171609   6.032   6.619   5.070 -0.3145 -0.1307 -0.1216
16706TIP3    H271610   6.063   6.767   5.062  0.2483 -0.2306  0.1976
16707TIP3   OH271611   2.776   4.577   4.242 -0.0255  1.0054 -0.1799
16707TIP3    H171612   2.751   4.660   4.202  0.0740  0.6708 -0.9418
16707TIP3    H271613   2.850   4.599   4.298  0.6761  1.2600 -1.1888
16708TIP3   OH271614   1.817   6.140   0.479 -0.0938 -0.1244 -0.5660
16708TIP3    H171615   1.885   6.114   0.541  0.0991  1.2698 -0.1731
16708TIP3    H271616   1.758   6.195   0.531 -1.3014 -0.9823 -1.0063
16709TIP3   OH271617   5.186   2.130   0.346  0.1234  0.2548  0.2632
16709TIP3    H171618   5.218   2.183   0.419 -0.7386  0.9389  0.1396
16709TIP3    H271619   5.229   2.045   0.359  2.3415  1.2730 -0.1290
16710TIP3   OH271620   1.898   1.525  15.912 -0.4323  0.1529 -0.2993
16710TIP3    H171621   1.842   1.455  15.946  1.2777 -2.4056 -2.4661
16710TIP3    H271622   1.903   1.508  15.818 -1.0729  4.0568 -1.1286
16711TIP3   OH271623   3.094   6.337  12.322  0.2134 -0.1642 -0.9315
16711TIP3    H171624   3.068   6.402  12.388  3.4520 -1.4949  1.7961
16711TIP3    H271625   3.168   6.376  12.277  2.2845 -1.9289  0.8323
16712TIP3   OH271626   5.589   3.623  11.176  0.1620  0.1140  0.0292
16712TIP3    H171627   5.627   3.654  11.259  0.6348 -0.5922  0.0793
16712TIP3    H271628   5.499   3.599  11.198  0.2813 -0.0526  0.3349
16713TIP3   OH271629   2.940   6.035  12.429  0.4335 -0.2323  0.0763
16713TIP3    H171630   2.963   6.080  12.510 -0.1395  1.1032 -0.4989
16713TIP3    H271631   2.856   6.073  12.403  1.9195  1.3815 -2.6025
16714TIP3   OH271632   0.229   5.498   2.582  0.4558 -0.1623 -0.2052
16714TIP3    H171633   0.184   5.583   2.584 -1.0732 -0.9359 -0.8357
16714TIP3    H271634   0.260   5.485   2.672 -2.2419 -0.4554  0.7341
16715TIP3   OH271635   5.305   3.140  11.289 -0.5209  0.1999  0.2673
16715TIP3    H171636   5.236   3.187  11.242 -0.0942  0.9430  0.3656
16715TIP3    H271637   5.268   3.054  11.308 -0.5439 -0.2966 -1.8478
16716TIP3   OH271638   4.738   6.004   1.061  0.4795 -0.7820 -0.5399
16716TIP3    H171639   4.738   6.055   0.980  3.2699  1.4735  0.8232
16716TIP3    H271640   4.782   5.922   1.038 -0.2681 -0.8676 -1.7084
16717TIP3   OH271641   4.195   2.466  10.609 -0.1982  0.1422  0.8777
16717TIP3    H171642   4.231   2.390  10.563  0.9628  0.3413  1.4499
16717TIP3    H271643   4.231   2.542  10.563 -0.3565  0.3489  1.0907
16718TIP3   OH271644   0.584   5.216  13.153  0.3608 -0.4601  0.3983
16718TIP3    H171645   0.616   5.246  13.068  1.2601  0.9690  1.2304
16718TIP3    H271646   0.505   5.267  13.169  0.4136 -0.4390  0.6010
16719TIP3   OH271647   2.319   6.005  17.119 -0.4371 -0.1077  0.2087
16719TIP3    H171648   2.307   6.065  17.046 -0.4472  0.1635  0.4282
16719TIP3    H271649   2.256   6.035  17.185 -1.3451 -1.1666 -0.1785
16720TIP3   OH271650   3.439   4.937  13.065 -0.7155  0.3087  0.3272
16720TIP3    H171651   3.494   4.989  13.007 -2.1930 -0.2112 -1.5621
16720TIP3    H271652   3.423   4.995  13.140 -0.1397  1.5800 -0.5183
16721TIP3   OH271653   2.269   0.942   3.720  0.4083  0.0385  0.0501
16721TIP3    H171654   2.327   0.970   3.649  0.5864  1.8396  0.8639
16721TIP3    H271655   2.282   0.848   3.726  2.1336  0.1926 -0.7893
16722TIP3   OH271656   1.044   6.768   2.122 -0.4792  0.2656  0.4920
16722TIP3    H171657   0.962   6.735   2.086 -1.1401  0.4906  1.7423
16722TIP3    H271658   1.037   6.752   2.216  1.3299 -0.6093  0.5012
16723TIP3   OH271659   1.448   6.584  16.800  0.6410  0.0368  0.4365
16723TIP3    H171660   1.397   6.551  16.874  0.2027  1.6696  0.8684
16723TIP3    H271661   1.525   6.526  16.797  0.2787 -0.5329  1.6638
16724TIP3   OH271662   3.379   2.787  14.737 -0.1958  0.8025 -0.3868
16724TIP3    H171663   3.370   2.694  14.758  2.3232  0.9547  1.6445
16724TIP3    H271664   3.307   2.830  14.783 -1.3436 -0.1228 -1.2962
16725TIP3   OH271665   5.124   2.426  15.824 -0.6652  0.6637  0.2415
16725TIP3    H171666   5.150   2.342  15.861  0.0825  0.0895 -1.5372
16725TIP3    H271667   5.206   2.469  15.801 -1.0930  1.2348 -0.2492
16726TIP3   OH271668   4.570   4.338   3.840 -0.3827  0.0127  0.7092
16726TIP3    H171669   4.641   4.377   3.892 -0.3315 -2.0500  2.2610
16726TIP3    H271670   4.602   4.341   3.750  0.1546  2.3322  0.9492
16727TIP3   OH271671   6.028   4.061  13.065 -0.5757  0.0900  0.0765
16727TIP3    H171672   6.028   4.049  12.970 -0.8823  0.0117  0.0857
16727TIP3    H271673   6.059   4.150  13.078  1.5489 -0.6161  0.0041
16728TIP3   OH271674   6.006   0.450  13.757 -0.4422  1.2559 -0.6203
16728TIP3    H171675   5.941   0.409  13.815 -1.3956  1.9099 -1.2154
16728TIP3    H271676   6.071   0.381  13.741 -1.2519  0.4377 -0.4186
16729TIP3   OH271677   4.240   6.783   1.034 -0.1804  0.4952  0.3560
16729TIP3    H171678   4.160   6.760   1.082 -0.6797 -0.1257 -0.7654
16729TIP3    H271679   4.237   6.878   1.029 -1.5995  0.4043 -0.9260
16730TIP3   OH271680   0.780   4.531   5.114 -0.4295  0.3974  0.3215
16730TIP3    H171681   0.820   4.444   5.114 -2.1240 -0.4518 -1.7034
16730TIP3    H271682   0.746   4.541   5.025 -3.2356  1.7193  1.4748
16731TIP3   OH271683   1.273   1.351   1.656  0.6025  0.0372 -0.0384
16731TIP3    H171684   1.257   1.342   1.562 -0.8854 -0.1683  0.2282
16731TIP3    H271685   1.273   1.446   1.671  0.6499  0.0661 -0.2214
16732TIP3   OH271686   1.707   4.841  14.235  0.3882 -0.3537 -0.2675
16732TIP3    H171687   1.662   4.886  14.307  2.4506 -0.1379  0.9371
16732TIP3    H271688   1.728   4.911  14.173 -1.1060 -0.4904 -0.9494
16733TIP3   OH271689   2.791   6.618   0.912  0.5230 -0.8408  0.2865
16733TIP3    H171690   2.716   6.670   0.941  2.4274  2.6412 -0.7280
16733TIP3    H271691   2.777   6.606   0.818  0.7606 -1.0216  0.2747
16734TIP3   OH271692   2.800   5.897  12.663  0.3763  0.4772 -0.2406
16734TIP3    H171693   2.831   5.973  12.613  0.5937  0.0808 -0.7096
16734TIP3    H271694   2.721   5.928  12.707 -0.2794  0.5913 -1.4758
16735TIP3   OH271695   6.391   0.702   4.315  0.1310 -0.1338 -0.9280
16735TIP3    H171696   6.369   0.657   4.396 -1.4388  1.3955 -0.4736
16735TIP3    H271697   6.397   0.795   4.339 -1.1792  0.4489 -2.6843
16736TIP3   OH271698   0.360   1.656   2.220  0.3522 -0.2124 -0.3450
16736TIP3    H171699   0.442   1.627   2.261 -0.1296 -2.2280 -0.7304
16736TIP3    H271700   0.301   1.671   2.294 -0.1412 -2.6738 -0.1852
16737TIP3   OH271701   4.867   0.886   2.496  0.7404  0.2083  0.3875
16737TIP3    H171702   4.809   0.829   2.445  0.1753  2.0025 -1.0304
16737TIP3    H271703   4.955   0.860   2.472  0.4749  1.3608 -1.9347
16738TIP3   OH271704   2.560   4.950   3.647 -0.9045  0.6230  0.4205
16738TIP3    H171705   2.497   4.885   3.613 -0.6317  1.5138 -1.8745
16738TIP3    H271706   2.512   4.995   3.717 -0.9786 -2.2554  2.3210
16739TIP3   OH271707   3.218   2.337   5.785  0.2589 -0.8707  0.2061
16739TIP3    H171708   3.280   2.326   5.857  0.4038  1.2300  0.4300
16739TIP3    H271709   3.163   2.258   5.788 -0.0608 -0.5870  2.9359
16740TIP3   OH271710   3.317   2.367  14.580  0.2827 -0.8392  0.4852
16740TIP3    H171711   3.412   2.373  14.593  0.2439  0.9802  0.1747
16740TIP3    H271712   3.287   2.458  14.586 -1.5733 -1.5060  1.4938
16741TIP3   OH271713   1.343   0.841   6.383 -0.3573  0.0421  0.1123
16741TIP3    H171714   1.303   0.876   6.463 -0.7606  2.2633 -1.0289
16741TIP3    H271715   1.314   0.750   6.381 -0.1879 -0.1211  2.5898
16742TIP3   OH271716   1.626   0.521   2.825  0.1021  0.4076 -0.3138
16742TIP3    H171717   1.676   0.602   2.813  1.8967 -0.8266 -1.3935
16742TIP3    H271718   1.601   0.494   2.737 -0.9700  0.0628  0.0841
16743TIP3   OH271719   2.642   3.464  14.575 -0.4223 -0.5115  0.1827
16743TIP3    H171720   2.586   3.541  14.573 -1.5035 -1.2946  0.1747
16743TIP3    H271721   2.669   3.456  14.667  0.6880  0.5800 -0.0403
16744TIP3   OH271722   6.605   0.002   6.105 -0.0540  0.0132 -0.3951
16744TIP3    H171723   6.531   0.032   6.158  0.2352 -1.8438  1.1130
16744TIP3    H271724   6.682   0.026   6.157  0.2674 -1.0194 -0.3804
16745TIP3   OH271725   1.229   1.534  14.896  0.3518 -0.2380 -0.4015
16745TIP3    H171726   1.320   1.527  14.866 -0.0713 -1.4028 -1.5092
16745TIP3    H271727   1.178   1.496  14.824 -0.9107 -0.7315  0.7291
16746TIP3   OH271728   5.033   3.692   0.032  0.5278 -0.2225  0.4999
16746TIP3    H171729   4.988   3.775   0.050 -0.7351 -0.9094  0.5458
16746TIP3    H271730   5.025   3.681  -0.063 -0.0245 -0.6965  0.6012
16747TIP3   OH271731   3.818   4.852  15.137  0.8269  0.2094 -0.1850
16747TIP3    H171732   3.749   4.826  15.076  0.9846  1.3545 -0.8549
16747TIP3    H271733   3.788   4.819  15.222  0.4786 -1.1559 -0.8260
16748TIP3   OH271734   3.408   1.704   2.113  0.1537 -0.2186 -0.6119
16748TIP3    H171735   3.450   1.695   2.027 -0.2978  1.8196 -1.0754
16748TIP3    H271736   3.445   1.785   2.149 -0.1049 -0.7528  0.8727
16749TIP3   OH271737   3.775   1.319  14.919  0.4549 -0.1586 -0.4658
16749TIP3    H171738   3.771   1.301  14.825  0.7500  0.7596 -0.6639
16749TIP3    H271739   3.781   1.233  14.960 -2.0212 -0.6856 -1.1541
16750TIP3   OH271740   5.860   2.910   0.475  0.3048 -0.5141  0.0109
16750TIP3    H171741   5.873   2.857   0.397 -1.7078 -1.2897  0.1712
16750TIP3    H271742   5.837   2.996   0.443  2.4519 -0.0095 -0.2450
16751TIP3   OH271743   4.778   1.669  14.017 -0.0610  0.0091  0.5258
16751TIP3    H171744   4.696   1.705  14.052 -0.3885 -0.3726  0.1598
16751TIP3    H271745   4.817   1.742  13.968  0.9173  0.8585  2.5435
16752TIP3   OH271746   3.173   0.233  11.328  0.2182  0.2985 -0.2999
16752TIP3    H171747   3.189   0.325  11.345  0.5072  0.4571 -1.3990
16752TIP3    H271748   3.172   0.225  11.232 -2.2041 -0.4152 -0.2498
16753TIP3   OH271749   3.151   1.893   0.677  0.0439  0.2246  0.3379
16753TIP3    H171750   3.057   1.910   0.681  0.0856  0.3148  1.0014
16753TIP3    H271751   3.191   1.968   0.721  0.4048  0.0068  0.3832
16754TIP3   OH271752   4.996   0.005  12.594 -0.5884  0.1853 -0.0447
16754TIP3    H171753   4.912   0.051  12.586 -0.8774  0.0093  1.7735
16754TIP3    H271754   4.992  -0.037  12.680  0.2614 -2.1025 -1.1015
16755TIP3   OH271755   5.827   5.513  10.857  0.2853 -0.2435 -0.2023
16755TIP3    H171756   5.797   5.491  10.945  0.5094  1.0055  0.2020
16755TIP3    H271757   5.836   5.429  10.812 -1.6128 -0.7635  0.3762
16756TIP3   OH271758   2.582   5.857  15.260  0.1560  0.4976 -0.6863
16756TIP3    H171759   2.527   5.858  15.338  0.8391  0.6356 -0.1972
16756TIP3    H271760   2.524   5.882  15.189  0.0433  2.6124  0.1212
16757TIP3   OH271761   2.051   2.256  14.408  0.2862 -0.5577 -0.3060
16757TIP3    H171762   2.101   2.266  14.327  0.9676 -1.8222 -0.0473
16757TIP3    H271763   1.960   2.257  14.379  0.3920  2.0171 -0.7563
16758TIP3   OH271764   0.240   1.389   0.444 -0.2246  0.2361  0.2928
16758TIP3    H171765   0.207   1.478   0.440 -1.1170 -0.0531  1.1609
16758TIP3    H271766   0.203   1.352   0.524 -1.8627 -1.7014 -1.2918
16759TIP3   OH271767   2.413   3.040   2.861  0.7266 -0.3616 -0.3735
16759TIP3    H171768   2.450   2.992   2.936  0.6405 -0.3812 -0.3439
16759TIP3    H271769   2.477   3.026   2.791  1.0575  0.0647 -0.1638
16760TIP3   OH271770   6.064   0.753  13.460 -0.0641 -0.6444 -0.3862
16760TIP3    H171771   6.104   0.811  13.525  1.9986 -3.4826  1.0139
16760TIP3    H271772   5.980   0.729  13.498 -0.2189  0.1401 -0.2235
16761TIP3   OH271773   6.685   0.454  11.064  0.0703 -0.5292 -0.2358
16761TIP3    H171774   6.659   0.538  11.102  1.2924  0.0494 -0.6650
16761TIP3    H271775   6.722   0.405  11.137 -0.9798 -0.8420  0.0929
16762TIP3   OH271776   4.617   5.817   0.836  0.0415  0.3497  0.0029
16762TIP3    H171777   4.665   5.802   0.754  0.7636  0.5294  0.3866
16762TIP3    H271778   4.686   5.823   0.902 -0.6600 -3.0634  1.1240
16763TIP3   OH271779   5.015   1.469   3.898 -0.0569 -0.0210 -0.6924
16763TIP3    H171780   5.029   1.517   3.816  0.7298 -0.4955 -0.8387
16763TIP3    H271781   4.993   1.380   3.871  0.7581 -0.3243 -0.3913
16764TIP3   OH271782   6.686   5.070   6.711 -0.8565 -0.3646 -0.9229
16764TIP3    H171783   6.600   5.031   6.695  0.1466 -2.6804 -0.8515
16764TIP3    H271784   6.668   5.164   6.719 -3.2208 -0.6794 -1.9769
16765TIP3   OH271785   3.726   1.545  15.334 -0.2004 -0.1307  0.2008
16765TIP3    H171786   3.814   1.562  15.301 -0.5991  0.5110 -0.5468
16765TIP3    H271787   3.711   1.613  15.400 -0.3702  0.1444 -0.1187
16766TIP3   OH271788   5.399   6.088   5.158 -0.1122  0.2565  0.1965
16766TIP3    H171789   5.341   6.133   5.096 -1.6501 -0.3863  1.1285
16766TIP3    H271790   5.362   6.108   5.244 -0.4441 -2.2340  0.6573
16767TIP3   OH271791   3.367   1.029   4.284  0.1199  0.3358  0.0508
16767TIP3    H171792   3.297   1.044   4.221 -1.6227  0.3408  1.9345
16767TIP3    H271793   3.365   1.105   4.341  0.2204 -0.6801  1.4296
16768TIP3   OH271794   6.450   3.818   3.922  0.6389  0.3992  0.0406
16768TIP3    H171795   6.526   3.876   3.915  0.3545  0.5687 -1.7509
16768TIP3    H271796   6.477   3.737   3.879 -0.7638  1.0476 -2.1119
16769TIP3   OH271797   1.779   0.323  16.218  0.3453 -0.1027 -0.1967
16769TIP3    H171798   1.785   0.256  16.286 -0.0344  1.3317  1.2619
16769TIP3    H271799   1.858   0.309  16.165  2.8460  1.3015  2.9312
16770TIP3   OH271800   6.542   6.146  17.100 -0.1256 -0.1290  0.3026
16770TIP3    H171801   6.602   6.076  17.122 -0.4292 -0.7260 -0.7127
16770TIP3    H271802   6.563   6.217  17.161  0.5294 -0.9094  0.9859
16771TIP3   OH271803   6.591   3.368  15.829 -0.0028 -0.1824  0.9675
16771TIP3    H171804   6.683   3.394  15.828  0.2863 -1.0167  2.9701
16771TIP3    H271805   6.593   3.273  15.815 -0.8251  0.2524 -2.5952
16772TIP3   OH271806   6.363   3.963   2.267 -0.2178  0.1326 -0.4803
16772TIP3    H171807   6.428   4.025   2.302 -1.3230  0.3894  1.1673
16772TIP3    H271808   6.393   3.877   2.296 -0.1992  0.1708 -0.3873
16773TIP3   OH271809   4.392   1.529   5.468 -0.0991  0.0312  0.0544
16773TIP3    H171810   4.442   1.499   5.392  0.0349  0.1737  0.0849
16773TIP3    H271811   4.433   1.484   5.543 -0.1264  0.0163  0.0602
16774TIP3   OH271812   1.378   5.608  10.910 -0.1395 -0.2016 -0.5164
16774TIP3    H171813   1.394   5.522  10.870  0.3074 -0.7411  0.7997
16774TIP3    H271814   1.462   5.631  10.951  0.0974  1.4185 -1.8923
16775TIP3   OH271815   1.578   1.031  10.976  0.1472  0.2991 -0.2663
16775TIP3    H171816   1.549   1.099  10.914 -0.0140 -1.1678 -1.8278
16775TIP3    H271817   1.557   0.949  10.932 -2.1226 -0.8054  2.7835
16776TIP3   OH271818   4.306   5.858   2.333  0.2303 -0.4280 -0.0162
16776TIP3    H171819   4.347   5.783   2.290 -0.6717 -0.7208 -0.3749
16776TIP3    H271820   4.248   5.895   2.266 -0.3001 -0.1866  0.5702
16777TIP3   OH271821   0.953   1.856  14.994 -0.0611 -0.0337  0.1944
16777TIP3    H171822   0.901   1.778  15.013  0.0296 -0.2699 -0.5160
16777TIP3    H271823   0.894   1.929  15.012  0.2401 -0.2307  2.0324
16778TIP3   OH271824   6.149   1.939  16.551 -0.1332 -0.1859 -0.3148
16778TIP3    H171825   6.055   1.943  16.569 -0.0433 -1.0952  0.3954
16778TIP3    H271826   6.185   1.892  16.626  0.9421  0.5069 -0.3998
16779TIP3   OH271827   0.656   5.218  11.428 -0.1345  0.3840  0.1592
16779TIP3    H171828   0.598   5.179  11.363  2.2959 -4.6542  0.7730
16779TIP3    H271829   0.740   5.226  11.383  0.0610  2.6654  0.8742
16780TIP3   OH271830   0.898   3.001   4.887 -0.5718 -0.0963  0.3071
16780TIP3    H171831   0.811   3.041   4.894 -1.1658 -1.4328  0.5304
16780TIP3    H271832   0.940   3.051   4.816 -1.4401  0.6819  0.3205
16781TIP3   OH271833   5.149   1.489   5.778  0.2223 -0.0130 -0.2396
16781TIP3    H171834   5.230   1.504   5.827  1.4557 -1.7048 -1.7214
16781TIP3    H271835   5.080   1.500   5.843  1.6901  0.1944  1.3331
16782TIP3   OH271836   6.687   1.918   4.966 -0.3752  0.2869 -0.1497
16782TIP3    H171837   6.680   1.985   5.033 -0.7901  0.9189 -0.8188
16782TIP3    H271838   6.685   1.835   5.015 -0.3442  0.7460  0.6343
16783TIP3   OH271839   2.843   6.522  10.671 -0.7767  0.1224 -0.0310
16783TIP3    H171840   2.762   6.490  10.713 -0.0638 -0.6330  0.7985
16783TIP3    H271841   2.887   6.442  10.641 -0.0811  0.4876  0.0139
16784TIP3   OH271842   0.848   1.246   0.924  0.2351  0.4574 -0.4242
16784TIP3    H171843   0.787   1.304   0.968  1.8905  1.0540  1.1462
16784TIP3    H271844   0.825   1.158   0.955 -0.4819  0.5579 -0.6612
16785TIP3   OH271845   1.613   0.340  13.336 -0.2023 -0.6526  0.1534
16785TIP3    H171846   1.600   0.338  13.242  0.4685 -0.2522  0.0525
16785TIP3    H271847   1.702   0.373  13.348 -0.8455  0.8645  0.9587
16786TIP3   OH271848   5.661   0.112  12.593 -0.5972 -0.0832 -0.7380
16786TIP3    H171849   5.688   0.047  12.529 -2.1029 -2.1048  0.5918
16786TIP3    H271850   5.655   0.063  12.675  1.5443  2.4895  1.0257
16787TIP3   OH271851   1.991   4.633   5.531 -0.0099  0.2767  0.3315
16787TIP3    H171852   2.083   4.646   5.555 -0.4259  0.6933  1.7163
16787TIP3    H271853   1.944   4.634   5.614 -1.3048  0.3037 -0.3937
16788TIP3   OH271854   4.142   0.843   1.377  0.0517 -0.1220  0.4664
16788TIP3    H171855   4.112   0.871   1.290 -2.2947 -0.1087  1.2484
16788TIP3    H271856   4.232   0.872   1.382 -0.2231  1.1310 -1.4377
16789TIP3   OH271857   4.775   1.802  11.274  0.3292 -0.0860  0.1226
16789TIP3    H171858   4.869   1.792  11.289  0.6058 -1.3066 -2.1298
16789TIP3    H271859   4.757   1.893  11.294  1.5920 -0.3153  2.5077
16790TIP3   OH271860   4.474   6.059  12.754 -0.2173 -0.2548  0.2806
16790TIP3    H171861   4.529   6.133  12.780 -0.5989  0.2988 -0.4840
16790TIP3    H271862   4.529   6.007  12.696 -0.2580 -0.0775  0.0818
16791TIP3   OH271863   3.768   4.931  14.684 -0.3762 -1.0045 -0.2188
16791TIP3    H171864   3.841   4.875  14.709 -0.4141 -0.5742  0.9098
16791TIP3    H271865   3.804   4.991  14.619  0.8602  0.5684  1.8153
16792TIP3   OH271866   1.967   4.928   4.509 -0.8239  0.7887  0.3379
16792TIP3    H171867   1.904   4.914   4.580  0.9008 -1.1468  1.5567
16792TIP3    H271868   1.923   4.893   4.431 -2.0073  1.2297  0.7913
16793TIP3   OH271869   1.053   6.554  14.846 -0.0781 -0.9383 -0.1905
16793TIP3    H171870   1.132   6.581  14.798  0.0492 -1.8741 -0.5263
16793TIP3    H271871   1.030   6.630  14.899  1.8842 -1.1155  0.9994
16794TIP3   OH271872   3.624   2.410   3.357 -0.5302 -0.3100  0.9315
16794TIP3    H171873   3.602   2.414   3.264 -0.9069 -0.5500  1.0060
16794TIP3    H271874   3.547   2.369   3.397  0.3681 -1.8651  1.1065
16795TIP3   OH271875   1.835   5.634   2.968 -0.0627  0.0612 -0.1997
16795TIP3    H171876   1.856   5.694   3.040  1.2501  1.5155 -1.7610
16795TIP3    H271877   1.874   5.551   2.994  1.4776  0.8938  0.1922
16796TIP3   OH271878   0.197   3.028  14.102 -0.4753 -0.0714 -0.0349
16796TIP3    H171879   0.261   2.977  14.053  1.7190  2.7227 -0.2337
16796TIP3    H271880   0.186   2.981  14.185  1.4715 -0.8574 -0.2080
16797TIP3   OH271881   6.578   0.267   5.629  0.1985 -0.4453 -0.1045
16797TIP3    H171882   6.512   0.202   5.605 -0.6862  1.1282 -2.0560
16797TIP3    H271883   6.606   0.305   5.546  3.7898 -1.2270  0.6569
16798TIP3   OH271884   1.217   3.475  16.177  0.7900  0.4327  0.4579
16798TIP3    H171885   1.159   3.511  16.243  0.5464  1.5044 -0.3183
16798TIP3    H271886   1.264   3.552  16.142 -1.6432  0.4267 -3.0854
16799TIP3   OH271887   3.699   4.503   4.438  0.2186 -0.1384 -0.1267
16799TIP3    H171888   3.763   4.555   4.488 -1.1255  1.6121 -0.1510
16799TIP3    H271889   3.744   4.421   4.420  1.5946  0.0960  1.9572
16800TIP3   OH271890   2.840   2.240  15.666 -0.4792 -0.1952  0.4116
16800TIP3    H171891   2.900   2.315  15.664  1.5981 -1.8608 -0.5705
16800TIP3    H271892   2.766   2.267  15.611  0.4531  0.9728 -0.2938
16801TIP3   OH271893   1.936   4.200   2.911 -0.5086  0.4459  0.2303
16801TIP3    H171894   1.959   4.225   3.000 -0.3876  0.0625  0.3055
16801TIP3    H271895   1.995   4.129   2.889 -0.3824  0.6890 -0.2415
16802TIP3   OH271896   1.701   4.622  14.427 -0.1141  0.2104  0.6545
16802TIP3    H171897   1.735   4.689  14.368  0.3175 -1.9710 -1.6320
16802TIP3    H271898   1.741   4.642  14.512  0.9085  2.1450 -0.2533
16803TIP3   OH271899   3.183   1.482   3.378 -0.6164  0.0172  0.4078
16803TIP3    H171900   3.160   1.491   3.286 -1.9458 -1.8071  0.5179
16803TIP3    H271901   3.268   1.438   3.377 -1.5641 -1.8632  0.0358
16804TIP3   OH271902   2.721   5.159  11.866  0.1294 -0.2590  0.5823
16804TIP3    H171903   2.630   5.154  11.837 -0.2733 -1.5716  1.9505
16804TIP3    H271904   2.761   5.078  11.834  1.3845  1.2722 -1.7936
16805TIP3   OH271905   0.470   4.096   4.005  0.0800  0.3438  0.4317
16805TIP3    H171906   0.543   4.060   4.056 -0.0067  1.9592  1.7528
16805TIP3    H271907   0.392   4.070   4.053 -0.1858 -0.8688 -0.6516
16806TIP3   OH271908   6.188   1.474  12.666  0.1796  0.2663 -0.1328
16806TIP3    H171909   6.173   1.519  12.583  2.1728 -0.7586 -1.0948
16806TIP3    H271910   6.263   1.520  12.705 -0.8712  0.8787  1.2327
16807TIP3   OH271911   5.341   5.273   1.469  0.3585  0.2791  0.2093
16807TIP3    H171912   5.344   5.237   1.380 -0.0905 -0.7724  0.6171
16807TIP3    H271913   5.254   5.251   1.501  1.2937 -1.3403  1.7378
16808TIP3   OH271914   1.874   6.659   3.037  0.4473 -0.1299  0.3502
16808TIP3    H171915   1.808   6.633   2.973 -1.0089 -0.1258  1.8310
16808TIP3    H271916   1.918   6.577   3.061  0.4963 -0.2334 -0.0889
16809TIP3   OH271917   5.221   1.203  14.325  0.1803 -0.7559  0.1143
16809TIP3    H171918   5.303   1.242  14.355 -0.7068  1.1944  0.1012
16809TIP3    H271919   5.155   1.233  14.388 -0.9234 -0.2749 -1.2224
16810TIP3   OH271920   4.238   3.053  16.814  0.4023 -0.4891  0.1772
16810TIP3    H171921   4.307   2.987  16.823  1.9894  1.0628 -0.2790
16810TIP3    H271922   4.213   3.049  16.722  1.7406  0.7237 -0.2568
16811TIP3   OH271923   3.819   5.419  16.751  0.3469 -0.6061  0.3720
16811TIP3    H171924   3.725   5.440  16.748  0.2047 -1.1442  0.9962
16811TIP3    H271925   3.860   5.490  16.703 -0.2547  0.4124  1.3389
16812TIP3   OH271926   0.945   6.340  16.561  0.0951 -0.3585  0.7799
16812TIP3    H171927   0.964   6.422  16.605  1.0552  0.4655 -1.1197
16812TIP3    H271928   0.852   6.345  16.539 -0.4549 -0.8823  2.8606
16813TIP3   OH271929   0.819   5.643  13.504 -0.9766 -0.1203  0.0994
16813TIP3    H171930   0.811   5.695  13.424 -0.6184 -1.3756 -0.7759
16813TIP3    H271931   0.864   5.700  13.566 -0.7975  0.6946 -0.7645
16814TIP3   OH271932   0.483   0.401   5.208  0.0629 -0.4659  0.1713
16814TIP3    H171933   0.549   0.332   5.202 -0.3020 -0.9151  1.2155
16814TIP3    H271934   0.444   0.405   5.121  3.1579  1.5278 -1.2195
16815TIP3   OH271935   5.425   4.720   2.412 -0.2417  0.4656  0.2729
16815TIP3    H171936   5.357   4.762   2.359  0.6649  0.1140 -1.1859
16815TIP3    H271937   5.503   4.772   2.396  0.5442 -0.9198 -0.4109
16816TIP3   OH271938   4.240   3.875  13.313 -0.6084 -0.2760  0.0264
16816TIP3    H171939   4.192   3.808  13.361 -0.3189 -0.4430  0.0816
16816TIP3    H271940   4.177   3.946  13.301 -0.7907 -0.3880  0.3292
16817TIP3   OH271941   2.182   5.881  12.969 -0.0851 -0.0586  0.2133
16817TIP3    H171942   2.165   5.861  12.877 -0.4792  1.0282  0.0387
16817TIP3    H271943   2.095   5.886  13.008  0.1179 -1.3515  0.8243
16818TIP3   OH271944   4.160   5.924   0.641  0.1923  0.0830  0.0374
16818TIP3    H171945   4.232   5.950   0.699 -0.6509  1.5747  0.4597
16818TIP3    H271946   4.108   5.864   0.694 -1.2384  2.3617  1.3244
16819TIP3   OH271947   4.200   4.343  16.182  0.2967 -0.4072  0.8116
16819TIP3    H171948   4.185   4.290  16.104 -0.6500  0.3089  0.4873
16819TIP3    H271949   4.272   4.401  16.158  0.4788 -0.6688  0.7228
16820TIP3   OH271950   6.790   0.801   4.320 -0.2607 -0.3840  0.1985
16820TIP3    H171951   6.805   0.862   4.392  1.3039 -1.2156  0.6164
16820TIP3    H271952   6.754   0.723   4.361 -1.2883 -0.1156 -0.1926
16821TIP3   OH271953   0.861   5.082  13.706  0.5129 -0.4693  0.4005
16821TIP3    H171954   0.917   5.083  13.628  0.1312 -1.4829  0.0939
16821TIP3    H271955   0.785   5.134  13.682  0.5571 -0.4920  0.2109
16822TIP3   OH271956   0.552   1.080   1.487  0.2041 -0.3292 -0.4690
16822TIP3    H171957   0.581   1.099   1.398 -1.7720 -1.4155 -1.3702
16822TIP3    H271958   0.549   0.984   1.491 -0.9199 -0.2610  0.3701
16823TIP3   OH271959   3.823   4.886  15.962 -0.4342 -0.2144  0.1066
16823TIP3    H171960   3.898   4.834  15.990 -1.6669 -3.2431 -1.9531
16823TIP3    H271961   3.784   4.919  16.043  0.9094 -1.7787  1.4158
16824TIP3   OH271962   6.630   6.614  16.040  0.6613  0.3499 -0.0342
16824TIP3    H171963   6.696   6.571  16.094 -0.3837 -0.5325  0.5591
16824TIP3    H271964   6.565   6.646  16.103 -0.8035 -1.0928 -0.7789
16825TIP3   OH271965   5.026   6.495  14.156 -0.6726  0.9407 -0.1258
16825TIP3    H171966   5.093   6.492  14.225 -1.1841 -0.0819  0.3417
16825TIP3    H271967   5.075   6.514  14.076  0.6203 -2.6188 -0.2799
16826TIP3   OH271968   2.514   2.213   1.599  0.4367 -0.4118 -0.1820
16826TIP3    H171969   2.434   2.230   1.549  0.7313 -0.8855 -0.8145
16826TIP3    H271970   2.585   2.248   1.545  0.5493  1.1337  0.9474
16827TIP3   OH271971   6.437   3.442   3.414 -0.1375  0.9574  0.1307
16827TIP3    H171972   6.518   3.395   3.433  0.7659  1.6977 -1.7000
16827TIP3    H271973   6.452   3.482   3.328 -2.2551  1.5442 -0.0081
16828TIP3   OH271974   4.017   5.888  10.724  0.6061 -0.0722  0.3708
16828TIP3    H171975   4.083   5.821  10.742  0.8838 -0.0066 -0.3583
16828TIP3    H271976   4.030   5.909  10.631  1.4347  1.9820  0.9186
16829TIP3   OH271977   2.208   5.811  15.878 -0.0963  0.7411 -0.0170
16829TIP3    H171978   2.207   5.723  15.840  0.6571  1.0298 -0.7114
16829TIP3    H271979   2.121   5.846  15.860 -0.2834  0.2624 -0.0400
16830TIP3   OH271980   2.014   5.258   2.778  0.0882  0.4798  0.3621
16830TIP3    H171981   1.970   5.324   2.725 -0.0490 -0.6373 -0.9439
16830TIP3    H271982   2.094   5.301   2.809 -0.9629  1.8918  1.1858
16831TIP3   OH271983   0.807   0.763   3.704  0.5471  0.2033 -0.3380
16831TIP3    H171984   0.744   0.722   3.763  0.9563  0.9049  0.5886
16831TIP3    H271985   0.754   0.790   3.629 -0.2042  0.5046  0.2873
16832TIP3   OH271986   3.620   6.421  10.758  0.1605 -0.1558  0.4315
16832TIP3    H171987   3.702   6.470  10.756 -0.0458  0.1720 -1.8846
16832TIP3    H271988   3.640   6.339  10.713 -1.1423  0.5868 -1.5965
16833TIP3   OH271989   6.355   0.981  11.952  0.2484 -0.2930  0.6889
16833TIP3    H171990   6.390   0.903  11.909 -1.9052 -1.6390  1.2683
16833TIP3    H271991   6.333   1.040  11.880 -0.6363 -1.3501  0.0673
16834TIP3   OH271992   5.032   1.227  14.823  0.2682  0.1719 -0.7701
16834TIP3    H171993   5.041   1.321  14.840 -0.2281  0.1670 -0.4556
16834TIP3    H271994   5.058   1.185  14.905 -0.4916  0.0818 -0.5646
16835TIP3   OH271995   6.092   2.532  16.716  0.3409 -0.0651 -0.8964
16835TIP3    H171996   6.028   2.595  16.684 -1.6683 -0.7940  1.5840
16835TIP3    H271997   6.077   2.454  16.661  0.4271  0.4149 -1.6073
16836TIP3   OH271998   4.488   2.648   5.331 -0.6248 -1.0343  0.1814
16836TIP3    H171999   4.579   2.620   5.332 -0.5022 -0.6508  2.3130
16836TIP3    H272000   4.486   2.724   5.389 -1.7806  0.6940 -2.0651
16837TIP3   OH272001   5.059   0.437  16.784 -0.5287  0.0329  0.1177
16837TIP3    H172002   5.091   0.473  16.867  0.9223 -0.8289 -0.0572
16837TIP3    H272003   5.027   0.513  16.736 -1.3051  0.5479  1.4318
16838TIP3   OH272004   2.400   4.483   5.229 -0.8648 -0.0620  0.0725
16838TIP3    H172005   2.378   4.391   5.210 -1.6063 -0.2480  1.7464
16838TIP3    H272006   2.478   4.478   5.285 -1.0167  0.3246  0.3207
16839TIP3   OH272007   3.256   0.489   4.727 -0.0487  0.4271  0.4422
16839TIP3    H172008   3.313   0.542   4.671 -0.9944  0.5695 -0.3951
16839TIP3    H272009   3.245   0.542   4.806  1.6510  0.0324  0.9744
16840TIP3   OH272010   6.616   5.721   2.934  0.2396 -0.0959  0.6718
16840TIP3    H172011   6.619   5.645   2.876 -2.6868  0.1407  0.1163
16840TIP3    H272012   6.685   5.705   2.998  1.2782 -2.0222 -0.8725
16841TIP3   OH272013   5.161   4.567   3.810  0.1455 -0.3234  0.0076
16841TIP3    H172014   5.214   4.589   3.734  0.9608  0.1643  0.7086
16841TIP3    H272015   5.098   4.502   3.778 -0.4533  0.9502 -1.4019
16842TIP3   OH272016   0.764   6.397  11.749 -0.4928  0.4582  0.5221
16842TIP3    H172017   0.798   6.401  11.838 -0.5692 -0.9389  0.6244
16842TIP3    H272018   0.838   6.363  11.697 -1.0862 -0.7230  0.4196
16843TIP3   OH272019   4.282   0.896   5.388 -0.5799  0.2858  0.0558
16843TIP3    H172020   4.262   0.980   5.347 -1.4452  0.4496  0.7824
16843TIP3    H272021   4.374   0.902   5.412 -0.5650  0.9161 -0.1589
16844TIP3   OH272022   2.880   6.717   2.469  0.0338  0.0682  0.0719
16844TIP3    H172023   2.832   6.703   2.387 -1.3011  1.0467  0.6837
16844TIP3    H272024   2.914   6.806   2.462 -0.7815  0.4525  0.9316
16845TIP3   OH272025   5.854   1.609  13.427 -0.3377  0.4413 -0.4439
16845TIP3    H172026   5.920   1.596  13.495 -0.4241  0.9705 -0.2500
16845TIP3    H272027   5.902   1.605  13.345 -0.2342 -0.2228 -0.3534
16846TIP3   OH272028   4.890   5.356   0.727  0.2364 -0.2854 -0.2408
16846TIP3    H172029   4.950   5.305   0.672  0.5393  0.1038 -0.2710
16846TIP3    H272030   4.821   5.385   0.667 -0.7704 -1.9360  0.0639
16847TIP3   OH272031   1.624   3.023  15.413  0.5168  0.3507  0.1326
16847TIP3    H172032   1.597   3.092  15.474  0.0438  1.4304 -1.2663
16847TIP3    H272033   1.681   3.069  15.350 -0.8462 -0.2535 -1.5723
16848TIP3   OH272034   0.701   5.699  12.234  0.1796  0.2090 -0.7140
16848TIP3    H172035   0.715   5.618  12.283 -0.1411 -0.5894 -1.9158
16848TIP3    H272036   0.758   5.763  12.277  0.1284 -0.5396  0.5058
16849TIP3   OH272037   2.273   1.796   2.836 -0.2550  0.1604 -0.1050
16849TIP3    H172038   2.286   1.877   2.788 -0.6649  0.0998 -0.3164
16849TIP3    H272039   2.183   1.770   2.817 -0.4538  0.1827  0.7692
16850TIP3   OH272040   0.700   6.545  12.261 -0.3776 -0.3313 -0.6257
16850TIP3    H172041   0.748   6.589  12.331  0.9845  0.2546 -1.8819
16850TIP3    H272042   0.682   6.458  12.296 -0.6035  0.2777  0.8226
16851TIP3   OH272043   0.706   1.711   4.029 -0.2854  0.2785 -0.0779
16851TIP3    H172044   0.629   1.744   3.983  0.1442 -0.0562 -1.0452
16851TIP3    H272045   0.765   1.786   4.033 -0.5264  0.4477  0.3868
16852TIP3   OH272046   4.475   4.008   0.757  0.0786 -0.3752 -0.2942
16852TIP3    H172047   4.453   3.950   0.830  1.7427 -0.1015  0.4498
16852TIP3    H272048   4.394   4.056   0.739 -0.9726 -2.0278 -0.1069
16853TIP3   OH272049   4.675   5.909  11.308  0.4102 -0.1286  0.5369
16853TIP3    H172050   4.697   5.983  11.251 -1.8601  0.9633  1.0188
16853TIP3    H272051   4.711   5.933  11.394  0.3507  0.0499  0.5121
16854TIP3   OH272052   0.641   6.765  14.846 -0.3168  0.4687 -0.4273
16854TIP3    H172053   0.636   6.798  14.935 -1.8008 -0.1948 -0.2509
16854TIP3    H272054   0.648   6.670  14.856  3.7883  0.6247 -0.9290
16855TIP3   OH272055   3.617   3.416   6.393  0.2678  0.1719  0.0238
16855TIP3    H172056   3.656   3.397   6.479 -1.5901  0.1137  0.8829
16855TIP3    H272057   3.601   3.510   6.395  0.9487  0.3001 -0.5749
16856TIP3   OH272058   3.754   3.668  11.017  0.4364 -0.9045  0.3140
16856TIP3    H172059   3.768   3.669  10.923 -2.1074  1.4531 -0.0915
16856TIP3    H272060   3.667   3.629  11.029  0.1151  0.1466  1.5727
16857TIP3   OH272061   4.070   4.159  13.516 -0.1149  0.2663 -0.0947
16857TIP3    H172062   4.063   4.100  13.441 -2.6121  1.9455 -1.2551
16857TIP3    H272063   4.103   4.241  13.479  0.6674  0.4701  1.0164
16858TIP3   OH272064   5.138   5.875   1.154 -0.0539  0.1513 -0.2280
16858TIP3    H172065   5.126   5.921   1.071  0.8560 -0.2088 -0.5648
16858TIP3    H272066   5.052   5.880   1.197 -0.5550  0.2528 -1.2296
16859TIP3   OH272067   5.174   6.250  14.543 -0.0384 -0.0002  0.3709
16859TIP3    H172068   5.260   6.226  14.577  0.3190 -0.6254 -0.9827
16859TIP3    H272069   5.191   6.324  14.484 -0.3908 -0.3639 -0.1828
16860TIP3   OH272070   4.320   0.047  13.529 -0.5243  0.0045  0.0410
16860TIP3    H172071   4.324   0.133  13.570  0.7788  0.7068 -1.4738
16860TIP3    H272072   4.405   0.038  13.486 -1.1054 -1.5343 -0.8140
16861TIP3   OH272073   4.653   5.136  12.103  0.3734  0.5643 -0.4208
16861TIP3    H172074   4.735   5.127  12.055  0.8618  0.6767  0.3900
16861TIP3    H272075   4.599   5.193  12.047 -0.1095 -1.5448 -2.1651
16862TIP3   OH272076   1.650   0.221   4.739 -0.0339 -0.0288 -0.0899
16862TIP3    H172077   1.653   0.315   4.724  1.0594 -0.2905 -1.5876
16862TIP3    H272078   1.740   0.192   4.729  0.1898 -0.7978  3.4990
16863TIP3   OH272079   2.475   1.045  11.680 -0.4318 -0.6908 -0.1012
16863TIP3    H172080   2.484   1.108  11.609 -1.4617 -2.0376 -1.4687
16863TIP3    H272081   2.472   1.098  11.760  3.0039  0.7178 -0.8482
16864TIP3   OH272082   4.309   0.126  11.308  0.1185  0.1315 -0.0589
16864TIP3    H172083   4.279   0.138  11.398  0.1077 -1.0914  0.1064
16864TIP3    H272084   4.348   0.211  11.284 -0.0376  0.5144  1.0249
16865TIP3   OH272085   2.071   2.212   1.588  0.0342  0.0081  0.2508
16865TIP3    H172086   2.102   2.142   1.531  0.2856  1.2279 -1.1224
16865TIP3    H272087   1.975   2.211   1.577 -0.2751 -2.0546  2.5290
16866TIP3   OH272088   4.892   6.277  14.263 -0.5646  0.0047  0.2047
16866TIP3    H172089   4.870   6.335  14.336 -0.5152 -0.6030  0.7059
16866TIP3    H272090   4.944   6.331  14.203  0.1080  0.2713  1.0227
16867TIP3   OH272091   1.313   0.647  12.795  0.2263  0.0139  0.2237
16867TIP3    H172092   1.336   0.719  12.736 -1.3252 -1.6685 -2.5263
16867TIP3    H272093   1.396   0.625  12.838  1.7683  0.3439 -2.4280
16868TIP3   OH272094   4.856   4.647  12.362 -0.3400 -0.0341  0.0408
16868TIP3    H172095   4.900   4.687  12.286 -0.4519  0.2851  0.1430
16868TIP3    H272096   4.874   4.554  12.353  0.7193  0.1352  0.3109
16869TIP3   OH272097   2.761   5.107  13.029 -1.0232 -0.1550  0.5116
16869TIP3    H172098   2.775   5.120  12.935 -0.7695  0.0369  0.5752
16869TIP3    H272099   2.716   5.186  13.058 -0.7367 -0.0351  0.6288
16870TIP3   OH272100   1.155   4.726  15.587  0.3516 -0.3277  0.2185
16870TIP3    H172101   1.248   4.747  15.581 -0.1272  1.3670 -2.1606
16870TIP3    H272102   1.137   4.721  15.680  3.0031 -1.5473  0.7148
16871TIP3   OH272103   2.689   0.836  10.917  0.0998 -0.4023 -0.2104
16871TIP3    H172104   2.689   0.848  10.822  1.4615  0.5712 -0.1088
16871TIP3    H272105   2.736   0.912  10.951 -0.8391 -0.4723  1.2912
16872TIP3   OH272106   2.477   5.885  12.178 -0.7687 -0.3624  0.0630
16872TIP3    H172107   2.536   5.818  12.142  0.3340  1.1621 -1.0028
16872TIP3    H272108   2.529   5.932  12.242 -1.4497 -0.3146  0.5874
16873TIP3   OH272109   4.453   0.549   2.296 -0.0451 -0.3402 -0.6162
16873TIP3    H172110   4.409   0.480   2.247  0.6371  0.4315 -2.3511
16873TIP3    H272111   4.396   0.626   2.285  1.0979  0.3448 -1.8685
16874TIP3   OH272112   1.442   3.770  11.944 -0.0541 -0.1883  0.2598
16874TIP3    H172113   1.478   3.835  11.884 -2.4090 -0.8579 -1.9942
16874TIP3    H272114   1.441   3.813  12.030  2.3859  1.1674 -0.3599
16875TIP3   OH272115   1.321   5.822  12.484 -0.0900  0.3016  0.2866
16875TIP3    H172116   1.229   5.845  12.469 -0.4695  0.7521  2.9772
16875TIP3    H272117   1.322   5.789  12.574  2.7708  2.5460  1.1480
16876TIP3   OH272118   2.351   5.375  12.360  0.4043 -0.3008 -0.5892
16876TIP3    H172119   2.334   5.445  12.297  0.9058  0.2068 -0.1609
16876TIP3    H272120   2.411   5.316  12.314 -1.2519 -1.2905 -1.5348
16877TIP3   OH272121   1.592   6.473  11.772 -0.7817  0.1327 -0.5547
16877TIP3    H172122   1.553   6.407  11.830 -1.8314  0.2051 -1.1594
16877TIP3    H272123   1.553   6.555  11.800  2.0091  0.8123  1.4896
16878TIP3   OH272124   4.746   2.077  14.891  0.5284  0.0105 -0.2379
16878TIP3    H172125   4.828   2.077  14.842 -0.8646 -0.0017 -2.6420
16878TIP3    H272126   4.742   2.164  14.931  1.5830  0.1033 -0.3255
16879TIP3   OH272127   5.784   3.020   2.315  0.1208 -0.2516 -0.8533
16879TIP3    H172128   5.724   2.970   2.259 -0.5326 -0.2422 -0.1752
16879TIP3    H272129   5.779   2.976   2.400 -0.9023  1.3232 -0.0837
16880TIP3   OH272130   6.648   6.192   6.539  0.0983 -0.3907 -0.0278
16880TIP3    H172131   6.738   6.222   6.528  0.4152 -1.5170 -0.5713
16880TIP3    H272132   6.643   6.111   6.487 -1.0274 -0.7082  0.5603
16881TIP3   OH272133   3.825   5.693  10.448  0.3359 -0.5233  0.1661
16881TIP3    H172134   3.828   5.770  10.391 -0.0208 -0.9148 -0.3867
16881TIP3    H272135   3.888   5.632  10.411 -0.8392 -1.3053 -0.5936
16882TIP3   OH272136   5.093   3.210  15.521  0.0567  0.1779  0.0085
16882TIP3    H172137   5.145   3.239  15.446  0.1802  0.1749  0.0912
16882TIP3    H272138   5.136   3.251  15.597  0.4375 -0.5021  0.1648
16883TIP3   OH272139   6.422   4.448   1.397 -0.0933 -0.5639  0.0827
16883TIP3    H172140   6.473   4.454   1.478 -0.7646  1.4898  0.3786
16883TIP3    H272141   6.479   4.484   1.330  0.2752 -1.8170 -0.2945
16884TIP3   OH272142   6.817   1.730   4.765  0.0035  0.3034 -0.2583
16884TIP3    H172143   6.904   1.711   4.799  0.2495  1.1436 -0.4119
16884TIP3    H272144   6.794   1.815   4.802 -0.9385 -0.1109  0.1325
16885TIP3   OH272145   6.224   4.144  11.178 -0.1687 -0.0624  0.4061
16885TIP3    H172146   6.317   4.135  11.198 -0.0305  0.5524  0.0740
16885TIP3    H272147   6.200   4.229  11.216 -0.1626  0.6082 -1.0388
16886TIP3   OH272148   1.304   1.146   5.156  0.2918  0.1214  0.2489
16886TIP3    H172149   1.279   1.110   5.071 -0.8683 -1.4482  1.2282
16886TIP3    H272150   1.371   1.210   5.136  1.9554 -2.1300 -1.6166
16887TIP3   OH272151   2.042   3.658   4.021 -0.7979 -0.0257 -0.4124
16887TIP3    H172152   2.114   3.718   4.042 -0.3158 -0.1772 -1.5797
16887TIP3    H272153   2.022   3.615   4.104  0.7085 -0.2570 -0.1440
16888TIP3   OH272154   6.029   4.394  16.431 -0.1244  0.3998  0.2227
16888TIP3    H172155   6.006   4.356  16.516  0.9665  0.4596  0.5605
16888TIP3    H272156   6.102   4.453  16.450 -0.5347  1.1792 -0.6025
16889TIP3   OH272157   1.454   1.370   0.048  0.1666 -0.7986 -0.2314
16889TIP3    H172158   1.484   1.293  -0.001  0.3329 -2.2072  2.0395
16889TIP3    H272159   1.494   1.360   0.134 -0.2096  1.6067  0.2315
16890TIP3   OH272160   6.534   3.112   5.134  0.3232  0.1852  0.0926
16890TIP3    H172161   6.516   3.027   5.173  1.3055  0.0611  0.2784
16890TIP3    H272162   6.475   3.172   5.180 -0.7999 -0.4705 -0.4446
16891TIP3   OH272163   2.121   4.720   2.660 -0.4715  0.2296 -0.6996
16891TIP3    H172164   2.169   4.720   2.577  1.0136  0.4585  0.1335
16891TIP3    H272165   2.060   4.794   2.654 -1.2883 -0.5439 -2.0866
16892TIP3   OH272166   5.855   3.153  13.552  0.0290 -0.2322 -0.1438
16892TIP3    H172167   5.947   3.126  13.556 -0.2944 -1.5958 -1.4355
16892TIP3    H272168   5.855   3.230  13.495  0.2764 -0.6798 -0.7481
16893TIP3   OH272169   5.307   1.665   0.003  0.1264  0.1438  0.2883
16893TIP3    H172170   5.315   1.724  -0.072 -1.7661 -1.5453 -1.2616
16893TIP3    H272171   5.388   1.614   0.002  0.5080  0.7477 -0.0352
16894TIP3   OH272172   5.538   4.150   5.059  0.4082 -0.2850 -0.1897
16894TIP3    H172173   5.539   4.107   4.974  0.8056 -2.2692  0.7881
16894TIP3    H272174   5.542   4.078   5.123 -4.4058  0.8655  1.6410
16895TIP3   OH272175   5.300   5.674  11.175  0.0331 -0.5140 -0.9156
16895TIP3    H172176   5.306   5.708  11.264 -0.5450 -0.5750 -0.8531
16895TIP3    H272177   5.213   5.636  11.169  0.8965 -2.6141 -0.7800
16896TIP3   OH272178   0.881   1.314   3.421 -0.0431  0.0666 -0.2866
16896TIP3    H172179   0.913   1.401   3.446 -0.2906  0.1419 -0.2337
16896TIP3    H272180   0.902   1.258   3.496  0.4903 -0.0129 -0.4861
16897TIP3   OH272181   3.782   4.574  11.227  0.3725 -0.0168 -0.5657
16897TIP3    H172182   3.730   4.516  11.171  0.7705  0.3135 -1.2775
16897TIP3    H272183   3.768   4.540  11.315 -1.4261  0.3687 -0.6939
16898TIP3   OH272184   6.076   6.074  12.977 -0.1812  0.3812  0.8624
16898TIP3    H172185   6.011   6.066  12.907 -1.4336  0.9857  1.9388
16898TIP3    H272186   6.120   6.157  12.960  2.4859 -1.4472 -1.6467
16899TIP3   OH272187   1.843   3.021  15.030  0.1695  0.7422 -0.1494
16899TIP3    H172188   1.833   3.082  15.103  0.1595  1.1697 -0.5061
16899TIP3    H272189   1.893   2.948  15.067 -0.9387  0.3520  0.6344
16900TIP3   OH272190   1.087   6.354   1.015  0.1093 -0.2245  0.2330
16900TIP3    H172191   1.156   6.315   0.961 -1.3142  0.4595 -2.1775
16900TIP3    H272192   1.060   6.432   0.966 -2.0203 -0.1961  1.4010
16901TIP3   OH272193   0.184   5.721  16.497 -0.0210 -0.7875 -0.1579
16901TIP3    H172194   0.155   5.808  16.524 -4.9962 -1.3484 -3.0650
16901TIP3    H272195   0.140   5.661  16.557  0.9399 -1.4243 -0.0795
16902TIP3   OH272196   6.067   6.528  12.911 -0.7731  0.0263  0.2717
16902TIP3    H172197   6.117   6.603  12.943  0.0339  0.0278 -0.9773
16902TIP3    H272198   6.119   6.452  12.938  0.7826  0.0777 -2.4480
16903TIP3   OH272199   3.721   5.939   6.492 -0.4499 -0.0009  0.0871
16903TIP3    H172200   3.811   5.970   6.498 -0.5264  1.1697 -3.5107
16903TIP3    H272201   3.697   5.916   6.582  2.7598  1.5348  1.4084
16904TIP3   OH272202   3.210   2.161   3.977  0.0766  0.0912 -0.2242
16904TIP3    H172203   3.159   2.185   3.900  0.7554  0.8068 -0.4548
16904TIP3    H272204   3.197   2.233   4.038 -0.5382 -0.5213  0.3743
16905TIP3   OH272205   2.180   3.391   2.288  0.6103  0.0548  0.2530
16905TIP3    H172206   2.158   3.416   2.377 -0.3574  0.1638 -0.0049
16905TIP3    H272207   2.172   3.472   2.237 -1.2221 -0.4691 -0.3474
16906TIP3   OH272208   3.416   4.170   4.359  0.1074  0.2689  0.1335
16906TIP3    H172209   3.337   4.127   4.326  0.7769 -0.1789 -0.9025
16906TIP3    H272210   3.481   4.159   4.289  0.2302  3.1943 -0.2886
16907TIP3   OH272211   0.804   6.383   2.054 -0.4202 -0.0347 -1.0035
16907TIP3    H172212   0.766   6.439   2.122 -2.4735 -2.3335 -0.1668
16907TIP3    H272213   0.734   6.373   1.990 -0.4766 -2.4953 -0.5923
16908TIP3   OH272214   1.474   3.745   2.657  0.0847 -0.0358 -0.7355
16908TIP3    H172215   1.422   3.746   2.576 -1.2960 -0.8287  0.1040
16908TIP3    H272216   1.489   3.652   2.674 -0.4876  0.0665  0.4257
16909TIP3   OH272217   3.541   6.110   3.018 -0.1858 -0.8962  0.6835
16909TIP3    H172218   3.577   6.178   2.960 -1.1789 -0.0912  0.9916
16909TIP3    H272219   3.610   6.097   3.084 -0.2788  0.3550  1.0516
16910TIP3   OH272220   2.740   0.368  16.244  0.2193  0.6352  0.4458
16910TIP3    H172221   2.801   0.440  16.259 -1.5073  1.7276  2.5388
16910TIP3    H272222   2.665   0.409  16.201 -0.6681  0.0397  1.4149
16911TIP3   OH272223   1.748   4.233  16.717 -0.1165 -0.9571  0.5060
16911TIP3    H172224   1.841   4.234  16.696  0.1815 -0.8369  1.8027
16911TIP3    H272225   1.734   4.312  16.768 -0.8406 -1.2038  0.6960
16912TIP3   OH272226   6.643   3.828   2.070 -0.2446 -0.2314  0.2562
16912TIP3    H172227   6.641   3.917   2.106  0.3849 -0.1295  0.0379
16912TIP3    H272228   6.682   3.775   2.140 -0.2863 -0.2738  0.2473
16913TIP3   OH272229   5.444   0.085  12.291 -0.3298 -0.0664  0.2710
16913TIP3    H172230   5.510   0.153  12.306  0.3792 -0.9141  1.0641
16913TIP3    H272231   5.430   0.085  12.196  2.6834 -1.5893 -0.2261
16914TIP3   OH272232   6.679   5.389  12.659 -0.1820  0.1566 -0.3720
16914TIP3    H172233   6.704   5.441  12.582  2.2176 -0.1009  0.1888
16914TIP3    H272234   6.759   5.344  12.684 -1.1536 -0.4162  1.8002
16915TIP3   OH272235   5.435   2.424  15.793  1.2537  0.3051 -0.1886
16915TIP3    H172236   5.459   2.394  15.705  1.1263 -0.8379  0.1592
16915TIP3    H272237   5.477   2.361  15.851  0.4734  0.4540  0.5353
16916TIP3   OH272238   4.266   0.862   4.743  0.0486 -0.4046 -0.5420
16916TIP3    H172239   4.302   0.781   4.777  2.8997 -0.2536 -3.0274
16916TIP3    H272240   4.204   0.834   4.675 -0.3006 -0.5186 -0.1811
16917TIP3   OH272241   1.765   5.427   5.764 -0.3552 -0.1745 -0.1409
16917TIP3    H172242   1.699   5.407   5.831 -2.1723  2.9510 -0.9270
16917TIP3    H272243   1.830   5.480   5.810 -1.7082  2.1462 -0.8422
16918TIP3   OH272244   4.158   4.355  17.110  0.2574  0.1739  0.3304
16918TIP3    H172245   4.241   4.378  17.151 -0.0978  1.4023  0.3722
16918TIP3    H272246   4.126   4.437  17.073 -1.1667 -0.1931  0.7210
16919TIP3   OH272247   0.110   6.465   0.536 -0.3135 -0.2216  0.1185
16919TIP3    H172248   0.069   6.550   0.519  1.9709  0.8521 -0.2755
16919TIP3    H272249   0.152   6.476   0.622  2.0415 -0.0995 -1.0039
16920TIP3   OH272250   6.028   5.059  13.893  0.3052  0.8503  0.0607
16920TIP3    H172251   6.095   5.082  13.957  2.5565 -0.4915 -1.7481
16920TIP3    H272252   6.068   5.078  13.808 -1.5091 -0.2276 -1.0587
16921TIP3   OH272253   1.749   6.690   4.706 -0.4462 -0.2714 -0.5320
16921TIP3    H172254   1.668   6.714   4.752  3.4282  3.9713  4.8082
16921TIP3    H272255   1.748   6.744   4.627 -2.8670 -0.3160 -0.5807
16922TIP3   OH272256   2.578   0.068   2.993  0.6245 -0.7438  0.0485
16922TIP3    H172257   2.521   0.052   2.918  0.8922 -0.3866 -0.2325
16922TIP3    H272258   2.582   0.163   3.001  2.6391 -0.6853 -1.0939
16923TIP3   OH272259   2.570   5.983  12.761 -0.0611 -0.3117  0.6400
16923TIP3    H172260   2.588   6.071  12.728 -0.9447  0.1075  1.2789
16923TIP3    H272261   2.482   5.963  12.731 -0.5445 -0.2746  1.9937
16924TIP3   OH272262   2.479   5.878  13.734 -0.0301 -0.3341 -0.4537
16924TIP3    H172263   2.409   5.858  13.796  0.1043  1.1603  0.1922
16924TIP3    H272264   2.559   5.849  13.779 -0.0547 -0.3262 -0.4037
16925TIP3   OH272265   2.155   1.498  15.156 -0.1453 -0.2587  1.2575
16925TIP3    H172266   2.108   1.415  15.168 -0.2147 -0.1685  1.5933
16925TIP3    H272267   2.163   1.534  15.244  2.5254 -1.3252  1.4887
16926TIP3   OH272268   6.059   6.458  11.397  0.4321 -0.5494  0.0239
16926TIP3    H172269   6.140   6.426  11.436 -0.0889 -0.8285  0.8880
16926TIP3    H272270   6.011   6.378  11.373  0.0291 -0.3966  0.3165
16927TIP3   OH272271   4.256   6.002   2.564  0.4014 -0.7348 -0.2713
16927TIP3    H172272   4.237   5.942   2.636 -2.5767  0.0598 -0.3236
16927TIP3    H272273   4.276   5.944   2.490 -1.2919 -1.6902 -0.0168
16928TIP3   OH272274   0.653   2.972  14.384 -0.7960  0.5705  0.2598
16928TIP3    H172275   0.591   2.911  14.343 -2.0503  1.0450  1.4298
16928TIP3    H272276   0.702   2.918  14.445 -1.0895  0.4956  0.4301
16929TIP3   OH272277   5.520   3.972  12.021 -0.2273 -0.6252 -0.3531
16929TIP3    H172278   5.570   3.898  12.056 -1.1922 -0.8172  0.6360
16929TIP3    H272279   5.431   3.957  12.051 -0.0447  2.0329  1.6268
16930TIP3   OH272280   2.174   5.958   4.648  0.0037 -0.2097  0.7333
16930TIP3    H172281   2.236   6.027   4.673 -1.0813  1.0000  0.1259
16930TIP3    H272282   2.223   5.902   4.587  1.1991 -0.5617  1.9938
16931TIP3   OH272283   3.482   6.629   4.337  0.0203 -0.4375  0.2589
16931TIP3    H172284   3.504   6.641   4.429 -1.5993 -0.9518  0.7267
16931TIP3    H272285   3.545   6.565   4.305  2.5143  1.9152  0.2231
16932TIP3   OH272286   6.320   4.571   3.585 -0.1911 -0.1325  0.2561
16932TIP3    H172287   6.368   4.512   3.644 -2.2001 -0.6598  1.4119
16932TIP3    H272288   6.325   4.528   3.500  0.2652 -0.8437  0.6341
16933TIP3   OH272289   2.454   0.371   3.944  0.9564 -0.0190 -0.3572
16933TIP3    H172290   2.403   0.449   3.965 -1.8765 -1.8922 -0.0341
16933TIP3    H272291   2.441   0.359   3.850  0.9283 -0.4248 -0.3006
16934TIP3   OH272292   3.444   4.635  15.474  0.0503  0.4205 -0.3143
16934TIP3    H172293   3.413   4.723  15.450 -2.1006  0.2924  1.8167
16934TIP3    H272294   3.483   4.647  15.561  1.2686 -0.4450 -0.7309
16935TIP3   OH272295   3.162   1.640   0.509  0.0331  0.3444 -0.6366
16935TIP3    H172296   3.185   1.714   0.564  0.7473 -0.7919  0.6093
16935TIP3    H272297   3.226   1.641   0.437  1.2289 -0.1760  0.4069
16936TIP3   OH272298   4.807   4.162  11.374 -0.0257  0.7376  0.4732
16936TIP3    H172299   4.817   4.225  11.302 -0.8828 -0.4592 -0.7033
16936TIP3    H272300   4.862   4.198  11.444 -1.2314  3.3022  0.1679
16937TIP3   OH272301   2.902   3.477   3.244  0.4345  0.5185  0.0338
16937TIP3    H172302   2.933   3.388   3.253  1.6666  1.1057  1.7865
16937TIP3    H272303   2.882   3.506   3.333 -3.1834  0.8864 -0.8095
16938TIP3   OH272304   2.565   0.209   5.347  0.1336  0.4785  0.0950
16938TIP3    H172305   2.649   0.232   5.308  0.0601 -0.5810 -0.7338
16938TIP3    H272306   2.580   0.212   5.442  0.6107  2.0149 -0.0220
16939TIP3   OH272307   2.079   6.154   6.547  0.1691 -0.4917  0.2051
16939TIP3    H172308   2.024   6.215   6.596 -0.8421 -0.6272 -0.7321
16939TIP3    H272309   2.020   6.083   6.523  0.9448 -1.0162 -0.1460
16940TIP3   OH272310   0.282   0.809   3.343  0.1425  0.1370 -0.2675
16940TIP3    H172311   0.366   0.837   3.307  1.4456 -0.6143  2.0615
16940TIP3    H272312   0.282   0.843   3.433 -1.1072 -1.6897  0.4559
16941TIP3   OH272313   5.553   3.190  16.391 -0.1938 -0.3884 -0.7699
16941TIP3    H172314   5.573   3.254  16.322 -3.1419 -0.5273 -1.8549
16941TIP3    H272315   5.483   3.232  16.442  1.7102 -0.4365  1.9606
16942TIP3   OH272316   4.738   6.461  16.121  0.6701 -0.1095 -0.1074
16942TIP3    H172317   4.690   6.434  16.200  0.9016 -0.4714 -0.0883
16942TIP3    H272318   4.823   6.417  16.129 -0.2257 -2.2634 -1.8220
16943TIP3   OH272319   0.465   4.079   2.217 -0.1474 -0.0712 -0.5679
16943TIP3    H172320   0.528   4.021   2.259  1.1287  1.1773 -0.7235
16943TIP3    H272321   0.517   4.132   2.157 -1.0161  2.3030  0.7021
16944TIP3   OH272322   1.333   1.735   0.535  0.2816  0.0163 -0.0340
16944TIP3    H172323   1.409   1.695   0.493 -0.4395 -0.9990 -0.3823
16944TIP3    H272324   1.279   1.766   0.462 -0.8071 -1.4372  0.1403
16945TIP3   OH272325   4.492   1.203   3.438 -0.4791  0.2352  0.0287
16945TIP3    H172326   4.454   1.236   3.519 -0.4266 -0.4873  0.3556
16945TIP3    H272327   4.583   1.233   3.440 -0.0062 -1.1856  1.0569
16946TIP3   OH272328   1.838   2.618   4.073  0.6764  0.0746  0.2459
16946TIP3    H172329   1.871   2.676   4.005  0.2906 -1.6513 -1.4344
16946TIP3    H272330   1.756   2.658   4.101  0.7711  0.7208 -0.4037
16947TIP3   OH272331   2.568   6.104  11.917  0.7613 -0.2277 -0.3789
16947TIP3    H172332   2.487   6.056  11.900 -0.4575  2.4728 -2.8141
16947TIP3    H272333   2.597   6.074  12.003 -1.4500 -3.1161 -0.5738
16948TIP3   OH272334   2.135   6.780   0.237 -0.1445 -0.3087  0.7436
16948TIP3    H172335   2.107   6.709   0.295  0.0376 -0.9084  0.1042
16948TIP3    H272336   2.214   6.747   0.194 -0.0328  0.2977  0.4677
16949TIP3   OH272337   4.705   2.433  13.310 -0.0355 -0.0077 -0.2674
16949TIP3    H172338   4.701   2.338  13.315 -1.6818  0.0681  0.1294
16949TIP3    H272339   4.769   2.451  13.241  1.0763 -1.3719  0.3638
16950TIP3   OH272340   4.270   4.820  14.642  0.3620 -0.1618 -0.4710
16950TIP3    H172341   4.279   4.726  14.628  0.2605 -0.3428  0.6581
16950TIP3    H272342   4.178   4.839  14.622  0.4558 -0.2437 -0.9928
16951TIP3   OH272343   6.769   6.331   4.856 -0.1792 -0.5875  0.6188
16951TIP3    H172344   6.815   6.248   4.849 -3.1854 -2.3014  0.2826
16951TIP3    H272345   6.753   6.358   4.766 -1.0925 -0.7324  0.7371
16952TIP3   OH272346   0.232   2.886  15.160 -0.0516 -0.1398  0.0072
16952TIP3    H172347   0.245   2.840  15.243 -0.0920 -0.5905 -0.2333
16952TIP3    H272348   0.263   2.825  15.093  1.3264  0.7722 -0.2165
16953TIP3   OH272349   3.123   2.715   3.465 -0.7591  1.0764 -0.9930
16953TIP3    H172350   3.085   2.784   3.410 -1.2413  1.5530 -0.0784
16953TIP3    H272351   3.154   2.649   3.403 -0.2972  2.1128 -1.8764
16954TIP3   OH272352   2.844   1.607   0.125  0.5990 -0.2082 -0.0128
16954TIP3    H172353   2.836   1.543   0.054  0.0747  0.2377 -0.3600
16954TIP3    H272354   2.897   1.677   0.087 -2.5859  1.6872 -1.1723
16955TIP3   OH272355   0.130   3.777  16.665 -0.2183 -0.3401 -0.3226
16955TIP3    H172356   0.037   3.792  16.684 -0.2731 -1.8984  0.7542
16955TIP3    H272357   0.174   3.791  16.749  0.2992 -1.2961 -0.4229
16956TIP3   OH272358   2.606   2.907   3.743 -0.2170  0.4438 -0.5225
16956TIP3    H172359   2.564   2.821   3.734 -1.8362  1.3199 -1.7301
16956TIP3    H272360   2.536   2.964   3.776  0.4242  1.6277 -1.1796
16957TIP3   OH272361   4.089   2.531   6.483 -0.4685 -1.2324  0.2003
16957TIP3    H172362   4.105   2.625   6.487  1.9652 -1.6828  1.6567
16957TIP3    H272363   4.111   2.507   6.392 -2.5734 -0.1848 -0.6191
16958TIP3   OH272364   4.784   1.894  10.465  0.1215  0.1477  0.4460
16958TIP3    H172365   4.693   1.921  10.454  0.0955 -0.4151 -0.7062
16958TIP3    H272366   4.824   1.964  10.517 -0.8605  0.6000  0.5863
16959TIP3   OH272367   5.831   0.113  16.105 -0.0536 -0.0141  0.0498
16959TIP3    H172368   5.865   0.026  16.125 -0.5750  0.0121  1.0441
16959TIP3    H272369   5.758   0.097  16.046 -1.4516 -0.3947  1.8511
16960TIP3   OH272370   1.552   0.360   5.943  0.2363 -0.7333  0.4706
16960TIP3    H172371   1.516   0.385   6.028  1.4798 -0.6265  0.9760
16960TIP3    H272372   1.622   0.423   5.926  0.4075 -1.1245 -0.3475
16961TIP3   OH272373   0.334   4.581   3.362 -0.0027  0.0995  0.3090
16961TIP3    H172374   0.368   4.504   3.315 -0.2725  0.2941 -0.2112
16961TIP3    H272375   0.361   4.655   3.307 -0.3355  0.3283  0.4539
16962TIP3   OH272376   0.822   1.877   6.088 -0.0961 -0.1852  0.3006
16962TIP3    H172377   0.900   1.923   6.119  0.1500 -0.9912  0.9019
16962TIP3    H272378   0.767   1.868   6.166  0.0399 -1.2483  0.2912
16963TIP3   OH272379   4.080   4.301  14.284 -0.0222  0.7891 -0.1622
16963TIP3    H172380   4.070   4.213  14.248 -2.3215  0.6435  0.7450
16963TIP3    H272381   4.173   4.308  14.305  0.4780 -0.8268 -1.7288
16964TIP3   OH272382   3.230   2.219  13.808  0.1818  0.3833 -0.1708
16964TIP3    H172383   3.195   2.267  13.883 -1.3294 -0.5714 -0.2422
16964TIP3    H272384   3.322   2.204  13.830  0.3787  2.2563  0.3716
16965TIP3   OH272385   3.767   2.290  15.227 -0.1572  0.1614  0.1714
16965TIP3    H172386   3.746   2.251  15.142 -2.1931  1.3142  0.1379
16965TIP3    H272387   3.838   2.351  15.208 -0.0393 -0.1941 -0.5536
16966TIP3   OH272388   0.243   2.860  11.858 -0.0828  0.0173 -0.0435
16966TIP3    H172389   0.150   2.838  11.862 -0.0667 -0.3212 -1.5042
16966TIP3    H272390   0.289   2.777  11.874 -0.0261 -0.0406 -0.5142
16967TIP3   OH272391   0.998   4.269   1.228 -0.0275 -0.2700 -0.5015
16967TIP3    H172392   0.953   4.263   1.312  0.8202  1.5273  0.1026
16967TIP3    H272393   1.038   4.183   1.216  1.9492  0.2222  2.1659
16968TIP3   OH272394   1.671   5.359  16.147 -0.3460  0.1210 -0.3345
16968TIP3    H172395   1.649   5.447  16.117 -0.8537 -0.0683 -0.5182
16968TIP3    H272396   1.591   5.328  16.189 -0.6931 -0.8650 -1.6892
16969TIP3   OH272397   0.706   2.568  14.369 -0.0975 -0.5450  0.7922
16969TIP3    H172398   0.782   2.511  14.380  0.8231  0.6447  0.7249
16969TIP3    H272399   0.717   2.636  14.434 -1.8378 -1.1016  1.6981
16970TIP3   OH272400   1.376   5.636   3.238 -0.0768 -0.1003  0.6587
16970TIP3    H172401   1.447   5.599   3.185 -0.6703  0.2916 -0.4281
16970TIP3    H272402   1.370   5.727   3.209 -2.0601 -0.5427 -0.3733
16971TIP3   OH272403   6.488   1.266   3.195 -0.4921  0.0947 -0.0516
16971TIP3    H172404   6.541   1.217   3.133  0.2504 -1.4332  1.7351
16971TIP3    H272405   6.535   1.348   3.208 -0.4186  0.2348 -1.1405
16972TIP3   OH272406   4.910   6.386   5.001 -0.2929  0.4238 -0.6824
16972TIP3    H172407   4.974   6.441   5.047 -0.6915  1.6762 -1.5815
16972TIP3    H272408   4.960   6.312   4.969  0.0564 -0.2972  1.4655
16973TIP3   OH272409   3.060   5.504   2.364  0.4431  0.1667 -0.3641
16973TIP3    H172410   3.114   5.473   2.436 -0.7270 -0.0307  0.4519
16973TIP3    H272411   3.061   5.600   2.373 -1.5620  0.0817  1.3648
16974TIP3   OH272412   4.733   4.548  16.114  0.0866 -0.8887 -0.1662
16974TIP3    H172413   4.699   4.608  16.047  0.2111 -1.2151 -0.5202
16974TIP3    H272414   4.683   4.467  16.102 -0.9123 -0.4749  1.0820
16975TIP3   OH272415   6.183   4.029   3.562 -0.6296  0.7634  0.4730
16975TIP3    H172416   6.181   4.091   3.489  0.5811 -0.0680 -0.2941
16975TIP3    H272417   6.262   4.052   3.611  1.8864 -2.3264 -1.8397
16976TIP3   OH272418   1.052   2.674   5.910  0.3510  0.3380 -0.0719
16976TIP3    H172419   1.105   2.725   5.849  0.8213  1.5513  1.3008
16976TIP3    H272420   1.116   2.634   5.969 -0.2098  1.3306  1.2334
16977TIP3   OH272421   0.669   0.634   0.830 -0.4403  0.0156 -0.1700
16977TIP3    H172422   0.614   0.709   0.852 -2.3779 -1.1699 -0.8329
16977TIP3    H272423   0.615   0.558   0.851  0.5779 -1.1758 -1.7413
16978TIP3   OH272424   4.357   6.539  13.097 -0.5625 -0.0685 -0.6624
16978TIP3    H172425   4.352   6.469  13.162  0.1240 -0.1436 -0.6885
16978TIP3    H272426   4.327   6.617  13.144 -0.5426 -0.2186 -0.4014
16979TIP3   OH272427   1.114   6.168  10.550  0.0785 -0.2882  0.0007
16979TIP3    H172428   1.167   6.175  10.470 -0.8030 -0.4558 -0.6144
16979TIP3    H272429   1.175   6.187  10.621  0.5185  1.4835 -0.8119
16980TIP3   OH272430   3.913   2.769   1.714  0.6499  0.1554  0.4513
16980TIP3    H172431   3.846   2.818   1.667  0.6643  0.5084  0.7901
16980TIP3    H272432   3.879   2.680   1.718  0.8120  0.0440 -0.5329
16981TIP3   OH272433   4.374   4.992  16.958  0.5832  0.8060 -0.4188
16981TIP3    H172434   4.403   5.081  16.976  0.8543  0.7817 -0.7200
16981TIP3    H272435   4.304   5.002  16.894  0.8101  0.7815 -0.6692
16982TIP3   OH272436   4.903   4.639  15.059  0.0440  0.4839 -0.3432
16982TIP3    H172437   4.978   4.618  15.114  0.6332  1.0471 -0.9354
16982TIP3    H272438   4.938   4.692  14.988 -0.8396  0.3990 -0.8589
16983TIP3   OH272439   0.789   5.654   3.253 -0.3497  0.2773  0.0762
16983TIP3    H172440   0.796   5.691   3.341 -0.8795  0.7117 -0.0610
16983TIP3    H272441   0.879   5.638   3.227 -0.2481 -1.0846  1.2137
16984TIP3   OH272442   0.605   4.178  12.221  0.6842  0.3501 -0.1420
16984TIP3    H172443   0.559   4.159  12.303  1.8396 -0.0699  0.4238
16984TIP3    H272444   0.698   4.179  12.246  1.0313  0.3349 -1.4292
16985TIP3   OH272445   3.734   3.090   2.092 -0.1402 -0.5274 -0.2213
16985TIP3    H172446   3.705   3.069   2.181  0.8730  0.5558  0.3782
16985TIP3    H272447   3.745   3.005   2.051 -3.0450 -1.0106 -0.1333
16986TIP3   OH272448   6.590   1.383  12.498 -0.1744  0.0492 -0.2801
16986TIP3    H172449   6.542   1.418  12.423 -1.1468 -1.6168 -0.4642
16986TIP3    H272450   6.607   1.459  12.554 -0.9527  1.0283 -1.3623
16987TIP3   OH272451   4.642   5.304   3.480  0.1879 -0.3425  0.3614
16987TIP3    H172452   4.694   5.369   3.528  1.0565 -1.0764  0.4418
16987TIP3    H272453   4.555   5.343   3.472  0.3047  0.2183  1.6680
16988TIP3   OH272454   6.462   5.993   5.803  0.9830 -0.3872  0.5975
16988TIP3    H172455   6.536   5.947   5.841  2.3143  0.6472 -0.6992
16988TIP3    H272456   6.421   5.929   5.745  0.0907 -1.3516  2.2483
16989TIP3   OH272457   6.675   0.430   3.967  0.5800  0.0293  0.0221
16989TIP3    H172458   6.616   0.458   4.036  1.8004  1.3430  0.5583
16989TIP3    H272459   6.669   0.498   3.900  0.0654 -0.7896 -0.7745
16990TIP3   OH272460   3.771   4.495   3.564 -0.4079  0.2635  0.1070
16990TIP3    H172461   3.862   4.515   3.546 -0.4900 -0.0417 -0.6339
16990TIP3    H272462   3.766   4.400   3.560 -1.0204  0.3446 -1.0822
16991TIP3   OH272463   3.223   1.995  14.038  0.0784 -0.0823 -0.1574
16991TIP3    H172464   3.230   2.059  14.108  0.7355 -1.3573  0.9621
16991TIP3    H272465   3.167   1.926  14.073 -0.3206 -0.3158 -1.2123
16992TIP3   OH272466   3.679   3.589  13.023 -0.1728  0.2560 -0.2111
16992TIP3    H172467   3.628   3.670  13.025 -0.2927  0.1900 -0.5311
16992TIP3    H272468   3.692   3.572  12.929  1.2077  0.7559 -0.1145
16993TIP3   OH272469   0.911   4.906   3.383  0.2221  0.0146 -0.0633
16993TIP3    H172470   0.974   4.860   3.439  0.3983  0.5479  0.1871
16993TIP3    H272471   0.827   4.868   3.405  0.4435 -0.6022 -0.2905
16994TIP3   OH272472   6.647   1.593  14.591  0.3225 -0.3642 -0.1543
16994TIP3    H172473   6.672   1.565  14.503 -0.1886 -0.5916 -0.2265
16994TIP3    H272474   6.721   1.646  14.621  1.2782 -1.7705 -0.0128
16995TIP3   OH272475   0.704   1.624  13.079 -0.4049 -0.1680 -0.1467
16995TIP3    H172476   0.768   1.614  13.149 -0.1192 -0.0277 -0.3879
16995TIP3    H272477   0.620   1.630  13.125 -0.0317  2.0499  0.3388
16996TIP3   OH272478   5.564   4.897  12.142 -0.0855 -0.0384 -0.1886
16996TIP3    H172479   5.620   4.820  12.138 -1.2016 -0.9841  1.7051
16996TIP3    H272480   5.490   4.876  12.085  0.1613  0.0889 -0.5549
16997TIP3   OH272481   0.486   6.541  14.955 -0.8173  0.1110 -0.0371
16997TIP3    H172482   0.568   6.498  14.933 -0.5348  0.9541 -0.6256
16997TIP3    H272483   0.432   6.471  14.993 -0.6041 -0.9077 -1.5866
16998TIP3   OH272484   1.680   2.600   0.953  0.7198 -0.4184  0.6004
16998TIP3    H172485   1.775   2.603   0.962  0.7890 -1.1063  0.1611
16998TIP3    H272486   1.664   2.532   0.887 -0.1359 -1.2890  1.6675
16999TIP3   OH272487   5.297   6.598  16.094  1.1732  0.5383  0.3211
16999TIP3    H172488   5.338   6.651  16.162  1.8400  1.5581 -0.8437
16999TIP3    H272489   5.299   6.653  16.016 -0.1164 -0.3808 -0.3893
17000TIP3   OH272490   2.322   6.304  11.751 -0.6643 -0.1965 -0.5721
17000TIP3    H172491   2.385   6.325  11.821  1.2204 -0.5772 -2.1255
17000TIP3    H272492   2.276   6.386  11.735  0.8701  0.6363 -0.8260
17001TIP3   OH272493   1.223   4.646   2.480 -0.2861  0.1678 -0.3923
17001TIP3    H172494   1.189   4.584   2.416 -0.2581 -0.5970  0.3205
17001TIP3    H272495   1.146   4.681   2.524 -0.2900  0.4754 -0.6409
17002TIP3   OH272496   4.301   6.455   4.613 -0.5049 -0.3919  0.3014
17002TIP3    H172497   4.286   6.454   4.707  1.6353 -1.7059  0.6563
17002TIP3    H272498   4.220   6.419   4.576 -1.1940 -0.2680  1.6585
17003TIP3   OH272499   1.078   5.597  12.337 -0.6316 -0.1952 -0.1716
17003TIP3    H172500   1.066   5.548  12.256  2.3230  0.9376 -1.3576
17003TIP3    H272501   1.169   5.581  12.362 -0.1110  3.2056  0.3803
17004TIP3   OH272502   0.594   1.366   3.496  0.2744 -0.8559 -0.6150
17004TIP3    H172503   0.686   1.360   3.471  0.1400 -1.4518 -0.9884
17004TIP3    H272504   0.594   1.409   3.581  1.0164 -2.3559  0.1500
17005TIP3   OH272505   2.836   4.025   2.487  0.0425 -0.3134 -0.5306
17005TIP3    H172506   2.810   3.949   2.434  0.2648  0.3330 -1.5902
17005TIP3    H272507   2.759   4.081   2.488  0.2090 -0.0831 -0.6023
17006TIP3   OH272508   5.863   0.016  12.784 -0.1988  0.0971 -0.3294
17006TIP3    H172509   5.816  -0.027  12.856  1.5335  0.1949  0.8762
17006TIP3    H272510   5.865  -0.051  12.715 -0.1808 -0.7033  0.4287
17007TIP3   OH272511   4.649   6.229   2.094  0.3392 -0.6212  0.5356
17007TIP3    H172512   4.635   6.267   2.008  1.9366  0.2916  0.6640
17007TIP3    H272513   4.562   6.230   2.135  0.3009  2.6773  0.4547
17008TIP3   OH272514   5.644   1.767  12.063  0.0011  0.4456 -0.0640
17008TIP3    H172515   5.658   1.848  12.012  0.6639  0.8618  0.7829
17008TIP3    H272516   5.732   1.733  12.079 -0.2490 -0.0943  0.1519
17009TIP3   OH272517   0.357   0.312  14.222 -0.3382 -0.3725 -0.5752
17009TIP3    H172518   0.333   0.230  14.179 -0.1686 -1.4607  1.3415
17009TIP3    H272519   0.429   0.289  14.281 -1.9533  0.5699  1.8837
17010TIP3   OH272520   3.312   1.763  11.760 -0.2642 -0.3214 -0.3236
17010TIP3    H172521   3.237   1.717  11.721 -0.5881  0.5330 -0.7301
17010TIP3    H272522   3.388   1.731  11.711 -0.3590 -1.2145  0.1107
17011TIP3   OH272523   4.491   3.626   1.163  0.2026 -0.4095 -0.4182
17011TIP3    H172524   4.489   3.715   1.197 -0.9545 -0.2764 -0.8016
17011TIP3    H272525   4.511   3.571   1.238 -0.2737  0.0674  0.0577
17012TIP3   OH272526   4.048   2.837  12.532  0.4053 -0.2320  0.1501
17012TIP3    H172527   4.030   2.911  12.591  1.1549  0.7037 -0.7799
17012TIP3    H272528   4.134   2.857  12.494 -0.6145 -0.2029 -2.2101
17013TIP3   OH272529   1.370   0.067   5.154 -0.3052 -0.1025 -0.4120
17013TIP3    H172530   1.402   0.138   5.098 -0.7677  0.6181  0.2239
17013TIP3    H272531   1.394  -0.013   5.108 -1.1512  0.4894 -1.8910
17014TIP3   OH272532   6.122   2.344   3.929 -0.2450  0.0219  0.3952
17014TIP3    H172533   6.076   2.417   3.889 -1.6614 -1.2768 -0.3778
17014TIP3    H272534   6.056   2.276   3.939  1.7534 -2.3570 -1.9587
17015TIP3   OH272535   2.650   6.449  13.149 -0.2707 -0.4631 -0.4009
17015TIP3    H172536   2.600   6.477  13.073  0.8435  1.2434 -0.5342
17015TIP3    H272537   2.650   6.353  13.144 -0.0904 -0.3711 -2.6253
17016TIP3   OH272538   0.783   0.536  15.523  0.2216 -0.0509 -0.4672
17016TIP3    H172539   0.745   0.568  15.441  1.5859  0.3665 -0.9554
17016TIP3    H272540   0.832   0.458  15.497  1.2692  0.5044 -0.1850
17017TIP3   OH272541   0.680   2.668  16.490  0.3933 -0.0558  0.4953
17017TIP3    H172542   0.666   2.574  16.495 -0.9806  0.0240 -1.4816
17017TIP3    H272543   0.610   2.706  16.543 -0.2307 -0.0944 -0.2863
17018TIP3   OH272544   2.777   2.624   3.049 -0.6949 -0.6557  0.3322
17018TIP3    H172545   2.754   2.540   3.089 -0.4381 -1.1020 -0.4488
17018TIP3    H272546   2.740   2.619   2.960 -1.1845  0.2888  0.4799
17019TIP3   OH272547   6.706   5.876   2.705 -0.6771 -0.0301  0.3708
17019TIP3    H172548   6.788   5.892   2.751 -1.3802  2.4075  0.8289
17019TIP3    H272549   6.649   5.834   2.770 -0.7437  0.8855  0.9045
17020TIP3   OH272550   0.244   4.406  16.139  0.1209  0.1841  0.6676
17020TIP3    H172551   0.243   4.347  16.064 -0.8029  0.5679  0.3732
17020TIP3    H272552   0.312   4.470  16.118  0.1925  0.0162  0.3822
17021TIP3   OH272553   6.667   1.075   0.409  0.1803  0.1210  0.6580
17021TIP3    H172554   6.645   1.150   0.354 -1.1510 -0.9996 -0.3489
17021TIP3    H272555   6.720   1.019   0.353  1.2452  0.3249  1.4393
17022TIP3   OH272556   2.377   5.628   4.842 -0.1728 -0.5365  0.8452
17022TIP3    H172557   2.404   5.543   4.807  2.1554  0.1295  0.9377
17022TIP3    H272558   2.458   5.677   4.851 -1.5208  1.8590  0.4306
17023TIP3   OH272559   1.480   6.517  16.174 -0.3751  0.3227  0.1153
17023TIP3    H172560   1.437   6.580  16.116  0.9026  1.4308  0.3572
17023TIP3    H272561   1.408   6.470  16.216 -1.3316  1.3060 -0.4060
17024TIP3   OH272562   2.952   5.691  12.643 -0.4605 -0.2396  0.1150
17024TIP3    H172563   3.003   5.697  12.562  2.0513 -1.9147  1.4937
17024TIP3    H272564   2.909   5.776  12.651 -1.9160 -0.5272 -3.6963
17025TIP3   OH272565   3.356   6.379  12.218 -0.2340 -0.0291  0.2003
17025TIP3    H172566   3.352   6.297  12.268  2.1885  1.0164  2.1614
17025TIP3    H272567   3.432   6.369  12.161  0.7379  1.2935  1.2503
17026TIP3   OH272568   3.914   2.165  15.455 -0.4834 -0.0064 -0.3264
17026TIP3    H172569   3.878   2.227  15.393 -2.8576 -1.6399 -0.6416
17026TIP3    H272570   3.921   2.083  15.406  4.1296  0.3183 -0.3997
17027TIP3   OH272571   4.693   2.812  16.739 -0.0712 -0.0647 -0.4686
17027TIP3    H172572   4.766   2.799  16.799 -0.2360 -1.4130 -0.5348
17027TIP3    H272573   4.728   2.790  16.653 -0.2350  0.4052 -0.6540
17028TIP3   OH272574   2.917   1.160   3.707 -0.0549  0.3532 -0.2719
17028TIP3    H172575   2.850   1.180   3.642  1.4384 -1.0933 -2.3290
17028TIP3    H272576   2.988   1.222   3.690  0.8202 -0.7710 -0.7849
17029TIP3   OH272577   5.211   4.644   2.639 -0.0242  0.1066 -0.3965
17029TIP3    H172578   5.187   4.696   2.562 -0.6618 -0.4751 -0.6029
17029TIP3    H272579   5.146   4.573   2.641  0.3332 -0.2083  0.3498
17030TIP3   OH272580   2.194   5.250  13.026  0.7213  0.0545 -0.0708
17030TIP3    H172581   2.236   5.287  12.948  0.6841 -0.9386 -0.5646
17030TIP3    H272582   2.135   5.320  13.056 -0.7761 -0.2707 -2.0957
17031TIP3   OH272583   6.180   0.835   5.042  0.0933 -0.0139  0.5901
17031TIP3    H172584   6.242   0.807   5.109 -0.6145 -2.2703  0.3257
17031TIP3    H272585   6.106   0.870   5.091 -0.2074 -1.1993  0.9861
17032TIP3   OH272586   5.066   1.628   3.207 -0.3499 -0.2887  0.0946
17032TIP3    H172587   4.971   1.627   3.192 -0.2159  0.9971 -0.8344
17032TIP3    H272588   5.076   1.672   3.291 -0.4475  1.7066 -0.9026
17033TIP3   OH272589   5.736   2.655  17.062  0.0812 -0.1630 -0.0958
17033TIP3    H172590   5.685   2.631  17.139  0.4804  0.3270  0.3213
17033TIP3    H272591   5.824   2.623  17.080 -0.1084 -1.1714 -0.8911
17034TIP3   OH272592   5.118   4.518   1.740  0.4463  0.6054  0.3295
17034TIP3    H172593   5.081   4.594   1.696  1.5175  0.7591 -0.3377
17034TIP3    H272594   5.064   4.506   1.818 -0.4172  1.3680 -0.1456
17035TIP3   OH272595   3.462   0.240  12.950 -1.0030 -0.2397 -0.0636
17035TIP3    H172596   3.505   0.292  13.017 -1.9286 -0.7058  0.8938
17035TIP3    H272597   3.456   0.298  12.874 -0.1294  0.3444  0.3073
17036TIP3   OH272598   4.209   5.473  13.067  0.0512 -0.8316 -0.4272
17036TIP3    H172599   4.162   5.529  13.005 -1.1539 -0.3989  0.8461
17036TIP3    H272600   4.163   5.486  13.151  1.0755 -2.1004  0.3536
17037TIP3   OH272601   0.266   3.772   5.128 -0.5025  0.1959  0.4460
17037TIP3    H172602   0.288   3.865   5.141 -1.9789  0.4164  1.5937
17037TIP3    H272603   0.233   3.768   5.039  0.5701  0.5753  0.0266
17038TIP3   OH272604   2.913   1.624  11.914  0.0255  0.6834  0.5704
17038TIP3    H172605   2.905   1.682  11.989  1.3497  1.9518 -0.2447
17038TIP3    H272606   2.999   1.584  11.923 -0.2542  0.0109  0.3058
17039TIP3   OH272607   2.439   5.849  15.536 -0.0373 -0.0773  0.7115
17039TIP3    H172608   2.451   5.920  15.598  0.8846 -1.0695  1.6964
17039TIP3    H272609   2.347   5.855  15.510  0.0689  1.5284  0.6979
17040TIP3   OH272610   3.855   6.525  14.724 -0.3777  0.6614 -0.4652
17040TIP3    H172611   3.930   6.469  14.704 -0.9585 -1.2286  2.2834
17040TIP3    H272612   3.781   6.481  14.682 -0.6532 -0.0399  0.7309
17041TIP3   OH272613   4.365   1.376   2.035  0.4563 -0.6986  0.0417
17041TIP3    H172614   4.339   1.288   2.064  0.5860 -1.2782 -1.5210
17041TIP3    H272615   4.292   1.406   1.981  1.0572 -0.4757 -0.6560
17042TIP3   OH272616   0.458   2.166  14.227 -0.5589 -0.4397  0.5466
17042TIP3    H172617   0.479   2.089  14.281  0.5855 -0.5139  0.0130
17042TIP3    H272618   0.502   2.239  14.271  0.5470 -0.5337 -0.3847
17043TIP3   OH272619   2.292   5.032  13.350  0.3114 -0.2612 -0.3214
17043TIP3    H172620   2.351   5.066  13.282  0.1392 -0.1083 -0.3955
17043TIP3    H272621   2.226   5.100  13.361  0.5277 -0.1400  0.2448
17044TIP3   OH272622   4.345   6.269  15.857 -0.0691 -0.2157 -0.0868
17044TIP3    H172623   4.258   6.268  15.896 -1.1235  0.7669 -2.3362
17044TIP3    H272624   4.373   6.361  15.862  0.3332 -0.3148 -0.4381
17045TIP3   OH272625   6.270   3.438   1.955 -0.1814  1.1503  0.4293
17045TIP3    H172626   6.174   3.443   1.948 -0.2507 -0.0658  0.4579
17045TIP3    H272627   6.285   3.385   2.034  0.5105  0.8471  0.0905
17046TIP3   OH272628   3.178   3.303   4.395  0.4273 -0.8177 -0.2960
17046TIP3    H172629   3.175   3.290   4.490 -0.3967 -2.4074 -0.5350
17046TIP3    H272630   3.218   3.223   4.361  1.6642  0.1670 -1.2264
17047TIP3   OH272631   2.757   1.267   3.510  0.2548 -0.0413 -0.4019
17047TIP3    H172632   2.781   1.343   3.459 -0.4154  0.9594  0.7527
17047TIP3    H272633   2.662   1.263   3.505  0.2236 -0.2852  0.2545
17048TIP3   OH272634   0.925   3.338   6.414  0.0461 -0.0038 -0.1890
17048TIP3    H172635   0.970   3.392   6.479 -0.4604 -0.3073  0.4237
17048TIP3    H272636   0.961   3.250   6.425 -1.0500 -0.3525  0.6463
17049TIP3   OH272637   4.799   4.882   2.818 -0.0739  0.3221 -0.3047
17049TIP3    H172638   4.706   4.905   2.821  0.0122  0.3914  2.5679
17049TIP3    H272639   4.808   4.807   2.876  1.5255 -0.2817 -1.2932
17050TIP3   OH272640   3.245   2.404  15.516 -0.6123  0.0758 -0.2104
17050TIP3    H172641   3.222   2.321  15.473 -0.3907  0.4160 -0.9820
17050TIP3    H272642   3.331   2.387  15.555  0.2091  0.4775 -1.8229
17051TIP3   OH272643   3.824   6.042   5.224 -0.2753  0.6929 -0.2761
17051TIP3    H172644   3.906   6.065   5.267 -0.9821  0.0637  1.4587
17051TIP3    H272645   3.820   6.098   5.147  1.0180  1.8537  0.4909
17052TIP3   OH272646   1.108   4.732  15.325 -0.5253 -0.0931 -0.3206
17052TIP3    H172647   1.090   4.817  15.286  3.8654  1.3688  0.6044
17052TIP3    H272648   1.073   4.738  15.414 -1.4336  0.1919 -0.6853
17053TIP3   OH272649   0.587   6.559   3.105 -0.0190 -0.5769  0.4059
17053TIP3    H172650   0.558   6.472   3.077 -1.8498 -0.2467  1.2215
17053TIP3    H272651   0.510   6.615   3.094  1.2032  1.0040 -0.3191
17054TIP3   OH272652   1.055   2.298   5.136 -0.0657 -0.2801 -0.1956
17054TIP3    H172653   0.999   2.231   5.096  0.1382 -0.3151 -0.4233
17054TIP3    H272654   0.995   2.370   5.155 -0.2576 -0.4656 -0.0928
17055TIP3   OH272655   4.076   0.813  16.620  0.1541  0.3607 -0.4623
17055TIP3    H172656   4.061   0.722  16.647 -0.1834  0.9243  1.3182
17055TIP3    H272657   4.134   0.848  16.687  1.1927  1.1429 -1.7633
17056TIP3   OH272658   0.419   2.403  11.283  0.9944 -0.5883  0.1677
17056TIP3    H172659   0.484   2.334  11.300  0.0537 -1.0581  2.0090
17056TIP3    H272660   0.343   2.356  11.248 -0.2709 -0.7869  2.9804
17057TIP3   OH272661   2.740   3.105  16.599 -0.2762 -0.0539  0.0767
17057TIP3    H172662   2.786   3.087  16.682  1.5947 -2.4552 -1.4219
17057TIP3    H272663   2.807   3.147  16.544 -0.2150 -2.4313 -1.7056
17058TIP3   OH272664   0.694   3.075  12.724 -0.3426 -0.1489  0.5650
17058TIP3    H172665   0.678   3.167  12.745  1.8054  0.5180 -0.6444
17058TIP3    H272666   0.624   3.052  12.662 -2.2462 -0.0232  2.6064
17059TIP3   OH272667   4.733   4.701   5.590 -0.7035 -0.5409  0.2063
17059TIP3    H172668   4.803   4.719   5.653  1.4399 -1.3018 -1.8798
17059TIP3    H272669   4.681   4.782   5.588  0.2447  0.1271  1.6069
17060TIP3   OH272670   1.653   3.094  12.867  0.5049  0.3846  0.2589
17060TIP3    H172671   1.629   3.002  12.877 -0.6806  0.8883  2.4890
17060TIP3    H272672   1.630   3.134  12.951  1.4188  2.6288 -0.5141
17061TIP3   OH272673   0.770   1.785   1.318  0.3004  0.2087  0.2446
17061TIP3    H172674   0.681   1.816   1.302  1.5597  4.1578  0.2424
17061TIP3    H272675   0.772   1.762   1.411 -1.6750 -3.5481 -0.5859
17062TIP3   OH272676   5.628   1.214   2.694 -0.0595  0.6296 -0.0725
17062TIP3    H172677   5.690   1.174   2.755  0.1740 -2.4401 -2.2127
17062TIP3    H272678   5.682   1.271   2.639  0.6282 -0.7617 -0.8596
17063TIP3   OH272679   3.942   0.501   1.220 -0.3471 -1.0584  0.2388
17063TIP3    H172680   3.948   0.407   1.204 -0.0702 -0.8124 -1.1657
17063TIP3    H272681   4.023   0.537   1.185 -0.3503 -0.3198  0.9697
17064TIP3   OH272682   5.374   5.491  15.540  0.1896  0.4794  0.8615
17064TIP3    H172683   5.356   5.515  15.449  0.7579 -0.7724  0.4084
17064TIP3    H272684   5.335   5.404  15.550 -0.8885  1.0958  2.1634
17065TIP3   OH272685   4.586   3.184  15.694  0.0676 -0.8359  0.1696
17065TIP3    H172686   4.555   3.214  15.609 -1.4122 -0.8983  0.6682
17065TIP3    H272687   4.679   3.207  15.696 -0.0572 -0.1999 -1.1718
17066TIP3   OH272688   0.287   1.475   3.047 -0.2433 -0.0219 -0.2788
17066TIP3    H172689   0.353   1.433   3.103 -2.3768 -0.1221  2.2309
17066TIP3    H272690   0.305   1.569   3.056 -1.1172  0.0008  1.2602
17067TIP3   OH272691   3.412   5.448   3.732 -0.4039 -0.1466 -0.2954
17067TIP3    H172692   3.362   5.493   3.800  1.1927 -1.1253  1.6119
17067TIP3    H272693   3.350   5.388   3.691 -1.0637 -0.5725  1.3024
17068TIP3   OH272694   1.733   5.360  11.933 -0.0976 -0.5244 -0.4705
17068TIP3    H172695   1.820   5.360  11.893 -0.1555 -1.4507 -0.6164
17068TIP3    H272696   1.672   5.352  11.859 -0.2790 -0.4169 -0.3326
17069TIP3   OH272697   6.447   6.457  11.969 -0.4663 -0.5832  0.4190
17069TIP3    H172698   6.492   6.377  11.943 -1.5608 -1.2149  0.4433
17069TIP3    H272699   6.364   6.455  11.921 -1.9278 -1.0983  2.9086
17070TIP3   OH272700   0.220   1.156  16.413 -0.8171  0.6967 -0.1071
17070TIP3    H172701   0.205   1.145  16.319 -0.5743  0.5122 -0.1266
17070TIP3    H272702   0.252   1.246  16.422  0.5204  0.2567 -0.3771
17071TIP3   OH272703   6.547   5.404  12.345  0.1566 -0.0506  0.0587
17071TIP3    H172704   6.559   5.499  12.347 -1.5300  0.2240 -1.1801
17071TIP3    H272705   6.577   5.378  12.258 -0.7262 -0.4324 -0.1427
17072TIP3   OH272706   6.211   3.905   0.305 -0.0149 -0.4499 -0.6564
17072TIP3    H172707   6.290   3.920   0.252 -0.4809 -0.2889 -1.3037
17072TIP3    H272708   6.140   3.942   0.254 -0.1433  2.0951  1.3029
17073TIP3   OH272709   1.387   0.908  13.056  0.3981 -0.6022  0.1183
17073TIP3    H172710   1.404   0.920  13.149 -0.5917 -0.7669  0.3312
17073TIP3    H272711   1.299   0.869  13.053  0.5546 -0.8944 -0.8648
17074TIP3   OH272712   4.496   0.738  11.517 -0.5659  0.1787 -0.3774
17074TIP3    H172713   4.450   0.801  11.461 -1.9052 -0.1911  0.2982
17074TIP3    H272714   4.465   0.757  11.605 -1.1808 -1.5906 -0.1941
17075TIP3   OH272715   4.688   5.745  13.859  0.6378  0.7400  0.0594
17075TIP3    H172716   4.633   5.672  13.886  1.3835  0.5861  1.1941
17075TIP3    H272717   4.721   5.782  13.941  3.1788  0.0921 -0.6413
17076TIP3   OH272718   1.044   3.672   1.207  0.0236  0.2730 -0.1740
17076TIP3    H172719   0.966   3.690   1.260 -0.5433 -0.0170 -0.8996
17076TIP3    H272720   1.112   3.729   1.245 -1.0031  1.8596 -0.6649
17077TIP3   OH272721   4.297   5.105  13.942  0.0528  0.2465 -0.5113
17077TIP3    H172722   4.283   5.156  13.862  1.1539  2.8677  0.9081
17077TIP3    H272723   4.233   5.140  14.004 -0.3181 -1.2802 -0.0197
17078TIP3   OH272724   2.838   1.070  16.337 -0.4788  0.1515  0.2721
17078TIP3    H172725   2.894   1.070  16.415 -0.9676  1.4042  0.6366
17078TIP3    H272726   2.894   1.101  16.266 -0.3901  0.2908  0.4042
17079TIP3   OH272727   2.252   1.482  13.793  0.0774 -0.3171  0.0549
17079TIP3    H172728   2.184   1.462  13.858 -1.4539 -2.7108 -2.1785
17079TIP3    H272729   2.296   1.398  13.780  0.5029  0.1933 -1.8498
17080TIP3   OH272730   5.696   3.289   2.352 -0.0342  0.5606 -0.7941
17080TIP3    H172731   5.701   3.256   2.262  0.6718 -0.3642 -0.4273
17080TIP3    H272732   5.612   3.255   2.385  0.4892 -0.5513 -0.5598
17081TIP3   OH272733   5.067   1.478  15.838  0.6863 -0.2021  0.0622
17081TIP3    H172734   5.125   1.466  15.763  0.2571  0.8833 -0.4618
17081TIP3    H272735   5.106   1.550  15.888 -0.1018  0.4250 -0.2053
17082TIP3   OH272736   0.262   6.629  17.281 -0.6127 -0.0340  0.1073
17082TIP3    H172737   0.304   6.699  17.231  0.4734 -0.9105 -0.2090
17082TIP3    H272738   0.276   6.550  17.229 -2.0412 -0.4639  0.3457
17083TIP3   OH272739   0.586   3.785   5.651  0.0991 -0.5247 -0.3082
17083TIP3    H172740   0.507   3.777   5.703  0.0713  0.0177 -0.2744
17083TIP3    H272741   0.590   3.877   5.625  0.8210 -0.5077 -0.1423
17084TIP3   OH272742   0.331   0.821  16.462 -0.1031  0.0231 -0.4200
17084TIP3    H172743   0.335   0.746  16.521 -0.9405 -0.6112 -1.1615
17084TIP3    H272744   0.375   0.892  16.510  3.3902 -1.7437 -0.9267
17085TIP3   OH272745   6.817   3.315   1.972  0.6002  0.8216 -0.1214
17085TIP3    H172746   6.818   3.410   1.972 -1.2371  0.8725  0.3851
17085TIP3    H272747   6.841   3.290   2.061 -2.2567  0.9419  0.7461
17086TIP3   OH272748   1.563   0.925  12.836 -0.1471 -0.2948 -0.2610
17086TIP3    H172749   1.533   0.908  12.925 -0.6432 -0.0653 -0.3849
17086TIP3    H272750   1.514   0.864  12.782 -1.9660  1.5134 -0.7164
17087TIP3   OH272751   5.675   2.868  16.673 -0.0758 -0.4056 -0.4616
17087TIP3    H172752   5.613   2.915  16.618  0.0803  0.1778 -0.1466
17087TIP3    H272753   5.632   2.860  16.758  0.6747  0.9016  0.0589
17088TIP3   OH272754   6.433   5.467  13.835 -0.0770  0.4304 -0.3469
17088TIP3    H172755   6.509   5.412  13.817  0.3793  0.9429 -0.0057
17088TIP3    H272756   6.397   5.487  13.749  0.0048 -0.0430 -0.4949
17089TIP3   OH272757   3.798   4.747  16.284 -0.3980 -0.5257 -0.3231
17089TIP3    H172758   3.839   4.682  16.342 -0.1899  0.4095  0.6063
17089TIP3    H272759   3.705   4.745  16.308  0.2699  2.8033  3.0833
17090TIP3   OH272760   5.168   0.872  13.108  0.2574 -0.3119 -0.3219
17090TIP3    H172761   5.124   0.915  13.181 -0.1224  0.4563 -1.0002
17090TIP3    H272762   5.181   0.782  13.138 -0.3545 -0.1359  0.4893
17091TIP3   OH272763   1.815   3.387  13.796  0.1600  0.6073  0.1194
17091TIP3    H172764   1.877   3.361  13.864  0.9863  1.0867 -0.4528
17091TIP3    H272765   1.821   3.319  13.730  0.6826  1.0843 -0.3250
17092TIP3   OH272766   6.126   0.411   5.863 -0.5559  0.5028  0.0345
17092TIP3    H172767   6.093   0.372   5.782 -0.4927  1.2101 -0.3342
17092TIP3    H272768   6.199   0.354   5.890  1.6203  2.1377 -2.2199
17093TIP3   OH272769   6.299   0.662  16.255  0.1977 -0.2452  0.4861
17093TIP3    H172770   6.299   0.630  16.165  1.7609 -2.2776  1.1682
17093TIP3    H272771   6.206   0.667  16.279 -0.2736  1.1656 -1.4953
17094TIP3   OH272772   4.799   5.613  13.185 -0.0109  0.2721  0.5115
17094TIP3    H172773   4.878   5.654  13.222  0.1280 -0.5170  1.1101
17094TIP3    H272774   4.738   5.609  13.258  0.0939 -0.8712  0.5353
17095TIP3   OH272775   1.089   0.255  16.368  0.3880  0.1038 -0.1077
17095TIP3    H172776   1.114   0.310  16.293 -1.2840 -0.0354 -0.8011
17095TIP3    H272777   1.062   0.317  16.435  2.2232  0.2426  0.5334
17096TIP3   OH272778   4.134   1.131  17.146  0.2291  0.2271  0.0138
17096TIP3    H172779   4.172   1.088  17.222 -1.4078  1.1137  1.3537
17096TIP3    H272780   4.194   1.202  17.126  0.7609 -0.1278  0.3469
17097TIP3   OH272781   1.828   4.080   2.552  0.1734 -0.0419 -0.5210
17097TIP3    H172782   1.785   4.022   2.615 -0.2647  0.9642  0.1119
17097TIP3    H272783   1.919   4.084   2.581 -0.3413  1.5882  0.9267
17098TIP3   OH272784   2.897   4.313   4.806 -0.2355  0.4338  0.6208
17098TIP3    H172785   2.986   4.284   4.788 -0.0610  1.2419  0.1357
17098TIP3    H272786   2.848   4.232   4.821  0.2487 -0.1163 -0.6450
17099TIP3   OH272787   0.543   6.727   5.715 -0.5836  0.1840  0.3221
17099TIP3    H172788   0.541   6.749   5.622  0.5890 -2.9521 -0.5103
17099TIP3    H272789   0.458   6.687   5.732  0.2207 -1.7186 -0.0776
17100TIP3   OH272790   5.527   5.800   4.674  0.5001  0.6304  0.3412
17100TIP3    H172791   5.496   5.828   4.760  1.5506 -1.4590  1.4410
17100TIP3    H272792   5.621   5.818   4.676  0.7302 -0.4806  0.0898
17101TIP3   OH272793   0.104   6.378  13.272  0.3305 -0.0575 -0.3229
17101TIP3    H172794   0.087   6.305  13.331  0.1936  1.0041  0.9685
17101TIP3    H272795   0.139   6.337  13.192  1.7827 -1.4019  0.9700
17102TIP3   OH272796   5.208   6.611   4.956 -0.0309 -0.1298 -0.9075
17102TIP3    H172797   5.215   6.521   4.989  0.4669 -0.3633 -1.6570
17102TIP3    H272798   5.119   6.617   4.922 -0.3477 -0.0753 -0.0908
17103TIP3   OH272799   2.948   6.778   5.549  0.4683 -0.9841 -0.4348
17103TIP3    H172800   2.960   6.773   5.454  1.2645 -1.4879 -0.3079
17103TIP3    H272801   2.988   6.699   5.583 -1.5705 -1.8062  0.1713
17104TIP3   OH272802   3.363   6.495   3.351  0.0433  0.5781 -0.1032
17104TIP3    H172803   3.440   6.440   3.338  1.3867  2.1282  1.1652
17104TIP3    H272804   3.335   6.477   3.441  0.4372  1.8665  0.2921
17105TIP3   OH272805   1.709   5.163  11.125 -0.0111 -0.4227  0.3319
17105TIP3    H172806   1.776   5.167  11.057 -0.3585 -0.5414 -0.0163
17105TIP3    H272807   1.637   5.116  11.085 -0.7451  0.6931  0.3384
17106TIP3   OH272808   3.085   6.220  17.218 -0.1799 -0.3698 -0.5081
17106TIP3    H172809   3.142   6.144  17.226 -1.1549 -1.1001 -0.2642
17106TIP3    H272810   3.000   6.183  17.191 -0.6787  0.6181 -0.3152
17107TIP3   OH272811   0.408   6.032  16.403 -0.5528 -0.2285  0.6949
17107TIP3    H172812   0.477   5.970  16.380  1.6229  1.6195  1.9513
17107TIP3    H272813   0.359   5.989  16.473 -0.4781 -1.4448 -0.0042
17108TIP3   OH272814   4.114   3.072  16.567  0.2230 -0.5023 -0.2276
17108TIP3    H172815   4.086   3.134  16.500 -1.6705  0.3395  1.2511
17108TIP3    H272816   4.050   3.001  16.562  0.1621 -0.5138  0.5322
17109TIP3   OH272817   2.511   2.187  14.519  0.1429  0.6649  0.0633
17109TIP3    H172818   2.564   2.266  14.533 -0.1838  0.5657  2.0137
17109TIP3    H272819   2.424   2.220  14.498  0.0714  0.8351  0.6083
17110TIP3   OH272820   0.021   0.329  13.015 -0.3741 -0.0111 -0.7659
17110TIP3    H172821   0.033   0.287  13.100  0.9369 -1.9644 -1.8947
17110TIP3    H272822   0.101   0.378  13.000 -0.9553  1.0417 -0.5144
17111TIP3   OH272823   1.133   0.702   3.379 -0.1621 -0.0364  0.2493
17111TIP3    H172824   1.194   0.637   3.344  0.7534  0.3850  1.0460
17111TIP3    H272825   1.099   0.747   3.301  2.6821  1.6268 -0.1244
17112TIP3   OH272826   5.932   0.513  16.668 -0.3133  0.1592  0.4111
17112TIP3    H172827   5.897   0.443  16.723  1.3532 -1.2267 -0.2497
17112TIP3    H272828   6.027   0.501  16.672  0.0167  2.5872  0.5409
17113TIP3   OH272829   2.397   3.449   1.632  0.4253 -0.6129  0.4136
17113TIP3    H172830   2.312   3.428   1.592  0.8876 -0.5636 -0.6027
17113TIP3    H272831   2.438   3.509   1.571  0.0543  1.5647  2.2397
17114TIP3   OH272832   6.300   4.803  12.098  0.3885  0.2972  0.3249
17114TIP3    H172833   6.219   4.752  12.108 -2.2608  3.3135 -3.9333
17114TIP3    H272834   6.311   4.847  12.182 -0.3486 -2.9212  2.1734
17115TIP3   OH272835   0.313   0.844   5.602  0.1576 -0.2947 -0.2144
17115TIP3    H172836   0.404   0.845   5.631 -0.0534  3.1415  0.5161
17115TIP3    H272837   0.316   0.879   5.513 -0.4509 -0.3044 -0.2400
17116TIP3   OH272838   0.032   5.956   5.213 -0.4687 -0.3808  0.0694
17116TIP3    H172839  -0.017   5.920   5.287  0.2490  1.1419  1.3117
17116TIP3    H272840  -0.003   6.045   5.203  0.3171 -0.1444 -0.6134
17117TIP3   OH272841   3.358   4.995  11.916 -0.5144 -0.2051  0.3445
17117TIP3    H172842   3.356   4.932  11.989 -0.5548  1.1616  1.5377
17117TIP3    H272843   3.387   4.943  11.841  1.3368 -1.2525  1.7339
17118TIP3   OH272844   1.780   5.877  10.850 -0.4100 -0.0943 -0.1595
17118TIP3    H172845   1.832   5.946  10.809  1.5487  0.3272  2.8762
17118TIP3    H272846   1.817   5.796  10.816  1.2360  0.2534  0.7328
17119TIP3   OH272847   0.119   3.200   1.408  0.6261 -0.4203 -0.2393
17119TIP3    H172848   0.144   3.174   1.497  2.5745 -1.5773 -1.0887
17119TIP3    H272849   0.024   3.202   1.410  0.6600  1.4718  2.3970
17120TIP3   OH272850   6.111   2.185  16.176  0.0454 -0.1318  0.7672
17120TIP3    H172851   6.122   2.090  16.188  1.6533  0.1122  1.2984
17120TIP3    H272852   6.060   2.213  16.251 -1.0363 -0.6930  0.2458
17121TIP3   OH272853   3.553   1.380   4.634 -0.6128 -0.4707 -0.2234
17121TIP3    H172854   3.488   1.436   4.676 -0.8620 -0.1703 -0.9994
17121TIP3    H272855   3.560   1.304   4.691 -0.7805  0.0334  0.4766
17122TIP3   OH272856   1.997   0.823   3.416 -0.0255 -0.5761  0.0449
17122TIP3    H172857   2.082   0.815   3.374  0.6061 -0.4978  1.2971
17122TIP3    H272858   1.974   0.734   3.441  0.7444 -0.3320  1.7285
17123TIP3   OH272859   5.482   0.262   4.711 -0.1650 -0.4960 -0.1388
17123TIP3    H172860   5.487   0.350   4.749 -2.5870 -0.5114  0.2710
17123TIP3    H272861   5.521   0.206   4.778 -0.3074  0.0294  0.3917
17124TIP3   OH272862   3.536   2.473  11.259  0.4049 -0.0703  0.1881
17124TIP3    H172863   3.507   2.432  11.178 -1.8486 -0.5721  1.2011
17124TIP3    H272864   3.500   2.417  11.328  0.1381  1.7661  1.5739
17125TIP3   OH272865   2.484   1.760   0.193  0.4657 -0.0052 -0.0155
17125TIP3    H172866   2.487   1.755   0.097  0.2441 -0.0439 -0.0198
17125TIP3    H272867   2.496   1.669   0.222  1.2942  0.1037  0.0124
17126TIP3   OH272868   6.742   1.338   5.738  0.1609  0.4482  0.1964
17126TIP3    H172869   6.673   1.404   5.738 -0.7600 -0.5072  1.0850
17126TIP3    H272870   6.755   1.317   5.646 -0.4887  0.8786  0.0043
17127TIP3   OH272871   3.724   6.360  12.169  0.1960  0.1437 -0.0100
17127TIP3    H172872   3.683   6.402  12.093 -0.4721 -0.6740 -0.1013
17127TIP3    H272873   3.766   6.282  12.133  0.0415 -0.1453  0.4334
17128TIP3   OH272874   0.039   2.999  15.027 -0.2776  0.0718 -0.6472
17128TIP3    H172875   0.016   2.919  14.979  0.2400  0.9606 -2.4555
17128TIP3    H272876   0.094   2.968  15.099 -0.1613 -1.2332 -1.2656
17129TIP3   OH272877   0.364   5.937  12.707 -0.4918  0.1638  0.3337
17129TIP3    H172878   0.269   5.936  12.720 -0.2394  0.9592  2.4868
17129TIP3    H272879   0.394   5.852  12.737 -0.8559 -1.5372 -3.7452
17130TIP3   OH272880   2.863   1.762  12.169 -0.3918  0.3006  0.2127
17130TIP3    H172881   2.913   1.816  12.230 -0.2938  0.4465  0.0036
17130TIP3    H272882   2.780   1.809  12.158 -0.0478  0.7490 -0.4820
17131TIP3   OH272883   6.798   1.981   6.580  0.0849  0.1183  0.3031
17131TIP3    H172884   6.715   1.932   6.574  1.2652 -1.9298  0.2201
17131TIP3    H272885   6.771   2.073   6.581 -2.2505 -0.5354  1.2660
17132TIP3   OH272886   1.540   1.960   0.909  0.5419 -0.3910  0.0778
17132TIP3    H172887   1.525   1.958   0.815 -0.5748 -0.3085  0.2444
17132TIP3    H272888   1.507   2.046   0.937  3.7482  0.9310  0.0951
17133TIP3   OH272889   1.363   6.165   2.948  0.3564 -0.3545  0.4280
17133TIP3    H172890   1.410   6.140   3.027 -0.7636 -0.0505  1.1978
17133TIP3    H272891   1.273   6.140   2.964  0.1504 -0.4781 -0.8467
17134TIP3   OH272892   1.396   4.417   1.000  0.2656 -0.4360 -0.4888
17134TIP3    H172893   1.414   4.390   1.090  0.1249 -0.7714 -0.5577
17134TIP3    H272894   1.318   4.472   1.006  0.6145  0.0434 -0.3334
17135TIP3   OH272895   6.765   4.770  13.941  0.2064  0.0813 -0.4190
17135TIP3    H172896   6.785   4.863  13.952  2.1387 -0.3886  0.2986
17135TIP3    H272897   6.778   4.733  14.028 -0.4511 -0.8821 -0.7256
17136TIP3   OH272898   1.555   4.147  17.087  0.7361 -0.2186  0.9726
17136TIP3    H172899   1.487   4.125  17.150 -0.7543 -0.1746 -0.5759
17136TIP3    H272900   1.509   4.153  17.003  2.4207  1.1690  0.1084
17137TIP3   OH272901   1.550   4.558   5.932  0.1933 -0.4779  0.2630
17137TIP3    H172902   1.485   4.489   5.941 -1.0501  0.6430 -0.0418
17137TIP3    H272903   1.528   4.601   5.849  1.5348 -0.3052 -0.0184
17138TIP3   OH272904   3.414   0.345   2.151 -0.7322 -0.0650 -0.0983
17138TIP3    H172905   3.383   0.302   2.230 -1.9504 -0.0331 -0.5591
17138TIP3    H272906   3.386   0.288   2.079  0.9137 -0.4165 -0.4780
17139TIP3   OH272907   5.139   4.241   1.645  0.8962 -0.2035  0.3433
17139TIP3    H172908   5.051   4.217   1.616  0.2153 -0.0861  2.2264
17139TIP3    H272909   5.135   4.335   1.660  0.8952 -0.4290  1.8666
17140TIP3   OH272910   4.643   1.706  15.351 -0.0295 -0.3489  0.3114
17140TIP3    H172911   4.691   1.691  15.270  0.0525  2.8336 -0.2919
17140TIP3    H272912   4.708   1.698  15.421  0.8150  1.2531 -0.2890
17141TIP3   OH272913   2.049   4.227  12.944 -0.1851 -0.8048  0.3462
17141TIP3    H172914   1.981   4.231  13.011 -1.2616  1.3764 -0.8123
17141TIP3    H272915   2.107   4.300  12.964 -0.7122  0.0776 -1.2718
17142TIP3   OH272916   6.679   3.792  11.064 -0.1308 -0.4535  0.4818
17142TIP3    H172917   6.594   3.776  11.104 -0.3950 -0.3741 -0.0385
17142TIP3    H272918   6.679   3.738  10.985 -0.7155  1.4257 -0.8609
17143TIP3   OH272919   1.824   3.578  12.771  0.2284 -0.1646  0.0956
17143TIP3    H172920   1.865   3.591  12.685  0.6091 -1.4800  0.0655
17143TIP3    H272921   1.792   3.665  12.795  0.7630  0.3694 -1.0467
17144TIP3   OH272922   6.230   0.619   2.966 -0.3615 -0.2524  0.1251
17144TIP3    H172923   6.261   0.536   2.930  0.2692 -0.3126  0.8176
17144TIP3    H272924   6.135   0.616   2.953 -0.1265 -0.1063 -1.9075
17145TIP3   OH272925   0.308   1.139   2.623  0.2837 -0.0283 -0.0535
17145TIP3    H172926   0.294   1.233   2.622  0.6113  0.0317  1.2834
17145TIP3    H272927   0.247   1.105   2.688  1.4824 -0.5284  0.8269
17146TIP3   OH272928   6.226   6.273  11.995  0.9424  0.6175  0.9450
17146TIP3    H172929   6.164   6.298  12.064 -1.5236 -0.1176 -0.9368
17146TIP3    H272930   6.274   6.199  12.032 -0.5587  0.0393  1.8042
17147TIP3   OH272931   4.286   1.071  16.026  0.9134  0.5321  0.3492
17147TIP3    H172932   4.264   0.978  16.028  0.3579  0.6274 -0.9576
17147TIP3    H272933   4.366   1.075  15.973 -0.2643  1.0219 -1.4246
17148TIP3   OH272934   2.703   4.565   2.698 -0.3771  0.5830  0.2089
17148TIP3    H172935   2.737   4.579   2.610 -2.6195 -1.2097 -1.0024
17148TIP3    H272936   2.715   4.471   2.714  1.4024  1.1421  2.4569
17149TIP3   OH272937   5.898   1.155   1.930  0.1084 -0.1109  0.3448
17149TIP3    H172938   5.967   1.219   1.911  0.3570 -0.4167  0.2197
17149TIP3    H272939   5.844   1.197   1.997  0.0647  0.3785  0.0019
17150TIP3   OH272940   4.228   5.567   6.009 -0.2101  0.0007  0.0520
17150TIP3    H172941   4.137   5.577   5.984 -0.1786 -0.3487 -0.2042
17150TIP3    H272942   4.243   5.473   6.009 -0.2145 -0.0087  1.4033
17151TIP3   OH272943   2.868   0.677  12.071  0.0270 -0.5488 -0.6094
17151TIP3    H172944   2.872   0.624  11.992  2.6394  0.0809 -0.9639
17151TIP3    H272945   2.807   0.748  12.051 -0.0096 -0.9001 -1.7362
17152TIP3   OH272946   4.019   6.701   1.179  0.1261 -0.3012  0.1654
17152TIP3    H172947   4.066   6.671   1.256  1.0411  1.2714  0.2399
17152TIP3    H272948   3.956   6.631   1.160  0.4686 -1.0739  1.8189
17153TIP3   OH272949   5.714   6.139  17.108 -0.2642  0.9392 -0.3602
17153TIP3    H172950   5.660   6.062  17.123  0.1584  0.4700 -1.2478
17153TIP3    H272951   5.759   6.122  17.025 -0.0189  2.0483 -0.4666
17154TIP3   OH272952   5.657   5.083  11.303  0.2606 -0.7066  0.6095
17154TIP3    H172953   5.673   5.129  11.220  0.1419  1.5645  1.8139
17154TIP3    H272954   5.723   5.013  11.305 -0.6373 -1.7037 -2.0364
17155TIP3   OH272955   2.725   5.371  13.159  0.6178  0.5040  0.1193
17155TIP3    H172956   2.696   5.411  13.076 -0.6005  1.9134  1.2002
17155TIP3    H272957   2.820   5.364  13.149  0.6198  1.6695 -0.9817
17156TIP3   OH272958   5.794   5.040   0.023  0.8732 -0.3326  0.1827
17156TIP3    H172959   5.853   4.969  -0.003  0.3624 -0.4462 -0.6849
17156TIP3    H272960   5.722   4.995   0.067  0.6490 -0.3313 -0.1847
17157TIP3   OH272961   3.965   5.655  15.875  0.4559  0.1751 -0.3115
17157TIP3    H172962   4.019   5.672  15.798  0.0688 -0.3303 -0.6969
17157TIP3    H272963   4.024   5.612  15.937  1.2438  2.1528  0.3754
17158TIP3   OH272964   3.666   0.647  12.196 -0.4122  0.1321 -0.1464
17158TIP3    H172965   3.666   0.609  12.108 -2.0132  0.7028 -0.4033
17158TIP3    H272966   3.595   0.710  12.195 -1.7472 -1.2480  2.1654
17159TIP3   OH272967   4.595   6.539  11.001  0.0787  0.2847  0.2287
17159TIP3    H172968   4.655   6.477  10.960  0.5462  1.5766 -1.0863
17159TIP3    H272969   4.522   6.545  10.941 -0.3626  0.3568  0.7710
17160TIP3   OH272970   5.985   5.780  16.733  0.1849  0.1378 -0.3129
17160TIP3    H172971   6.078   5.771  16.715  0.3891  0.1706  0.6959
17160TIP3    H272972   5.948   5.814  16.652  1.1124  0.5141 -0.5842
17161TIP3   OH272973   4.649   3.889   0.216 -0.0894  0.0120 -0.1090
17161TIP3    H172974   4.663   3.981   0.238 -0.3930  0.6841 -2.5631
17161TIP3    H272975   4.625   3.890   0.124 -0.8988 -2.4771  0.0426
17162TIP3   OH272976   5.004   2.686  11.605  0.3009  0.0388  0.2522
17162TIP3    H172977   4.950   2.766  11.604 -0.1292 -0.2384  0.9432
17162TIP3    H272978   5.083   2.711  11.654  0.3932  0.1848  0.0284
17163TIP3   OH272979   6.476   1.160   6.151  0.4862 -0.3448  0.3619
17163TIP3    H172980   6.463   1.211   6.071 -0.5583 -1.0568  0.0740
17163TIP3    H272981   6.551   1.103   6.131 -0.2292 -1.0408 -0.3830
17164TIP3   OH272982   1.187   1.299   1.088  0.0212 -0.3642  0.0228
17164TIP3    H172983   1.143   1.218   1.062  1.5604 -1.4538  0.7142
17164TIP3    H272984   1.248   1.317   1.017 -0.3605  0.2461 -0.1596
17165TIP3   OH272985   3.353   4.295   2.012  0.2752 -0.3043  0.0319
17165TIP3    H172986   3.374   4.210   1.973  1.1293  0.8846 -2.2061
17165TIP3    H272987   3.260   4.308   1.994  0.5842  0.0770 -1.3829
17166TIP3   OH272988   2.133   3.944  11.684  0.1006  0.2129  0.1942
17166TIP3    H172989   2.037   3.948  11.683  0.0364 -0.9661  0.3810
17166TIP3    H272990   2.154   3.881  11.614  0.8717  2.5814 -1.7772
17167TIP3   OH272991   1.243   5.802  11.295 -0.1313 -0.3545  0.3157
17167TIP3    H172992   1.198   5.766  11.219  0.3740 -0.8959  0.2741
17167TIP3    H272993   1.221   5.742  11.366  1.0233 -0.9605  0.1658
17168TIP3   OH272994   1.914   0.103   2.413 -0.4672  0.3835 -1.1259
17168TIP3    H172995   1.902   0.045   2.488 -1.2392  0.8463 -0.8753
17168TIP3    H272996   1.933   0.045   2.340  1.7010  0.0282 -0.2913
17169TIP3   OH272997   1.986   3.439  15.899 -0.2422 -0.1586 -0.0006
17169TIP3    H172998   1.956   3.515  15.948 -1.7009 -0.5534 -0.2502
17169TIP3    H272999   1.966   3.364  15.955  0.4110 -0.4217 -0.1141
17170TIP3   OH273000   2.318   2.876  12.543 -0.4067 -0.4635 -0.3697
17170TIP3    H173001   2.312   2.800  12.484 -0.8863 -0.2682 -0.5707
17170TIP3    H273002   2.389   2.853  12.603  0.0152 -0.7092 -0.9576
17171TIP3   OH273003   2.482   4.257   4.903 -0.0249 -0.4898 -0.1908
17171TIP3    H173004   2.534   4.335   4.886 -2.1618  0.6452 -1.8152
17171TIP3    H273005   2.419   4.284   4.970 -0.2008 -1.1020 -0.1043
17172TIP3   OH273006   1.014   4.132  15.842 -0.0105 -0.0858 -0.1869
17172TIP3    H173007   1.075   4.063  15.870  0.5305  0.1260 -0.8206
17172TIP3    H273008   0.974   4.098  15.762  0.0936  0.2342 -0.3791
17173TIP3   OH273009   2.173   4.192   6.619  0.7072 -0.1528 -0.3830
17173TIP3    H173010   2.207   4.230   6.538  0.9749 -1.4172 -0.8794
17173TIP3    H273011   2.213   4.105   6.623 -0.1918 -0.5345  0.5281
17174TIP3   OH273012   3.341   6.660  12.282 -0.3888 -0.2291  0.0205
17174TIP3    H173013   3.369   6.709  12.205  1.0495  1.2179  1.4300
17174TIP3    H273014   3.339   6.569  12.254  0.2864  0.2625 -1.6651
17175TIP3   OH273015   0.115   3.392   2.391 -0.1281 -0.1962  0.1799
17175TIP3    H173016   0.036   3.354   2.353 -1.4681 -0.0754  2.8053
17175TIP3    H273017   0.178   3.319   2.394 -0.8656 -0.8364  0.1375
17176TIP3   OH273018   4.837   4.179   3.119 -0.0675 -0.2993  0.2571
17176TIP3    H173019   4.788   4.261   3.117 -0.7888 -0.7254  0.3296
17176TIP3    H273020   4.916   4.199   3.169 -0.5219  0.1894  0.7748
17177TIP3   OH273021   3.594   3.087   5.013  0.2140  0.2211  0.4713
17177TIP3    H173022   3.599   3.093   5.109  0.8365  0.5029  0.4243
17177TIP3    H273023   3.616   2.996   4.994 -0.9605 -0.1159  0.6565
17178TIP3   OH273024   2.613   1.322   3.124  0.1287  0.0157  0.2930
17178TIP3    H173025   2.668   1.249   3.156 -0.3792 -0.8170 -0.7225
17178TIP3    H273026   2.675   1.394   3.111  0.5714 -0.0679  1.7567
17179TIP3   OH273027   2.466   5.221  13.114 -0.0308  0.0651  0.1399
17179TIP3    H173028   2.380   5.260  13.097  0.4070  0.4487 -1.2576
17179TIP3    H273029   2.527   5.295  13.113  0.5962 -0.4644 -1.0074
17180TIP3   OH273030   4.806   1.472  16.947 -0.0237 -0.1760  0.1617
17180TIP3    H173031   4.757   1.397  16.915  1.1544 -0.9145  0.0402
17180TIP3    H273032   4.875   1.434  17.002  0.6936  0.7959 -0.0407
17181TIP3   OH273033   1.616   4.107  10.421 -0.1173 -0.1691 -0.7374
17181TIP3    H173034   1.539   4.114  10.477 -0.7925  1.9768 -1.8764
17181TIP3    H273035   1.689   4.131  10.479 -0.7001  1.0830 -0.4898
17182TIP3   OH273036   6.527   5.581  11.972  0.0691  0.0665  0.6555
17182TIP3    H173037   6.495   5.557  11.885  0.2100 -0.0698  0.6407
17182TIP3    H273038   6.461   5.547  12.032  1.1361 -1.9534  0.7464
17183TIP3   OH273039   5.750   5.069   5.701 -0.3873  0.0177 -0.5166
17183TIP3    H173040   5.687   5.035   5.638 -1.9239 -0.8829  1.4794
17183TIP3    H273041   5.782   4.991   5.748  0.6294  0.6925 -0.0591
17184TIP3   OH273042   2.659   1.389  14.666 -0.1743  0.3574 -0.3358
17184TIP3    H173043   2.674   1.434  14.583 -0.5158  1.0731 -0.0146
17184TIP3    H273044   2.691   1.300  14.652 -0.8183  0.2929 -1.4325
17185TIP3   OH273045   1.210   1.227  12.909 -0.7746 -0.2600 -0.2967
17185TIP3    H173046   1.203   1.139  12.947 -0.9316 -0.4150 -0.6870
17185TIP3    H273047   1.162   1.283  12.970 -0.9697 -0.4990 -0.2285
17186TIP3   OH273048   0.328   0.489  17.209 -0.0350 -0.8456  0.5999
17186TIP3    H173049   0.360   0.400  17.224  1.3277 -0.6670 -1.1268
17186TIP3    H273050   0.399   0.546  17.239 -0.4927 -0.3534  0.7583
17187TIP3   OH273051   5.431   4.250  12.032  0.1413  0.0558  0.0357
17187TIP3    H173052   5.478   4.295  12.103  0.8944 -0.4429 -0.1445
17187TIP3    H273053   5.433   4.158  12.055  3.7311 -0.5996 -2.5000
17188TIP3   OH273054   3.623   1.296  15.333 -0.3890  0.2070  0.0309
17188TIP3    H173055   3.633   1.272  15.241  1.7197  0.0167  0.2996
17188TIP3    H273056   3.659   1.385  15.339 -0.2086  0.0917  0.7364
17189TIP3   OH273057   4.816   2.491  12.797 -0.2799 -0.2460  0.0889
17189TIP3    H173058   4.902   2.456  12.774  0.1743  0.2814  0.9484
17189TIP3    H273059   4.804   2.565  12.737  0.1022 -0.0036  0.3045
17190TIP3   OH273060   6.616   0.991   2.828  0.3353 -0.5155  0.1519
17190TIP3    H173061   6.530   1.003   2.789  0.3985 -0.1119  0.1370
17190TIP3    H273062   6.671   1.058   2.788  0.3982 -0.0880  0.9397
17191TIP3   OH273063   1.955   0.646   6.302 -0.0700  0.0362  0.0496
17191TIP3    H173064   1.891   0.583   6.336  0.5501  0.0530  1.2401
17191TIP3    H273065   1.911   0.731   6.310 -1.1254 -0.2598 -2.0643
17192TIP3   OH273066   0.712   4.367   4.560 -0.1719  0.2887 -0.0134
17192TIP3    H173067   0.806   4.374   4.572  0.0083 -0.3175 -0.9924
17192TIP3    H273068   0.702   4.326   4.474 -1.2748 -2.6478  1.4591
17193TIP3   OH273069   0.570   5.419   5.644 -0.0680  0.9139 -0.4849
17193TIP3    H173070   0.525   5.478   5.583 -0.0273 -0.7518 -2.1570
17193TIP3    H273071   0.499   5.376   5.692 -0.2313 -0.0575 -1.5596
17194TIP3   OH273072   0.930   4.639   0.691 -0.5175  0.1969 -0.1169
17194TIP3    H173073   0.920   4.649   0.786  1.4076 -0.0837  0.1271
17194TIP3    H273074   0.882   4.559   0.671 -2.3624  1.1559  0.3500
17195TIP3   OH273075   4.544   3.323  13.943 -0.0938  1.1324 -1.2312
17195TIP3    H173076   4.564   3.234  13.914  1.2164  0.7382  0.7624
17195TIP3    H273077   4.527   3.371  13.862 -1.2834 -1.0280 -2.3044
17196TIP3   OH273078   0.352   3.666  16.981 -0.5031 -0.0207  0.8496
17196TIP3    H173079   0.325   3.614  17.057  0.9524 -0.0040  1.3912
17196TIP3    H273080   0.304   3.748  16.991 -0.8671 -0.2845  1.3616
17197TIP3   OH273081   0.821   3.592   2.787 -0.3179 -0.2002 -0.4948
17197TIP3    H173082   0.883   3.665   2.785  1.3879 -1.6208 -0.6169
17197TIP3    H273083   0.770   3.602   2.707  1.2676 -0.2799 -1.5420
17198TIP3   OH273084   0.379   2.747  16.458  0.0006  0.3293  0.0089
17198TIP3    H173085   0.291   2.725  16.490 -0.4686  1.6387 -0.3573
17198TIP3    H273086   0.389   2.694  16.379 -1.3907  1.8939 -1.2511
17199TIP3   OH273087   4.245   0.464   5.110 -0.2424 -0.2514  0.7744
17199TIP3    H173088   4.187   0.460   5.186  1.4706  1.2996  2.2215
17199TIP3    H273089   4.221   0.388   5.058 -2.7903 -0.2641  1.8901
17200TIP3   OH273090   2.965   6.351  16.324  0.3293  0.5943  0.1030
17200TIP3    H173091   2.918   6.316  16.400 -0.8580  1.1178 -0.3933
17200TIP3    H273092   3.021   6.421  16.361 -1.0076  1.5476  0.3512
17201TIP3   OH273093   3.551   5.105   1.084 -0.1267 -0.7988 -0.2892
17201TIP3    H173094   3.571   5.036   1.021  0.7136 -1.5825  0.8296
17201TIP3    H273095   3.479   5.071   1.136  1.1280 -1.3993  1.1073
17202TIP3   OH273096   5.202   3.647   2.523 -0.0661  0.1083  0.1353
17202TIP3    H173097   5.263   3.614   2.458  0.6403 -0.4699  1.0815
17202TIP3    H273098   5.247   3.635   2.607 -0.4448  1.9635  0.6408
17203TIP3   OH273099   1.229   0.704  11.522 -0.1390  0.0043 -0.6757
17203TIP3    H173100   1.159   0.640  11.507 -1.0493  0.9095 -0.3746
17203TIP3    H273101   1.308   0.652  11.530 -1.0966 -1.2241  1.1136
17204TIP3   OH273102   2.998   1.573   1.529 -0.2077  0.1312 -0.0855
17204TIP3    H173103   3.084   1.578   1.486  0.6786  0.2143  1.6349
17204TIP3    H273104   2.962   1.488   1.502 -0.0074  0.5140 -1.5774
17205TIP3   OH273105   1.815   4.725   2.203  0.4815  0.1227  0.1760
17205TIP3    H173106   1.852   4.811   2.181  1.2867 -0.0218  0.9678
17205TIP3    H273107   1.787   4.734   2.294 -0.2713 -0.1775 -0.0189
17206TIP3   OH273108   1.608   1.329   5.331 -0.1213 -0.0191 -0.3373
17206TIP3    H173109   1.604   1.398   5.397 -0.4395  0.2619 -0.6471
17206TIP3    H273110   1.576   1.370   5.251  1.5208  0.0088 -0.9959
17207TIP3   OH273111   1.297   5.403  12.762  1.0968  0.5519 -0.0404
17207TIP3    H173112   1.209   5.440  12.766  0.3373 -1.2540  0.3111
17207TIP3    H273113   1.311   5.384  12.669  1.0492  0.6723 -0.0719
17208TIP3   OH273114   4.403   6.266   2.205 -0.0065 -0.5129  0.0253
17208TIP3    H173115   4.329   6.260   2.265 -0.3334 -1.5208 -0.4698
17208TIP3    H273116   4.364   6.292   2.121  0.1942 -1.1075 -0.2537
17209TIP3   OH273117   2.042   6.393   4.973 -0.6541 -0.5474 -0.1371
17209TIP3    H173118   2.043   6.307   5.015  4.1606 -0.8738 -0.6682
17209TIP3    H273119   1.969   6.388   4.911 -2.5865 -2.9931  2.1776
17210TIP3   OH273120   4.113   0.441  14.562 -0.5471  0.7561 -0.6474
17210TIP3    H173121   4.049   0.481  14.622  0.6915  0.9687  0.5486
17210TIP3    H273122   4.176   0.399  14.620 -0.7621 -1.2707 -1.8692
17211TIP3   OH273123   2.135   4.423  17.070  0.9326 -0.8264  0.2493
17211TIP3    H173124   2.204   4.358  17.054  0.7158 -0.9441 -0.2007
17211TIP3    H273125   2.103   4.447  16.983  1.9041  0.8545  0.3265
17212TIP3   OH273126   4.693   0.706   2.346  0.0529 -0.1955  0.0451
17212TIP3    H173127   4.743   0.635   2.386  0.5693 -0.8370 -1.7013
17212TIP3    H273128   4.607   0.668   2.328 -0.0025 -0.0679  0.0376
17213TIP3   OH273129   3.255   5.424   3.954 -0.3481 -0.2952  0.1784
17213TIP3    H173130   3.317   5.353   3.972 -0.4201 -0.3051  0.3818
17213TIP3    H273131   3.171   5.391   3.985 -0.2855  0.0913  0.7699
17214TIP3   OH273132   4.728   5.392  14.067 -0.7445 -0.9618  0.2674
17214TIP3    H173133   4.663   5.373  14.135 -0.7392  0.6490  0.7235
17214TIP3    H273134   4.683   5.451  14.007 -0.0941 -0.7933 -0.0522
17215TIP3   OH273135   0.840   0.163   1.102 -0.0509  0.0781  0.2980
17215TIP3    H173136   0.865   0.073   1.125  0.7214  0.6086  1.5849
17215TIP3    H273137   0.755   0.175   1.143  0.6213  0.4987  1.5983
17216TIP3   OH273138   3.877   4.187   0.816  0.5034 -0.0699 -0.5292
17216TIP3    H173139   3.934   4.259   0.842  0.5102 -1.6248  4.2588
17216TIP3    H273140   3.789   4.221   0.829  0.4548 -0.0430 -0.9258
17217TIP3   OH273141   1.014   3.958  12.411 -0.5146  0.3362  0.5955
17217TIP3    H173142   0.947   3.891  12.422 -0.1661  0.2741  2.4701
17217TIP3    H273143   0.965   4.037  12.386 -0.9983 -0.3822 -0.7671
17218TIP3   OH273144   6.724   4.253   1.949  0.1065  0.1458  0.0589
17218TIP3    H173145   6.739   4.231   2.041 -0.4589  1.0838  0.3826
17218TIP3    H273146   6.802   4.302   1.923  0.8771 -1.2933 -0.3526
17219TIP3   OH273147   1.619   3.312  14.206 -0.3085 -0.7660  0.3418
17219TIP3    H173148   1.536   3.265  14.214 -0.6156 -0.2032  0.5061
17219TIP3    H273149   1.607   3.391  14.260  0.8184 -1.3650  1.4865
17220TIP3   OH273150   6.753   5.939   3.771  0.9306  0.6987 -0.0144
17220TIP3    H173151   6.843   5.972   3.768  1.9848 -2.0660  0.3579
17220TIP3    H273152   6.739   5.900   3.685 -0.3527  2.1561 -0.4881
17221TIP3   OH273153   1.722   1.734   0.880 -0.3717 -0.3193 -1.0126
17221TIP3    H173154   1.650   1.795   0.894 -1.5257 -1.2625 -2.5923
17221TIP3    H273155   1.750   1.750   0.790  1.1537 -0.2216 -0.5306
17222TIP3   OH273156   5.751   1.104   2.932 -0.2296  0.1233 -0.0828
17222TIP3    H173157   5.819   1.037   2.941  1.5691  1.8681 -0.3011
17222TIP3    H273158   5.727   1.126   3.022  0.5845  0.5885  0.0188
17223TIP3   OH273159   0.381   4.970  16.265 -0.4000 -0.3608 -0.1576
17223TIP3    H173160   0.414   5.059  16.250  0.9013 -0.6448  0.9177
17223TIP3    H273161   0.296   4.983  16.306  0.7931  0.4167  2.1422
17224TIP3   OH273162   3.275   4.679  10.997  0.1075  0.3686 -0.3746
17224TIP3    H173163   3.355   4.700  10.949  1.0303  0.5968  1.2313
17224TIP3    H273164   3.267   4.584  10.991 -0.9688  0.5672 -2.7870
17225TIP3   OH273165   3.184   5.038   4.913  0.3372 -0.3797 -0.0345
17225TIP3    H173166   3.270   5.063   4.879  0.0388  1.8529  0.7704
17225TIP3    H273167   3.124   5.100   4.873 -0.5270 -0.2022  1.5117
17226TIP3   OH273168   6.574   4.978   1.094  0.5478 -0.2835 -0.0901
17226TIP3    H173169   6.625   5.052   1.125 -1.3126  0.7572  0.5408
17226TIP3    H273170   6.633   4.903   1.104  2.5057  1.1021 -0.8912
17227TIP3   OH273171   2.289   0.744   4.619 -0.6084  0.1639  0.7784
17227TIP3    H173172   2.220   0.689   4.656 -1.6654  1.0568  0.1791
17227TIP3    H273173   2.246   0.828   4.603 -0.3984 -0.3991 -3.1513
17228TIP3   OH273174   1.888   2.635   0.332 -0.1145 -0.5014  0.1941
17228TIP3    H173175   1.808   2.654   0.382  0.3060  1.1704  0.2706
17228TIP3    H273176   1.858   2.584   0.257 -1.1525 -0.5247  0.6165
17229TIP3   OH273177   2.125   4.339  15.626  0.1685  0.1278 -0.4522
17229TIP3    H173178   2.194   4.277  15.650  0.5751 -0.3055 -2.6427
17229TIP3    H273179   2.169   4.424  15.623  0.5483 -0.0895 -1.4345
17230TIP3   OH273180   4.690   2.770  11.965  0.6059  0.2735  0.1918
17230TIP3    H173181   4.711   2.849  12.015  0.9096  1.3930 -1.6962
17230TIP3    H273182   4.707   2.699  12.027  1.4568  1.6102  1.5411
17231TIP3   OH273183   3.944   5.754  14.027  0.3341  0.8189  0.1824
17231TIP3    H173184   3.965   5.736  14.118  1.4181  0.3859 -0.1496
17231TIP3    H273185   3.997   5.830  14.004  2.2262 -0.7810 -0.8988
17232TIP3   OH273186   2.439   2.718  12.325 -0.3747  0.1757 -0.5000
17232TIP3    H173187   2.448   2.715  12.230  2.1922 -1.3123 -0.2791
17232TIP3    H273188   2.498   2.788  12.353 -0.2418 -0.1638  0.0809
17233TIP3   OH273189   5.291   1.906   2.425 -0.2078  0.4745  0.2106
17233TIP3    H173190   5.352   1.855   2.479 -0.1820  1.7291  1.3998
17233TIP3    H273191   5.315   1.997   2.441 -2.0090  0.9718  0.2296
17234TIP3   OH273192   4.957   6.779   1.713  0.0076 -0.9843 -0.3303
17234TIP3    H173193   4.871   6.816   1.731 -0.7309 -2.2256 -1.2811
17234TIP3    H273194   4.956   6.693   1.755  1.3893 -0.3367  1.0750
17235TIP3   OH273195   0.043   1.953  13.412  0.0596 -0.1333  0.2344
17235TIP3    H173196  -0.038   1.919  13.450  0.7994 -2.1130  0.1118
17235TIP3    H273197   0.071   2.022  13.472 -1.4473  0.2345  0.5377
17236TIP3   OH273198   0.872   3.208   0.427 -0.4937 -0.2538  0.2368
17236TIP3    H173199   0.829   3.240   0.506  1.2837  2.3810  0.1966
17236TIP3    H273200   0.817   3.240   0.355 -0.6277 -0.3101  0.3143
17237TIP3   OH273201   1.985   4.393   3.865 -0.3501 -0.0803  0.2161
17237TIP3    H173202   1.988   4.489   3.870 -0.6910 -0.0359 -0.2935
17237TIP3    H273203   1.906   4.369   3.913 -0.4862 -0.0738 -0.0027
17238TIP3   OH273204   3.667   5.006  12.944 -0.4075 -0.2782 -0.3903
17238TIP3    H173205   3.692   4.967  12.860 -3.5487  0.3349 -1.6704
17238TIP3    H273206   3.729   5.078  12.957  0.6348 -0.9095 -1.7453
17239TIP3   OH273207   0.855   1.226  13.386  0.1788  0.4329  0.7805
17239TIP3    H173208   0.869   1.205  13.294 -0.9164  1.5531  0.3422
17239TIP3    H273209   0.939   1.260  13.416  0.5312  0.0806  0.2019
17240TIP3   OH273210   3.818   5.159   2.502  0.2772 -0.2251  0.0501
17240TIP3    H173211   3.881   5.135   2.571 -1.0782  0.4137  1.5356
17240TIP3    H273212   3.837   5.250   2.482  2.4620 -1.1440 -2.4101
17241TIP3   OH273213   3.131   3.607  11.957  0.2300 -0.7965  0.0029
17241TIP3    H173214   3.184   3.600  11.878 -0.2664 -0.2805 -0.3848
17241TIP3    H273215   3.041   3.599  11.925  0.0307 -0.6490  0.5292
17242TIP3   OH273216   1.772   0.643  15.781 -0.2525 -0.3422 -0.2190
17242TIP3    H173217   1.863   0.621  15.798 -0.3397  0.1048  0.9242
17242TIP3    H273218   1.761   0.731  15.819 -1.1942 -0.4584 -0.2003
17243TIP3   OH273219   5.578   0.349  10.514 -0.0089  0.5324  0.2233
17243TIP3    H173220   5.501   0.383  10.561  0.2669 -1.0341  1.8681
17243TIP3    H273221   5.541   0.296  10.443 -0.4333  3.2033 -1.6446
17244TIP3   OH273222   5.968   5.701   1.537 -0.4493 -0.1716  0.0729
17244TIP3    H173223   6.042   5.754   1.565 -0.0225 -1.0554  0.6039
17244TIP3    H273224   5.938   5.743   1.456 -0.1101  0.8740  0.4918
17245TIP3   OH273225   0.580   3.481   1.627 -0.0192  0.1770  0.0438
17245TIP3    H173226   0.585   3.447   1.538  1.5243  0.0664  0.1570
17245TIP3    H273227   0.584   3.576   1.618  1.6585  0.1154  0.0796
17246TIP3   OH273228   3.686   3.056   1.543 -0.0563  0.4481 -0.4816
17246TIP3    H173229   3.741   3.078   1.468  1.6640  0.5957  0.8009
17246TIP3    H273230   3.662   3.141   1.580 -2.1821  0.4327 -1.7287
17247TIP3   OH273231   1.442   2.211   0.405  0.1752  0.5251 -0.2011
17247TIP3    H173232   1.498   2.278   0.445  1.2029 -0.5026  0.1385
17247TIP3    H273233   1.400   2.167   0.480 -0.7747  1.0254 -0.4367
17248TIP3   OH273234   5.413   0.335  11.726  0.0650 -0.0072 -0.0028
17248TIP3    H173235   5.452   0.256  11.688  1.2598  0.7955 -0.4709
17248TIP3    H273236   5.391   0.310  11.816  0.7828 -0.7633 -0.0302
17249TIP3   OH273237   6.185   5.645  13.811  0.1518 -0.1613 -0.4922
17249TIP3    H173238   6.185   5.653  13.716  0.3419  1.0753 -0.3854
17249TIP3    H273239   6.263   5.593  13.830  0.7573  0.5708 -0.9337
17250TIP3   OH273240   1.681   2.802  15.292 -0.2602  0.0334 -0.1787
17250TIP3    H173241   1.649   2.891  15.303 -0.8223 -0.0835 -0.8085
17250TIP3    H273242   1.684   2.765  15.381 -0.3824  0.5538  0.0392
17251TIP3   OH273243   2.389   4.429  15.207 -1.0850  0.3372  0.0487
17251TIP3    H173244   2.420   4.503  15.156 -0.8360  1.4140  1.7219
17251TIP3    H273245   2.415   4.352  15.156  0.0754  1.3510 -0.9149
17252TIP3   OH273246   1.136   2.789   4.242  0.1771 -0.6559  0.4782
17252TIP3    H173247   1.220   2.834   4.245 -1.7960  3.3121 -0.5147
17252TIP3    H273248   1.127   2.762   4.150  1.4127 -3.2911  1.0970
17253TIP3   OH273249   5.177   3.128   3.263  0.1483  0.0477 -0.2960
17253TIP3    H173250   5.159   3.124   3.357  2.3799  1.0667  0.2020
17253TIP3    H273251   5.219   3.045   3.242  0.8359  0.3440 -0.1137
17254TIP3   OH273252   2.107   6.316   5.360 -0.3398 -0.0086 -0.1008
17254TIP3    H173253   2.157   6.239   5.334 -0.9948 -0.3558 -0.3327
17254TIP3    H273254   2.025   6.309   5.312  0.2634  1.7162 -1.4678
17255TIP3   OH273255   1.147   5.560  11.496  0.1269 -0.2724 -0.1038
17255TIP3    H173256   1.134   5.622  11.568 -2.0802  0.3333 -0.9995
17255TIP3    H273257   1.163   5.476  11.539  2.7704  0.7934  1.1228
17256TIP3   OH273258   2.262   5.143  14.132 -0.1510 -0.5504 -0.4272
17256TIP3    H173259   2.290   5.082  14.063 -1.3092 -1.9371  0.3023
17256TIP3    H273260   2.243   5.224  14.085  0.8139 -0.9376 -1.5099
17257TIP3   OH273261   1.100   2.757  16.962 -0.3126  0.3314  0.2863
17257TIP3    H173262   1.165   2.826  16.970  0.4603 -0.3430 -0.1183
17257TIP3    H273263   1.033   2.793  16.904  0.5881  0.3777 -0.7354
17258TIP3   OH273264   6.427   4.954   3.918 -0.3189  0.0130  0.3115
17258TIP3    H173265   6.365   5.003   3.865 -0.6916 -1.2457 -0.4412
17258TIP3    H273266   6.374   4.911   3.986  0.1413  1.5294  1.6626
17259TIP3   OH273267   5.370   4.449   0.406  0.0015  0.3494 -0.2080
17259TIP3    H173268   5.403   4.518   0.463 -0.2420 -1.4389  2.1585
17259TIP3    H273269   5.449   4.403   0.377  0.0562  0.5869 -0.4356
17260TIP3   OH273270   1.180   1.482   0.076 -0.1992  0.4316 -0.4943
17260TIP3    H173271   1.148   1.469   0.165  0.9774  1.8179  0.1531
17260TIP3    H273272   1.271   1.451   0.078  0.2849  1.7886 -0.8281
17261TIP3   OH273273   3.006   6.468  12.091 -0.3111 -0.2763 -0.0780
17261TIP3    H173274   3.071   6.425  12.034 -2.7740 -0.6979 -2.6700
17261TIP3    H273275   3.019   6.426  12.176  1.2940 -1.9888 -1.0980
17262TIP3   OH273276   1.201   0.856   1.187  0.0394 -0.2675 -0.1196
17262TIP3    H173277   1.201   0.761   1.171 -0.6438 -0.8821  3.1031
17262TIP3    H273278   1.135   0.869   1.255  0.0643  2.5573 -0.5838
17263TIP3   OH273279   1.249   3.842  11.265 -0.2209  0.6750 -0.1364
17263TIP3    H173280   1.319   3.833  11.201 -1.5161 -0.2632 -1.4603
17263TIP3    H273281   1.168   3.842  11.213 -1.4144 -2.0300  1.5556
17264TIP3   OH273282   1.789   1.132   0.192  0.3037  0.1330 -0.0110
17264TIP3    H173283   1.835   1.213   0.212  1.4400 -0.8272  1.3699
17264TIP3    H273284   1.747   1.107   0.274 -1.5402  0.2384 -0.8880
17265TIP3   OH273285   1.408   6.139   1.437 -0.2182 -0.2421  0.0823
17265TIP3    H173286   1.423   6.056   1.481  4.1250  1.2292  1.6914
17265TIP3    H273287   1.441   6.125   1.348 -0.0079 -0.4363  0.1902
17266TIP3   OH273288   2.562   1.408   5.055 -0.3297  0.4386  0.1958
17266TIP3    H173289   2.531   1.390   5.144  0.5963 -3.0807 -0.1130
17266TIP3    H273290   2.654   1.432   5.066 -0.2443  0.1097  0.2105
17267TIP3   OH273291   0.287   0.587  16.636 -0.3797  0.1397  0.1322
17267TIP3    H173292   0.253   0.507  16.676 -0.7931  0.6364  0.7917
17267TIP3    H273293   0.378   0.568  16.617 -0.5664 -0.6090 -0.0289
17268TIP3   OH273294   1.035   2.560  16.591 -0.4193  0.0189 -0.0143
17268TIP3    H173295   1.090   2.605  16.655  0.6241  2.3668 -2.5032
17268TIP3    H273296   0.954   2.611  16.589 -0.7491 -0.5048  0.0017
17269TIP3   OH273297   0.897   2.829  15.061 -0.4699 -0.7003  0.2196
17269TIP3    H173298   0.964   2.883  15.102 -0.5805  0.1450 -0.6887
17269TIP3    H273299   0.935   2.741  15.060  0.7940 -0.1637 -0.6171
17270TIP3   OH273300   5.039   1.719  15.021  0.1608 -0.0382  0.1796
17270TIP3    H173301   5.034   1.784  15.091  1.0400 -0.1824  0.3804
17270TIP3    H273302   5.035   1.770  14.941  1.3851  0.3178  0.3344
17271TIP3   OH273303   2.611   5.429   0.774  0.4164  0.5479 -0.4248
17271TIP3    H173304   2.692   5.467   0.809  0.9752 -0.5475 -0.5187
17271TIP3    H273305   2.638   5.346   0.735 -0.9651 -0.4972  0.7724
17272TIP3   OH273306   5.245   3.917  14.211 -0.2319  0.6092  0.4629
17272TIP3    H173307   5.339   3.937  14.204 -0.1751 -0.1385 -1.1521
17272TIP3    H273308   5.203   4.003  14.215  0.4931  0.9622  0.6855
17273TIP3   OH273309   6.531   3.964   0.502 -0.2097 -0.0693  0.6788
17273TIP3    H173310   6.551   4.003   0.417 -3.0864 -0.9101 -0.4676
17273TIP3    H273311   6.490   3.880   0.481 -1.1088 -0.2312  2.8686
17274TIP3   OH273312   0.426   4.204   5.851  0.5650 -0.2131  0.4176
17274TIP3    H173313   0.377   4.257   5.913  1.5231  0.7802  0.3278
17274TIP3    H273314   0.512   4.245   5.846  0.5943 -0.4468 -1.3520
17275TIP3   OH273315   0.567   2.997   4.097 -0.0337  0.6491  0.1368
17275TIP3    H173316   0.543   2.965   4.184 -1.6058 -0.3704 -0.6510
17275TIP3    H273317   0.543   3.090   4.098 -0.2558  0.5868  0.7001
17276TIP3   OH273318   3.297   3.105   1.036 -0.2290 -0.4390 -0.5584
17276TIP3    H173319   3.322   3.168   1.103 -2.1950 -0.4021  0.1517
17276TIP3    H273320   3.202   3.115   1.027 -0.8177 -4.3336  0.6317
17277TIP3   OH273321   5.407   5.482   0.637  0.2167 -0.0226 -0.3876
17277TIP3    H173322   5.333   5.489   0.697  0.6816 -0.3171  0.2283
17277TIP3    H273323   5.471   5.429   0.684  0.4606 -0.5362 -1.2721
17278TIP3   OH273324   3.689   1.342   3.890  0.1394  0.0119  0.3407
17278TIP3    H173325   3.625   1.413   3.886 -0.7058 -0.8070 -1.4579
17278TIP3    H273326   3.740   1.352   3.810  0.4562 -1.0160  0.4161
17279TIP3   OH273327   1.248   3.166  17.195  0.0778 -0.4944 -0.0380
17279TIP3    H173328   1.241   3.082  17.150  2.3234 -0.7011 -0.0522
17279TIP3    H273329   1.342   3.183  17.200 -0.2387  0.7925  2.2677
17280TIP3   OH273330   4.003   0.939  15.582 -0.4385 -0.0557 -0.4324
17280TIP3    H173331   4.074   1.003  15.578  0.0192 -0.5714 -0.6902
17280TIP3    H273332   3.931   0.979  15.534 -0.0091  0.0878 -0.9671
17281TIP3   OH273333   1.052   6.806   3.688  0.7791  0.4847  0.4456
17281TIP3    H173334   1.116   6.878   3.692 -0.1035  1.7294 -4.3091
17281TIP3    H273335   1.100   6.734   3.648  0.3754  0.0121  0.8186
17282TIP3   OH273336   0.889   5.596   5.531 -0.3303  0.4753  0.2864
17282TIP3    H173337   0.944   5.520   5.513 -1.4390 -0.5683  1.1495
17282TIP3    H273338   0.804   5.575   5.491 -0.4554  1.5420 -0.0275
17283TIP3   OH273339   6.706   2.163   1.539  0.3262  0.5284  0.3001
17283TIP3    H173340   6.752   2.080   1.527 -1.4648 -0.3498 -0.7651
17283TIP3    H273341   6.753   2.207   1.609  1.8177 -1.0230  0.3014
17284TIP3   OH273342   4.897   6.008  14.395 -0.5394 -0.5389  0.3489
17284TIP3    H173343   4.990   5.998  14.378 -0.3600  0.2649  0.8910
17284TIP3    H273344   4.878   6.100  14.379 -0.7916 -0.2157  2.4616
17285TIP3   OH273345   0.814   6.407   0.168  0.0870 -0.1905  0.2486
17285TIP3    H173346   0.775   6.395   0.082  1.6430 -0.0898 -0.4902
17285TIP3    H273347   0.846   6.321   0.193  0.4310 -0.0363  0.3418
17286TIP3   OH273348   3.390   4.964   6.202  1.0395  0.0874  0.0349
17286TIP3    H173349   3.322   5.013   6.249 -1.1414 -0.2683 -2.6136
17286TIP3    H273350   3.426   5.027   6.139  0.7797 -0.6641 -0.8774
17287TIP3   OH273351   3.609   4.442  16.616  0.0828 -0.2589  0.0708
17287TIP3    H173352   3.612   4.521  16.670  1.1003  0.0770 -0.4474
17287TIP3    H273353   3.598   4.370  16.678 -3.9559  0.4960  0.3295
17288TIP3   OH273354   1.539   1.264  16.981 -0.0357 -0.5990  0.1676
17288TIP3    H173355   1.473   1.328  16.956 -0.4490 -1.3254 -0.6127
17288TIP3    H273356   1.612   1.281  16.922  0.5268  0.2668  1.0906
17289TIP3   OH273357   4.885   3.560   5.660  0.2973  0.1630 -0.0206
17289TIP3    H173358   4.909   3.649   5.685  0.9419  0.1231 -0.4691
17289TIP3    H273359   4.791   3.555   5.676 -0.0751  1.4927 -1.6179
17290TIP3   OH273360   6.701   6.492   0.746  0.2041 -0.0875  0.1221
17290TIP3    H173361   6.754   6.569   0.767  0.3839 -0.6394  1.7701
17290TIP3    H273362   6.652   6.474   0.827 -0.8161 -0.9268 -0.6646
17291TIP3   OH273363   6.627   5.907   6.008 -0.4266  0.1042  0.1086
17291TIP3    H173364   6.677   5.828   5.987 -0.0001  0.7232 -1.1936
17291TIP3    H273365   6.682   5.955   6.070 -0.6539 -0.5628  0.8458
17292TIP3   OH273366   2.763   5.400   0.046  0.1363 -0.4292 -0.2886
17292TIP3    H173367   2.781   5.307   0.057 -0.4601 -0.4295  0.7458
17292TIP3    H273368   2.673   5.411   0.075  0.5129  0.6247  0.5289
17293TIP3   OH273369   0.393   3.352  14.899  0.0082  0.5216 -0.6034
17293TIP3    H173370   0.378   3.291  14.971  0.4228  0.4419 -0.5814
17293TIP3    H273371   0.479   3.326  14.864  0.5965  1.6670 -0.0337
17294TIP3   OH273372   2.480   4.581  16.903  0.0365  0.4608 -0.2061
17294TIP3    H173373   2.495   4.672  16.930  1.4374  0.2510 -0.2476
17294TIP3    H273374   2.522   4.529  16.971 -1.0891 -0.1827  0.0151
17295TIP3   OH273375   0.638   2.687  14.127  0.4372 -0.4020  0.1088
17295TIP3    H173376   0.654   2.628  14.201 -1.7317 -1.4449 -0.2279
17295TIP3    H273377   0.570   2.746  14.158  1.0256  0.5060 -0.3305
17296TIP3   OH273378   2.454   3.696  13.319 -0.2155 -0.0738  0.0666
17296TIP3    H173379   2.530   3.710  13.377 -0.0545  0.8264 -0.3478
17296TIP3    H273380   2.436   3.603  13.325  1.9544 -0.5995 -1.0762
17297TIP3   OH273381   0.751   1.340   5.018  0.1663 -0.2579 -0.3176
17297TIP3    H173382   0.663   1.355   4.983  0.5307 -1.1526 -1.6088
17297TIP3    H273383   0.798   1.296   4.948  1.3400 -0.7326  0.7534
17298TIP3   OH273384   5.055   2.716  12.002  0.5165  0.5696 -0.2179
17298TIP3    H173385   5.101   2.740  11.922 -0.0663  0.7426 -0.4979
17298TIP3    H273386   5.095   2.632  12.027  1.6138  1.1594  0.0392
17299TIP3   OH273387   4.769   6.202   0.329 -0.8769 -0.7705 -0.2069
17299TIP3    H173388   4.767   6.164   0.417 -0.9618  0.9976  0.5763
17299TIP3    H273389   4.681   6.187   0.295 -1.1248 -0.6573  0.3743
17300TIP3   OH273390   5.457   5.226  14.111  0.0483 -0.5445 -0.2428
17300TIP3    H173391   5.389   5.290  14.089 -0.3491 -1.0350 -0.4455
17300TIP3    H273392   5.485   5.191  14.026  1.2816  0.3932 -0.2334
17301TIP3   OH273393   2.791   0.600   5.732 -0.1331 -0.3338  0.8279
17301TIP3    H173394   2.724   0.635   5.790 -1.0437 -0.6098 -0.0303
17301TIP3    H273395   2.861   0.666   5.732 -0.0530 -0.3969  2.3212
17302TIP3   OH273396   5.344   2.608   1.810 -0.0141 -0.5470  0.1851
17302TIP3    H173397   5.299   2.529   1.782  0.1116  0.0669 -1.8136
17302TIP3    H273398   5.434   2.598   1.778  0.0957  0.2340  0.2257
17303TIP3   OH273399   1.799   1.866   5.588  0.0934  0.0314 -0.2047
17303TIP3    H173400   1.706   1.873   5.564 -0.1680 -0.0722  0.7626
17303TIP3    H273401   1.816   1.943   5.641 -0.1440 -1.3101  1.8637
17304TIP3   OH273402   1.389   2.468  16.867  0.3526 -0.2332 -0.3116
17304TIP3    H173403   1.387   2.498  16.776 -0.1144  0.8857  0.0517
17304TIP3    H273404   1.421   2.544  16.916 -2.7535  0.3867  0.8873
17305TIP3   OH273405   3.069   6.402  13.821  0.4337  0.4183  0.0434
17305TIP3    H173406   2.997   6.465  13.813  0.4972  0.6127  0.9247
17305TIP3    H273407   3.080   6.366  13.733 -1.9850 -0.9677  0.2563
17306TIP3   OH273408   0.643   6.389   2.800  0.5521 -0.1430  0.2162
17306TIP3    H173409   0.638   6.480   2.830  0.6725 -0.4386  1.1715
17306TIP3    H273410   0.598   6.339   2.869  1.8164 -0.9688  0.4643
17307TIP3   OH273411   1.979   0.876  15.747 -0.3960  0.3975 -0.2733
17307TIP3    H173412   2.012   0.962  15.720  0.9557 -0.1894 -0.5197
17307TIP3    H273413   1.929   0.846  15.671  0.5495  0.2363 -0.8434
17308TIP3   OH273414   1.266   4.040  12.288 -0.4176 -0.1691  0.0702
17308TIP3    H173415   1.185   4.008  12.328  0.0725 -1.6220 -0.0479
17308TIP3    H273416   1.298   4.107  12.347 -0.8637 -0.7451  0.9727
17309TIP3   OH273417   0.555   1.078  12.090 -0.3803  0.1863 -0.6507
17309TIP3    H173418   0.636   1.051  12.047  0.6787  1.5358  0.4422
17309TIP3    H273419   0.485   1.033  12.042  0.9415 -0.1990 -2.2250
17310TIP3   OH273420   4.245   4.540   0.729  0.2676  0.1129 -0.0118
17310TIP3    H173421   4.273   4.622   0.770 -0.9613  0.5378  0.0214
17310TIP3    H273422   4.245   4.477   0.801 -0.1461  0.4256  0.2678
17311TIP3   OH273423   2.677   1.195   0.224 -0.5268 -0.6683  0.6840
17311TIP3    H173424   2.613   1.198   0.295  0.2854  1.0349  1.3661
17311TIP3    H273425   2.680   1.284   0.190  2.5763 -0.3175  1.6858
17312TIP3   OH273426   1.225   4.463  14.837 -0.1126  0.1582 -0.9159
17312TIP3    H173427   1.230   4.546  14.886  0.2193  0.2887 -1.1632
17312TIP3    H273428   1.317   4.441  14.820 -0.2167 -0.0612 -1.1872
17313TIP3   OH273429   5.485   0.236   5.235  0.2016  0.3484  0.9959
17313TIP3    H173430   5.447   0.296   5.172  1.1699  0.2154  0.2579
17313TIP3    H273431   5.494   0.287   5.316  0.2615  0.9437  0.6130
17314TIP3   OH273432   5.586   0.339  12.288 -0.1291  0.5720  0.4759
17314TIP3    H173433   5.571   0.426  12.252  1.1662  0.9861  0.9094
17314TIP3    H273434   5.670   0.346  12.334 -0.4133 -0.6827  1.2140
17315TIP3   OH273435   4.987   4.301   4.172 -0.1478 -0.2122  0.8524
17315TIP3    H173436   4.967   4.316   4.265 -1.1558  0.2318  0.5756
17315TIP3    H273437   4.989   4.388   4.134 -0.7213 -0.4551  0.2614
17316TIP3   OH273438   0.987   5.698   1.146 -0.3033 -0.0639 -0.1565
17316TIP3    H173439   1.053   5.767   1.135 -1.2017  1.0373  1.2559
17316TIP3    H273440   0.949   5.687   1.059  0.2342  0.8131 -0.5054
17317TIP3   OH273441   4.105   3.008   5.695  0.8966 -0.3242  0.0435
17317TIP3    H173442   4.100   2.913   5.703 -0.0451 -0.2810  0.0848
17317TIP3    H273443   4.198   3.028   5.697  1.1269 -1.3089 -0.7037
17318TIP3   OH273444   2.867   5.761  15.655  0.2939 -0.2450  0.6366
17318TIP3    H173445   2.804   5.730  15.591 -0.5359  0.7212  0.9734
17318TIP3    H273446   2.952   5.751  15.613 -0.3451  1.8198 -1.2146
17319TIP3   OH273447   3.289   2.180  14.243  0.0126 -0.2693 -0.0204
17319TIP3    H173448   3.355   2.249  14.254  0.7156 -1.1657  1.5370
17319TIP3    H273449   3.210   2.217  14.281  0.3211 -0.1935  0.5644
17320TIP3   OH273450   3.260   3.468   3.829  0.4787  0.0569  0.3227
17320TIP3    H173451   3.340   3.517   3.810  0.1360  0.2334 -0.7337
17320TIP3    H273452   3.219   3.515   3.902  1.5225 -0.2532  1.1095
17321TIP3   OH273453   0.039   1.576   5.607 -0.3994 -0.0133 -0.8198
17321TIP3    H173454  -0.021   1.540   5.672 -0.6619 -0.0879 -1.1040
17321TIP3    H273455   0.021   1.526   5.527 -1.1100  1.0682 -1.3509
17322TIP3   OH273456   1.850   1.072   1.367 -0.0640  0.3545 -0.3061
17322TIP3    H173457   1.925   1.025   1.403  0.0128 -0.5271 -1.5863
17322TIP3    H273458   1.886   1.121   1.293 -0.8938 -0.6848 -1.4009
17323TIP3   OH273459   2.834   3.559   4.633 -0.0611  0.4027 -0.0992
17323TIP3    H173460   2.763   3.518   4.584  1.4417 -0.9420 -1.2104
17323TIP3    H273461   2.864   3.631   4.577  0.5918 -0.1165 -0.4168
17324TIP3   OH273462   0.915   6.716   4.144  0.1855  0.1393  0.0084
17324TIP3    H173463   0.946   6.636   4.186 -2.1722 -0.1288  1.3204
17324TIP3    H273464   0.903   6.692   4.052 -2.3223 -1.5786  0.7583
17325TIP3   OH273465   6.682   2.594   6.404 -0.0091 -0.6047  0.0654
17325TIP3    H173466   6.627   2.516   6.410 -1.4142  0.2688 -0.9398
17325TIP3    H273467   6.671   2.623   6.313  0.0924  1.0339  0.5707
17326TIP3   OH273468   0.571   1.963  14.417 -0.1232 -0.0765 -0.1970
17326TIP3    H173469   0.542   1.924  14.334  0.3413  1.3909 -1.0788
17326TIP3    H273470   0.507   1.933  14.481 -0.8352 -0.7670 -1.2106
17327TIP3   OH273471   0.305   1.089   2.286 -0.2528  0.1753  0.0195
17327TIP3    H173472   0.299   1.182   2.267  0.7138  0.2403 -0.0361
17327TIP3    H273473   0.398   1.069   2.274 -0.3369 -0.6466  0.6951
17328TIP3   OH273474   5.022   5.288  15.702 -0.5908  0.2669  0.9922
17328TIP3    H173475   5.027   5.221  15.634  0.3893  1.4316 -0.0953
17328TIP3    H273476   4.986   5.365  15.658 -0.6511  0.8077  1.9678
17329TIP3   OH273477   3.879   5.927  12.845 -0.4830  0.0211 -0.0799
17329TIP3    H173478   3.954   5.985  12.852  0.1463 -0.8162  0.2219
17329TIP3    H273479   3.813   5.978  12.799  0.6502  0.3970 -1.3072
17330TIP3   OH273480   3.051   2.148  16.300  0.3032  0.0093  0.6797
17330TIP3    H173481   2.957   2.130  16.295  0.2253  0.8063 -1.1905
17330TIP3    H273482   3.082   2.141  16.210  1.8033  1.0232  1.0878
17331TIP3   OH273483   4.311   6.061  15.536  0.0322  0.2122  0.3205
17331TIP3    H173484   4.271   6.140  15.498  1.4762  0.9077  0.2323
17331TIP3    H273485   4.250   6.034  15.605 -0.4216  1.4707  0.4194
17332TIP3   OH273486   0.996   4.668   1.327  0.4777 -0.1016 -0.6315
17332TIP3    H173487   1.014   4.671   1.421 -1.9173  1.5281 -0.1820
17332TIP3    H273488   1.070   4.716   1.288  0.6535  0.6478  0.5700
17333TIP3   OH273489   0.970   4.645  14.906  0.9556 -0.5685 -0.3506
17333TIP3    H173490   0.887   4.693  14.912  0.7923 -0.8830 -0.0903
17333TIP3    H273491   0.944   4.554  14.892  1.2562 -0.6648 -0.2881
17334TIP3   OH273492   3.015   1.732   5.169  0.8452 -0.0667  0.1354
17334TIP3    H173493   3.084   1.674   5.201  3.2160  1.9695 -1.2161
17334TIP3    H273494   3.040   1.819   5.198 -0.8156  0.8097 -0.9802
17335TIP3   OH273495   1.291   3.319  16.602 -0.9516 -0.5504 -0.3664
17335TIP3    H173496   1.277   3.397  16.547  0.7499  1.1188  1.4921
17335TIP3    H273497   1.202   3.293  16.628 -1.6642 -0.3029 -2.3998
17336TIP3   OH273498   4.559   2.164  12.305  0.1742  0.2638  0.6706
17336TIP3    H173499   4.576   2.072  12.325  0.1970  0.0186 -0.4918
17336TIP3    H273500   4.612   2.212  12.370 -0.2328 -0.5331  1.5982
17337TIP3   OH273501   2.185   6.605  15.651  0.1142 -0.2873  0.4328
17337TIP3    H173502   2.165   6.645  15.736  1.0470  1.5650 -0.1901
17337TIP3    H273503   2.135   6.657  15.588  0.4340 -0.8393 -0.2864
17338TIP3   OH273504   0.995   2.302   1.011 -0.6073 -0.1301  0.3178
17338TIP3    H173505   0.974   2.394   1.024 -0.8072 -0.5899  3.5796
17338TIP3    H273506   0.993   2.264   1.099  0.1520 -3.1041 -0.8921
17339TIP3   OH273507   1.355   0.043  11.481  0.4433 -0.2813 -0.2542
17339TIP3    H173508   1.440   0.004  11.459 -0.2935 -1.4716 -1.0086
17339TIP3    H273509   1.327  -0.003  11.560  0.5030  0.1158 -0.0026
17340TIP3   OH273510   0.524   4.417  16.067  0.3366 -0.1867  0.1096
17340TIP3    H173511   0.486   4.403  15.980 -0.5374  1.7759  0.1575
17340TIP3    H273512   0.610   4.455  16.050  2.8973 -5.6072 -0.0337
17341TIP3   OH273513   0.769   0.739  16.086  0.4492  0.4443  0.8044
17341TIP3    H173514   0.848   0.753  16.033  0.5501  1.3515  1.1805
17341TIP3    H273515   0.764   0.817  16.142 -0.6547  0.3363  0.8592
17342TIP3   OH273516   5.526   6.555   3.767  0.1649  0.1577  0.2184
17342TIP3    H173517   5.601   6.584   3.715  0.1894 -0.3145 -0.0153
17342TIP3    H273518   5.562   6.539   3.854  0.3807 -0.2520  0.0583
17343TIP3   OH273519   2.192   6.374  14.242 -0.3658  0.3262  0.1154
17343TIP3    H173520   2.229   6.404  14.325  0.0441 -0.0790  0.0837
17343TIP3    H273521   2.181   6.454  14.190  2.3705  0.2664 -0.6306
17344TIP3   OH273522   1.707   4.473   1.692  0.7554 -0.0189 -0.5809
17344TIP3    H173523   1.744   4.471   1.780  0.5714  1.9081 -0.4461
17344TIP3    H273524   1.690   4.381   1.671  0.4178 -0.4572  1.5392
17345TIP3   OH273525   2.642   5.492  14.598  0.7181  0.2194 -0.2580
17345TIP3    H173526   2.679   5.508  14.511  0.7527 -2.5837 -0.8156
17345TIP3    H273527   2.703   5.430  14.638  0.3271  0.9639  1.5236
17346TIP3   OH273528   6.501   3.040   1.733 -0.3075  0.9132 -0.2506
17346TIP3    H173529   6.544   3.030   1.817  2.3556  0.4310 -1.6166
17346TIP3    H273530   6.537   3.121   1.696  0.0533  0.0929 -1.7584
17347TIP3   OH273531   4.497   4.858   5.380  0.9953  0.1783 -0.1320
17347TIP3    H173532   4.417   4.908   5.362  2.0753  1.6090 -1.1214
17347TIP3    H273533   4.542   4.910   5.447  1.3845 -0.3255 -0.0035
17348TIP3   OH273534   0.091   5.130  11.707  0.2603  0.5854  0.6938
17348TIP3    H173535   0.182   5.131  11.676 -0.4653 -1.8020 -1.6692
17348TIP3    H273536   0.063   5.221  11.702  1.8140  1.0107 -0.7043
17349TIP3   OH273537   2.229   1.052  12.076  0.1721  0.2070  0.6060
17349TIP3    H173538   2.184   1.135  12.058  1.3925  1.3372  2.5704
17349TIP3    H273539   2.275   1.031  11.995 -1.1098  0.8257 -0.2992
17350TIP3   OH273540   1.393   2.127  17.220  0.2373  0.0639  0.5070
17350TIP3    H173541   1.451   2.117  17.296  0.6800 -0.5599  0.0908
17350TIP3    H273542   1.392   2.222  17.204  2.2124 -0.0127 -0.2933
17351TIP3   OH273543   3.021   2.229  17.064 -0.5546 -0.4266  0.3926
17351TIP3    H173544   2.933   2.263  17.081  0.0538  1.5724 -0.4068
17351TIP3    H273545   3.078   2.306  17.067  1.2117 -1.7323  1.1034
17352TIP3   OH273546   5.337   4.705   0.533  0.2140  0.5530  0.3038
17352TIP3    H173547   5.283   4.766   0.483 -0.1213  0.6309  0.7653
17352TIP3    H273548   5.387   4.760   0.593 -2.6636  0.1468  3.2166
17353TIP3   OH273549   6.619   3.602  16.573 -0.3136  0.2683 -0.4330
17353TIP3    H173550   6.535   3.556  16.572  0.5438 -1.4036 -3.0612
17353TIP3    H273551   6.672   3.553  16.635 -1.0879  0.9823  0.8064
17354TIP3   OH273552   6.395   3.734   2.064 -0.1733  0.3892  0.2774
17354TIP3    H173553   6.486   3.765   2.058 -0.2319  0.6893  0.8284
17354TIP3    H273554   6.390   3.661   2.003  0.3974  0.4748  0.1228
17355TIP3   OH273555   3.671   6.693  11.358  0.1027 -0.2137 -0.4480
17355TIP3    H173556   3.576   6.685  11.351  0.0364  0.2236 -0.0793
17355TIP3    H273557   3.701   6.704  11.268 -0.1278 -1.0889 -0.6325
17356TIP3   OH273558   1.076   0.952  12.901 -0.0186 -0.0004 -0.8209
17356TIP3    H173559   0.999   0.974  12.953  1.6326 -0.0703  1.7677
17356TIP3    H273560   1.080   0.856  12.905 -0.2926 -0.0536 -1.7152
17357TIP3   OH273561   3.212   0.226  14.089 -0.0092  0.0136 -0.5533
17357TIP3    H173562   3.247   0.294  14.031 -0.6900  0.5998 -0.2885
17357TIP3    H273563   3.117   0.230  14.076 -0.0642 -0.7992 -0.4293
17358TIP3   OH273564   0.512   5.333   2.073 -0.2374  0.0296 -0.1469
17358TIP3    H173565   0.591   5.319   2.022 -0.0960 -0.4135  0.1890
17358TIP3    H273566   0.442   5.337   2.009 -0.2177 -1.7083 -0.2965
17359TIP3   OH273567   2.786   2.623   0.762  0.0912  0.1331  0.2057
17359TIP3    H173568   2.734   2.563   0.709 -0.0234 -0.1189  0.6022
17359TIP3    H273569   2.770   2.595   0.852  0.5179  0.3751  0.3559
17360TIP3   OH273570   4.162   4.826   0.744 -0.4852 -0.6064  0.1560
17360TIP3    H173571   4.216   4.898   0.711 -1.5128 -0.3068 -0.8994
17360TIP3    H273572   4.149   4.847   0.837 -0.2914  0.2698 -0.0079
17361TIP3   OH273573   4.757   3.788   0.959 -0.1934 -0.1752 -0.0726
17361TIP3    H173574   4.710   3.731   0.899 -0.6303 -1.3991  1.3840
17361TIP3    H273575   4.688   3.825   1.015  0.0905  1.7569 -0.9762
17362TIP3   OH273576   3.519   3.450  14.546  0.5380 -0.2785 -0.2395
17362TIP3    H173577   3.537   3.538  14.511 -0.6612  0.1697  0.2400
17362TIP3    H273578   3.568   3.391  14.489 -0.1063  0.5658 -1.7005
17363TIP3   OH273579   3.744   6.633  13.577  0.4128 -0.1277  0.4093
17363TIP3    H173580   3.738   6.701  13.644 -0.5596 -1.8415  2.1104
17363TIP3    H273581   3.751   6.552  13.627  3.9250 -1.1291 -1.5643
17364TIP3   OH273582   1.669   1.505   4.883 -0.2018 -0.2128  0.1371
17364TIP3    H173583   1.754   1.470   4.911  0.4296  1.2946  0.1271
17364TIP3    H273584   1.690   1.568   4.814 -1.2537  0.7877  0.7025
17365TIP3   OH273585   5.674   0.971  13.230  0.2693 -0.0665 -0.4919
17365TIP3    H173586   5.664   0.887  13.275  0.9694 -0.4150 -0.9772
17365TIP3    H273587   5.590   0.985  13.187  0.0458 -0.3732 -0.1657
17366TIP3   OH273588   1.316   1.502  12.314  0.1534 -0.0736  0.2071
17366TIP3    H173589   1.384   1.437  12.292  0.5554  0.1491  0.7887
17366TIP3    H273590   1.331   1.521  12.407 -1.3461 -0.7790  0.6025
17367TIP3   OH273591   0.935   3.823   2.656  0.5650  0.1365  0.7019
17367TIP3    H173592   0.849   3.864   2.662  0.1614 -0.5747 -0.0106
17367TIP3    H273593   0.986   3.883   2.601  0.5134  0.5443  1.1004
17368TIP3   OH273594   1.402   1.045   1.504  0.5165  0.0222  0.2796
17368TIP3    H173595   1.325   1.075   1.454  0.2909 -0.6401  0.2293
17368TIP3    H273596   1.453   0.995   1.441  0.7839  0.1127  0.4254
17369TIP3   OH273597   5.998   0.310  12.440  0.2403  0.3103  0.3902
17369TIP3    H173598   5.974   0.318  12.533  1.8999  1.1969  0.7564
17369TIP3    H273599   5.943   0.375  12.396 -0.5499 -0.1083  0.7444
17370TIP3   OH273600   1.618   1.464  12.380  0.0535 -0.0011  0.1301
17370TIP3    H173601   1.627   1.533  12.446 -1.1080 -0.5184  0.8435
17370TIP3    H273602   1.628   1.382  12.429 -0.2213 -0.3783 -0.4376
17371TIP3   OH273603   6.514   4.160   2.413  0.0892  0.4049 -0.0327
17371TIP3    H173604   6.539   4.171   2.505  2.1710  0.4741 -0.5885
17371TIP3    H273605   6.490   4.248   2.384 -0.2340  0.4447  0.3426
17372TIP3   OH273606   5.252   1.804   3.023 -0.6711 -0.2121  0.1272
17372TIP3    H173607   5.208   1.766   3.099 -1.8722  0.2068 -0.3409
17372TIP3    H273608   5.211   1.760   2.948  1.6513 -1.8239 -0.2486
17373TIP3   OH273609   0.718   6.787  15.935  0.2509  0.2082  0.2524
17373TIP3    H173610   0.652   6.825  15.994  1.2994  0.0462  1.5335
17373TIP3    H273611   0.668   6.765  15.856 -0.9307  1.6029  0.5738
17374TIP3   OH273612   0.977   2.564   0.975 -0.0214  0.0355  0.0192
17374TIP3    H173613   0.894   2.596   0.942  0.6127  0.6684 -0.9768
17374TIP3    H273614   1.041   2.587   0.908  0.9209 -0.6769  0.6487
17375TIP3   OH273615   3.371   0.374   1.714 -0.0376  1.5662  0.0812
17375TIP3    H173616   3.466   0.378   1.722 -0.1553  0.7379  2.4203
17375TIP3    H273617   3.341   0.343   1.800 -2.2565 -0.4058 -1.3367
17376TIP3   OH273618   2.224   4.453   0.634 -0.0986 -0.0825  0.3736
17376TIP3    H173619   2.133   4.438   0.661 -0.1449  0.3230  0.4502
17376TIP3    H273620   2.232   4.548   0.632  0.2721 -0.1202  0.1824
17377TIP3   OH273621   2.960   6.319   0.340 -0.6130  0.0774  0.4508
17377TIP3    H173622   2.943   6.236   0.296 -0.1141  0.2924 -0.1675
17377TIP3    H273623   2.972   6.381   0.268  1.0524  0.2644  0.8839
17378TIP3   OH273624   6.297   0.744   6.362  0.1126 -1.1034  0.0325
17378TIP3    H173625   6.380   0.751   6.314  0.0200 -1.3996 -0.1701
17378TIP3    H273626   6.237   0.704   6.300 -0.5820  0.4486 -0.3307
17379TIP3   OH273627   4.168   0.819  15.064  0.3830  0.2005  0.1872
17379TIP3    H173628   4.152   0.725  15.056  1.0404  0.1855 -1.1142
17379TIP3    H273629   4.107   0.849  15.132 -1.1084 -0.8304 -0.6746
17380TIP3   OH273630   5.375   3.103   3.006  0.5721  0.7374 -0.2456
17380TIP3    H173631   5.286   3.117   3.037  0.4438  1.1570 -0.7974
17380TIP3    H273632   5.372   3.125   2.913  1.0241 -0.2024 -0.4875
17381TIP3   OH273633   1.487   1.611   4.145 -0.4483  0.3097  0.3784
17381TIP3    H173634   1.570   1.563   4.133 -0.4806  0.1289  0.8558
17381TIP3    H273635   1.473   1.610   4.240 -2.0369 -1.4143  0.1501
17382TIP3   OH273636   5.425   5.943   4.908 -0.3014  0.2696 -0.6695
17382TIP3    H173637   5.412   5.996   4.986  1.7676  1.3031 -1.0058
17382TIP3    H273638   5.418   6.005   4.835 -1.1579 -0.4998 -1.2575
17383TIP3   OH273639   0.058   4.936   2.239  0.0267 -0.0771 -0.1527
17383TIP3    H173640  -0.022   4.884   2.255  0.8738 -0.1478  4.7683
17383TIP3    H273641   0.129   4.876   2.262  1.1731  1.8709  1.5394
17384TIP3   OH273642   2.797   4.571   1.490 -0.6674  0.6189 -0.1828
17384TIP3    H173643   2.820   4.528   1.573  0.4045 -0.3728 -0.9758
17384TIP3    H273644   2.772   4.660   1.515  0.8160  0.6957  1.0827
17385TIP3   OH273645   4.252   4.086  11.787  0.8948  0.3799 -0.3740
17385TIP3    H173646   4.263   4.052  11.876  2.7858  0.2214 -0.6332
17385TIP3    H273647   4.213   4.173  11.799  1.8511  0.6856  0.6767
17386TIP3   OH273648   0.458   5.052  14.634  0.6292  0.1010 -0.3223
17386TIP3    H173649   0.486   5.037  14.544 -0.5616 -0.3013 -0.6249
17386TIP3    H273650   0.530   5.018  14.687  2.7184  3.0919 -1.1241
17387TIP3   OH273651   6.462   1.372  14.265  0.4063 -0.6159 -0.2093
17387TIP3    H173652   6.486   1.346  14.176 -0.0903  0.5790 -0.7015
17387TIP3    H273653   6.370   1.396  14.259  1.2056  2.7489 -0.1518
17388TIP3   OH273654   4.432   5.795   3.656 -0.7668 -0.7784 -0.3216
17388TIP3    H173655   4.468   5.883   3.648 -1.5812 -0.3314  0.6904
17388TIP3    H273656   4.465   5.748   3.580  0.2575  0.1967 -0.4977
17389TIP3   OH273657   2.048   2.617   1.594 -0.0668  0.2627  0.3891
17389TIP3    H173658   1.957   2.586   1.597 -0.8681  2.3326 -0.9669
17389TIP3    H273659   2.042   2.704   1.553  2.6579 -0.0921 -0.8882
17390TIP3   OH273660   0.969   2.376  12.309  0.1615  0.2482 -0.4723
17390TIP3    H173661   0.902   2.326  12.355 -0.2936  2.0239  0.8329
17390TIP3    H273662   1.046   2.319  12.310 -0.2193 -0.2827  1.3977
17391TIP3   OH273663   0.262   4.721   4.560 -0.3058  0.9458 -0.0996
17391TIP3    H173664   0.179   4.728   4.607 -0.7045 -0.8461 -0.5213
17391TIP3    H273665   0.289   4.812   4.546 -1.6904  1.5312  0.9111
17392TIP3   OH273666   4.847   2.042   3.006  0.0143 -0.2252 -0.0569
17392TIP3    H173667   4.798   2.124   3.015 -0.8229 -0.6266 -0.9594
17392TIP3    H273668   4.824   2.009   2.920  3.0784  0.3534 -1.1784
17393TIP3   OH273669   5.274   3.269  14.160  0.2016 -0.3832 -0.2658
17393TIP3    H173670   5.333   3.230  14.096  0.4221  0.3564 -0.5203
17393TIP3    H273671   5.207   3.313  14.108  0.9407  1.0657 -0.0038
17394TIP3   OH273672   5.036   6.351  11.478  0.1382 -0.2458  0.2093
17394TIP3    H173673   4.974   6.358  11.406  0.1060 -1.0355  0.1551
17394TIP3    H273674   4.991   6.389  11.553  0.4294  1.2129 -0.3308
17395TIP3   OH273675   5.758   0.493   0.207 -0.4016  0.5838  0.2362
17395TIP3    H173676   5.763   0.436   0.130  2.3611  1.2520 -0.1303
17395TIP3    H273677   5.715   0.573   0.175 -0.4364  0.3583 -0.2837
17396TIP3   OH273678   6.264   1.817   6.138 -0.1563  0.3696 -0.1204
17396TIP3    H173679   6.341   1.760   6.135  0.3892  1.1379 -0.6836
17396TIP3    H273680   6.268   1.868   6.057  0.7129  2.9698  1.5020
17397TIP3   OH273681   4.441   1.554  17.008  0.2370 -0.0290 -0.2995
17397TIP3    H173682   4.506   1.586  16.945 -0.2206  0.3022 -0.6134
17397TIP3    H273683   4.435   1.624  17.073 -1.1894  0.8235 -1.2967
17398TIP3   OH273684   2.304   2.869  13.095 -0.2217  0.5200 -0.0167
17398TIP3    H173685   2.223   2.920  13.097 -0.3604  0.3482 -0.9770
17398TIP3    H273686   2.307   2.825  13.180 -1.9513 -0.7321 -0.5885
17399TIP3   OH273687   5.266   3.886  12.046  0.3791 -0.1883  0.6097
17399TIP3    H173688   5.203   3.815  12.056  0.7769 -0.4746  1.1187
17399TIP3    H273689   5.229   3.943  11.979  0.0470 -0.8648  0.2218
17400TIP3   OH273690   1.274   6.175  12.311  0.0277 -0.0326 -0.3915
17400TIP3    H173691   1.255   6.202  12.401  1.5606 -0.8131  0.1796
17400TIP3    H273692   1.341   6.237  12.282  1.7173 -1.6194  0.0553
17401TIP3   OH273693   2.237   6.814  13.960  0.3495  0.5153 -0.4506
17401TIP3    H173694   2.259   6.760  14.037  2.7502 -0.2169 -1.6120
17401TIP3    H273695   2.217   6.900  13.996  1.2988  0.1388  1.0207
17402TIP3   OH273696   4.767   0.841   4.723  0.0040 -0.1799  0.3241
17402TIP3    H173697   4.694   0.851   4.783  0.4543 -0.1067  0.8586
17402TIP3    H273698   4.829   0.786   4.769  0.4600  0.0819  0.0263
17403TIP3   OH273699   0.237   4.504  15.505  0.3931 -0.8714  0.0339
17403TIP3    H173700   0.278   4.590  15.499 -1.6176  0.3646  2.8928
17403TIP3    H273701   0.293   4.455  15.566 -0.6141 -0.2069  1.5307
17404TIP3   OH273702   2.133   1.935  11.581 -0.6761  0.7236 -0.2303
17404TIP3    H173703   2.095   1.943  11.668 -0.0588  2.6945 -0.1306
17404TIP3    H273704   2.228   1.931  11.597 -0.6903 -2.3424 -0.6007
17405TIP3   OH273705   3.888   4.225   3.531 -0.0544  0.5666 -0.5893
17405TIP3    H173706   3.892   4.133   3.503  0.6074  0.2575  0.4900
17405TIP3    H273707   3.897   4.221   3.626 -0.3281  1.7382 -0.5145
17406TIP3   OH273708   3.813   1.232  14.115  0.0213  0.1227 -0.0050
17406TIP3    H173709   3.786   1.220  14.024 -0.1819 -0.7544  0.1688
17406TIP3    H273710   3.765   1.310  14.144 -2.4065 -1.4571  0.3281
17407TIP3   OH273711   4.928   0.575  13.517  0.0283  0.8054  0.3018
17407TIP3    H173712   4.888   0.574  13.430  1.0922  0.3043 -0.1882
17407TIP3    H273713   4.868   0.523  13.572 -1.1038  1.8709  0.0906
17408TIP3   OH273714   0.507   2.808   2.382  0.0780 -0.7864 -0.2848
17408TIP3    H173715   0.536   2.790   2.471 -0.1705  0.0612 -0.0269
17408TIP3    H273716   0.583   2.789   2.327  1.0575  1.1092  0.3536
17409TIP3   OH273717   2.549   4.829   5.645 -0.3773  0.7875  0.3166
17409TIP3    H173718   2.456   4.807   5.632 -0.2427  0.4798 -0.1220
17409TIP3    H273719   2.578   4.862   5.559  0.5552 -1.3678 -0.2162
17410TIP3   OH273720   2.527   3.538   4.514 -0.0914  0.5270  0.6238
17410TIP3    H173721   2.529   3.451   4.476  0.4422  0.3243  1.0966
17410TIP3    H273722   2.570   3.594   4.449 -1.0726  0.5735  0.0067
17411TIP3   OH273723   1.265   5.745   3.478  0.1669 -0.0961  0.0430
17411TIP3    H173724   1.327   5.726   3.408 -0.4480  0.4706 -0.6605
17411TIP3    H273725   1.236   5.659   3.508  1.3860 -0.3749  0.4769
17412TIP3   OH273726   5.248   1.524  13.714 -0.8132  0.0708  0.2827
17412TIP3    H173727   5.264   1.551  13.624  0.2080 -0.8548  0.1668
17412TIP3    H273728   5.164   1.563  13.737 -0.3014  1.6707 -0.5207
17413TIP3   OH273729   6.350   4.993   3.127  0.0260  0.4217  0.8131
17413TIP3    H173730   6.421   5.035   3.078  0.2914  1.0699  1.7580
17413TIP3    H273731   6.384   4.906   3.148  0.1430  0.3600  0.3832
17414TIP3   OH273732   4.897   3.903   0.141  0.9641  0.0851 -0.3148
17414TIP3    H173733   4.820   3.856   0.173 -0.1284  1.5050 -0.8436
17414TIP3    H273734   4.921   3.961   0.213  0.3927  1.0174 -0.8727
17415TIP3   OH273735   3.198   4.747   0.692 -0.2059  0.2907 -0.3354
17415TIP3    H173736   3.216   4.709   0.778  1.9024  1.3335 -0.2812
17415TIP3    H273737   3.140   4.821   0.711  1.6259  1.5722  0.4222
17416TIP3   OH273738   0.569   3.351  13.991 -0.6204 -0.0914  0.4599
17416TIP3    H173739   0.490   3.306  14.020 -0.9864  0.5942  0.5349
17416TIP3    H273740   0.639   3.288  14.004 -1.4937 -1.6287 -1.9755
17417TIP3   OH273741   5.139   3.629  12.082 -0.1194  0.0665 -0.0363
17417TIP3    H173742   5.152   3.634  12.177  1.1837 -0.5783 -0.1676
17417TIP3    H273743   5.158   3.538  12.060  1.7526  0.6932 -1.2051
17418TIP3   OH273744   5.203   2.033  16.507  0.0770  0.0765  0.0450
17418TIP3    H173745   5.157   2.068  16.431  2.0795  0.7965 -0.8802
17418TIP3    H273746   5.202   1.938  16.495 -0.5115  0.1293 -0.3273
17419TIP3   OH273747   6.077   3.977  14.279 -0.7342  0.5918  0.0965
17419TIP3    H173748   6.134   4.041  14.320  0.6757 -0.5989  0.0415
17419TIP3    H273749   6.057   3.914  14.348  1.7923 -1.5154 -1.0217
17420TIP3   OH273750   3.175   2.483   4.465  0.4378 -0.3157  0.6336
17420TIP3    H173751   3.123   2.480   4.545 -0.1138  1.5634  0.3764
17420TIP3    H273752   3.264   2.465   4.493  0.2168  0.1594  1.6529
17421TIP3   OH273753   1.832   1.173   4.440 -0.2526 -0.0211  0.3788
17421TIP3    H173754   1.870   1.236   4.500  0.6335  1.3279 -1.5430
17421TIP3    H273755   1.865   1.088   4.470 -0.2190  0.5658  2.0574
17422TIP3   OH273756   2.459   1.821   4.787  0.4887 -0.1697  0.2028
17422TIP3    H173757   2.500   1.856   4.866  1.0087 -1.0340  0.3223
17422TIP3    H273758   2.508   1.861   4.715  0.8993 -0.4382  0.3334
17423TIP3   OH273759   2.379   5.158   3.029 -0.2530  0.0649  0.3842
17423TIP3    H173760   2.416   5.215   2.961 -1.9508  0.6390 -0.0780
17423TIP3    H273761   2.453   5.107   3.061  0.4722 -0.5551 -2.2368
17424TIP3   OH273762   6.767   3.935   3.605  0.7137 -0.2560 -0.9451
17424TIP3    H173763   6.819   3.898   3.677 -1.4112  0.5038  1.0254
17424TIP3    H273764   6.710   3.863   3.578  0.0799  0.0699 -0.4813
17425TIP3   OH273765   3.050   5.170   3.096  0.5039  0.0039  0.7266
17425TIP3    H173766   2.975   5.120   3.064 -0.9604  1.8055  1.2766
17425TIP3    H273767   3.036   5.176   3.191  2.5163 -1.5415  1.1482
17426TIP3   OH273768   5.673   2.351  12.404  0.3771  0.3194  0.1533
17426TIP3    H173769   5.718   2.431  12.377  1.8946 -0.0447  1.5397
17426TIP3    H273770   5.743   2.293  12.434 -0.5750 -2.0412 -2.0346
17427TIP3   OH273771   5.569   5.570   3.529  0.0165  0.2685 -0.3033
17427TIP3    H173772   5.589   5.620   3.450  3.7304  1.1761  1.1194
17427TIP3    H273773   5.561   5.480   3.499  0.8581  0.6785 -1.8153
17428TIP3   OH273774   2.796   6.771   4.176 -0.6407 -0.1959 -0.2377
17428TIP3    H173775   2.744   6.739   4.103 -1.6683 -0.4982  0.6191
17428TIP3    H273776   2.882   6.788   4.139 -0.9829 -0.9536 -1.3797
17429TIP3   OH273777   2.177   3.555  12.235 -0.0550  0.0728  0.3620
17429TIP3    H173778   2.236   3.627  12.256  1.4218 -1.4599  1.6596
17429TIP3    H273779   2.201   3.529  12.146 -0.2359  0.8517  0.0879
17430TIP3   OH273780   0.108   2.018   2.898  0.1476  0.2514 -0.0796
17430TIP3    H173781   0.192   1.975   2.879 -1.1305 -3.1850  1.5989
17430TIP3    H273782   0.119   2.053   2.986  0.1246  0.6224 -0.2237
17431TIP3   OH273783   5.384   5.669   0.922  0.1865  0.2919  0.3026
17431TIP3    H173784   5.401   5.734   0.854  1.5988  0.8408  1.1584
17431TIP3    H273785   5.456   5.679   0.984  0.3102 -1.9400  0.5767
17432TIP3   OH273786   2.421   6.070   2.892  0.3541 -0.0299 -0.6670
17432TIP3    H173787   2.364   6.140   2.859 -1.5018 -0.9864  0.4706
17432TIP3    H273788   2.506   6.088   2.850  0.0988  3.2232  0.0280
17433TIP3   OH273789   3.463   3.554   1.597 -0.3512  0.1559  0.4506
17433TIP3    H173790   3.409   3.592   1.529  0.0193  0.1110  0.1318
17433TIP3    H273791   3.521   3.624   1.624  1.3443 -0.5855 -1.1747
17434TIP3   OH273792   3.934   4.814   1.908 -0.5802  0.1391  0.4262
17434TIP3    H173793   3.865   4.834   1.846 -1.0864 -3.7984 -0.4452
17434TIP3    H273794   3.897   4.744   1.963  1.4968  0.3451  2.1637
17435TIP3   OH273795   3.616   4.280   0.904 -0.0745  0.4951 -0.3960
17435TIP3    H173796   3.534   4.305   0.862 -1.2506 -2.8333 -0.2732
17435TIP3    H273797   3.650   4.360   0.942 -2.2099  2.3369 -2.2522
17436TIP3   OH273798   4.893   3.514  14.466 -0.2499  0.0407  0.0980
17436TIP3    H173799   4.913   3.435  14.517 -1.9547  0.6690  1.7796
17436TIP3    H273800   4.799   3.527  14.478 -0.1495  1.8309 -0.9101
17437TIP3   OH273801   2.783   6.336  14.671  0.4466  0.5810 -0.1337
17437TIP3    H173802   2.791   6.419  14.718 -0.3396  0.8997 -0.5577
17437TIP3    H273803   2.843   6.344  14.597  1.5677  0.1414  0.7100
17438TIP3   OH273804   5.390   6.293  14.092 -0.1818  1.1082 -0.2910
17438TIP3    H173805   5.459   6.319  14.032  0.9679 -1.6103 -0.2143
17438TIP3    H273806   5.423   6.318  14.179  0.1039  1.0387 -0.3793
17439TIP3   OH273807   4.513   6.228  11.198 -0.2979  0.4622  0.1211
17439TIP3    H173808   4.417   6.234  11.195 -0.4131 -1.2647 -0.1016
17439TIP3    H273809   4.532   6.189  11.283  0.0877 -1.1327 -0.6860
17440TIP3   OH273810   4.387   4.842  13.418  0.5040  0.5171  0.4196
17440TIP3    H173811   4.378   4.918  13.360  0.7549  0.0955 -0.1850
17440TIP3    H273812   4.479   4.844  13.445  0.6170  0.1883  0.0619
17441TIP3   OH273813   1.726   0.640   2.093 -0.3227 -0.8314 -0.2401
17441TIP3    H173814   1.732   0.626   1.999 -0.8586 -0.6513 -0.3026
17441TIP3    H273815   1.633   0.654   2.109  0.0212  1.3309  0.0179
17442TIP3   OH273816   0.959   1.076   6.282  0.8906  0.2412 -0.2358
17442TIP3    H173817   0.952   1.147   6.218 -1.0869 -0.2645 -0.6336
17442TIP3    H273818   0.990   1.119   6.362 -1.2862  1.7971 -0.1545
17443TIP3   OH273819   0.069   2.454   1.628  0.2748 -0.2185  0.4271
17443TIP3    H173820   0.043   2.519   1.563  1.8487 -0.3435 -0.3478
17443TIP3    H273821   0.021   2.479   1.708 -3.1947 -1.1896 -1.2473
17444TIP3   OH273822   2.448   3.918  12.119  0.1141  0.2275  0.4170
17444TIP3    H173823   2.520   3.855  12.118  0.9040  1.0597  2.0998
17444TIP3    H273824   2.373   3.869  12.085  0.9552 -1.3165  0.7240
17445TIP3   OH273825   3.638   2.802   5.013 -0.3101  0.1221 -0.1840
17445TIP3    H173826   3.699   2.803   5.087 -0.6455  2.2103  0.1034
17445TIP3    H273827   3.561   2.756   5.047 -0.1338  0.3262  0.5000
17446TIP3   OH273828   6.746   4.404  13.948  0.0983  0.1310 -0.0164
17446TIP3    H173829   6.754   4.358  13.865  0.0021 -0.1253  0.1141
17446TIP3    H273830   6.832   4.443  13.963  0.3110 -0.3636  0.0796
17447TIP3   OH273831   6.231   3.158  16.022  0.3843  0.1270 -0.0766
17447TIP3    H173832   6.282   3.093  16.071  0.7113 -0.1724 -0.7934
17447TIP3    H273833   6.219   3.117  15.936  0.7200  1.0792 -0.5807
17448TIP3   OH273834   4.518   6.213  12.056  0.1909  0.7017  0.1909
17448TIP3    H173835   4.520   6.120  12.081  1.0272  0.8648  0.7690
17448TIP3    H273836   4.588   6.222  11.991 -0.9943  0.5922 -1.1103
17449TIP3   OH273837   2.933   0.560   2.187 -0.3923  0.0494  0.1827
17449TIP3    H173838   2.972   0.566   2.274 -0.3383 -0.4911  0.1954
17449TIP3    H273839   2.866   0.492   2.196 -1.0755  0.7040  0.0664
17450TIP3   OH273840   6.651   1.514   1.067 -0.5252  0.2231 -0.3842
17450TIP3    H173841   6.643   1.523   0.972 -0.1446  1.5752 -0.3048
17450TIP3    H273842   6.618   1.427   1.086  0.3423 -0.4460 -1.8775
17451TIP3   OH273843   2.873   5.118   3.684 -0.0197 -0.6121 -0.0205
17451TIP3    H173844   2.867   5.064   3.763 -0.0639  0.4110  0.6782
17451TIP3    H273845   2.806   5.083   3.626  0.8955 -2.2417 -0.1491
17452TIP3   OH273846   4.628   1.930   4.868  0.0118 -0.3761 -0.0607
17452TIP3    H173847   4.546   1.978   4.856  0.1907 -0.0573 -0.0073
17452TIP3    H273848   4.640   1.926   4.963  0.3585  0.0836 -0.0855
17453TIP3   OH273849   5.406   5.404   4.547  0.4547 -0.1080  0.5131
17453TIP3    H173850   5.319   5.402   4.585  0.2248  0.7779  0.0540
17453TIP3    H273851   5.427   5.312   4.529  0.4646 -0.5094  2.5122
17454TIP3   OH273852   1.136   6.816   2.402  0.0798 -0.0908  0.0602
17454TIP3    H173853   1.189   6.821   2.323 -1.0892 -0.7211 -0.7627
17454TIP3    H273854   1.180   6.876   2.464  0.0887  1.6439 -1.5767
17455TIP3   OH273855   6.047   0.108   0.932 -0.1413  0.5526 -0.3479
17455TIP3    H173856   5.980   0.105   0.863  0.6231 -1.1031 -1.0421
17455TIP3    H273857   6.049   0.200   0.959 -2.2601  0.7588 -0.7397
17456TIP3   OH273858   6.581   5.322   2.605 -0.6809 -0.1690 -0.0918
17456TIP3    H173859   6.540   5.342   2.521 -1.0610 -1.1888 -0.1590
17456TIP3    H273860   6.570   5.227   2.615  0.4424 -0.2437  0.5347
17457TIP3   OH273861   4.199   5.609  11.737  0.2176  0.3459 -0.3813
17457TIP3    H173862   4.141   5.570  11.672 -0.3314  0.3185  0.1170
17457TIP3    H273863   4.266   5.654  11.686 -1.0648  1.6002 -0.9772
17458TIP3   OH273864   4.358   2.278   2.518  0.1373  0.0561  0.1491
17458TIP3    H173865   4.357   2.188   2.551 -0.6116  0.5696  1.5288
17458TIP3    H273866   4.373   2.268   2.424 -0.1071 -1.5198  0.2613
17459TIP3   OH273867   0.944   5.808  16.101 -0.0111  0.4101 -0.0589
17459TIP3    H173868   0.972   5.717  16.099 -0.0693  0.3351  1.6230
17459TIP3    H273869   0.851   5.806  16.079  0.4562  0.2928 -2.0923
17460TIP3   OH273870   3.148   1.373   5.085  0.1847 -0.4009  0.3506
17460TIP3    H173871   3.154   1.441   5.152 -2.0493 -1.0520  1.2537
17460TIP3    H273872   3.235   1.369   5.047  0.8141  1.7553  1.4755
17461TIP3   OH273873   1.583   2.826   0.549 -0.7243 -0.2531 -0.2423
17461TIP3    H173874   1.520   2.824   0.622 -0.1248 -0.2252  0.2768
17461TIP3    H273875   1.545   2.889   0.488 -0.2885  1.1564  0.9078
17462TIP3   OH273876   0.565   1.157   0.867  0.6375 -0.0958  0.1135
17462TIP3    H173877   0.621   1.222   0.824 -1.2454  0.6644 -1.3123
17462TIP3    H273878   0.493   1.209   0.904 -0.1620 -1.2247  0.1652
17463TIP3   OH273879   4.490   5.641   5.921 -0.7843 -0.6361 -0.0719
17463TIP3    H173880   4.440   5.646   5.840  0.4470 -0.1061 -0.8050
17463TIP3    H273881   4.456   5.713   5.974  0.4065  0.8464 -1.2686
17464TIP3   OH273882   6.764   3.317  14.780 -0.7335  0.3285 -0.1372
17464TIP3    H173883   6.737   3.335  14.690 -0.2586 -0.2003 -0.3901
17464TIP3    H273884   6.686   3.281  14.822 -0.6946 -0.3043 -0.5969
17465TIP3   OH273885   4.364   1.477  11.608 -0.6852 -0.0456  0.1693
17465TIP3    H173886   4.454   1.461  11.636 -0.5777 -0.8115 -0.5784
17465TIP3    H273887   4.367   1.565  11.569  0.2889 -1.0091 -2.0197
17466TIP3   OH273888   6.752   3.991  11.668 -0.2918  0.5077  0.0479
17466TIP3    H173889   6.842   4.021  11.680 -0.6218  1.2529  0.7445
17466TIP3    H273890   6.752   3.945  11.584  0.4294  1.7316 -0.6310
17467TIP3   OH273891   6.124   1.612   3.671 -0.1060 -0.0099 -1.0351
17467TIP3    H173892   6.119   1.707   3.677  0.2787 -0.0429 -0.1656
17467TIP3    H273893   6.033   1.582   3.678 -0.0115  0.1626  1.0496
17468TIP3   OH273894   4.631   6.447   0.109 -0.9317 -0.0067 -0.4560
17468TIP3    H173895   4.657   6.523   0.058 -1.6045 -0.2497 -1.1727
17468TIP3    H273896   4.667   6.372   0.060  0.9713 -0.0942  0.9941
17469TIP3   OH273897   2.896   3.944  17.096  0.3545 -0.1629  0.0339
17469TIP3    H173898   2.906   3.994  17.015  2.3962 -2.5169 -1.2575
17469TIP3    H273899   2.975   3.965  17.147 -1.8400  2.8596  2.4051
17470TIP3   OH273900   5.640   0.925  16.473 -0.1571  0.2621 -0.3606
17470TIP3    H173901   5.586   0.955  16.400 -0.4066  0.6649 -0.0082
17470TIP3    H273902   5.635   0.829  16.467 -1.0616  0.2917 -0.2236
17471TIP3   OH273903   1.190   3.311   6.826 -0.3289 -0.3100  0.3422
17471TIP3    H173904   1.256   3.380   6.838  0.6511 -1.2827  0.5674
17471TIP3    H273905   1.147   3.305   6.912 -0.2785 -0.1312  0.3820
17472TIP3   OH273906   3.331   3.636  16.348  0.0302  0.4386  0.0307
17472TIP3    H173907   3.296   3.722  16.324 -1.2446  0.1269  0.7467
17472TIP3    H273908   3.423   3.653  16.368 -0.1589  1.6013 -0.0420
17473TIP3   OH273909   6.028   5.442  16.919 -0.5407 -0.2210 -0.1876
17473TIP3    H173910   5.945   5.430  16.964 -0.8719  0.6948 -0.5341
17473TIP3    H273911   6.053   5.532  16.940 -0.3176 -0.0368 -1.2070
17474TIP3   OH273912   6.412   3.193  14.517 -0.3756 -0.0582  0.0901
17474TIP3    H173913   6.469   3.268  14.533 -0.5637  0.6497 -2.3168
17474TIP3    H273914   6.464   3.117  14.543  0.9737  0.7096 -0.3357
17475TIP3   OH273915   1.475   5.340  17.119 -0.1787  0.3645  0.0097
17475TIP3    H173916   1.500   5.262  17.070 -0.0105  1.1118 -1.1174
17475TIP3    H273917   1.535   5.408  17.089 -0.8207  1.1226  0.4113
17476TIP3   OH273918   4.811   5.554   2.002 -0.1501 -0.1475  0.0197
17476TIP3    H173919   4.901   5.567   1.971 -0.2376 -1.2260 -0.7313
17476TIP3    H273920   4.810   5.465   2.037 -0.8600 -0.0462  0.2713
17477TIP3   OH273921   2.008   0.386  12.572  0.2709  0.0615 -0.0371
17477TIP3    H173922   1.945   0.325  12.534  0.6621  0.4585 -1.3591
17477TIP3    H273923   1.998   0.375  12.667 -0.2813 -1.3991 -0.2535
17478TIP3   OH273924   5.211   5.815  15.979  0.3270 -0.1590 -0.3224
17478TIP3    H173925   5.130   5.830  15.930  0.6578  0.9640 -0.5600
17478TIP3    H273926   5.276   5.796  15.912  1.0060  2.3852 -0.4546
17479TIP3   OH273927   1.685   3.378   0.316 -0.7541 -0.1727  0.2311
17479TIP3    H173928   1.662   3.285   0.316  1.1076 -0.6544 -0.7000
17479TIP3    H273929   1.746   3.388   0.243 -1.7996  2.0124 -0.3591
17480TIP3   OH273930   0.636   0.933  15.087  0.2360 -0.3847 -0.3560
17480TIP3    H173931   0.655   1.021  15.055  0.8564 -0.1817  0.5421
17480TIP3    H273932   0.711   0.880  15.060 -0.3854 -0.7596 -1.3591
17481TIP3   OH273933   1.261   6.251  14.397  0.1458  0.6143 -0.4197
17481TIP3    H173934   1.249   6.272  14.305  0.3026 -0.2272 -0.6364
17481TIP3    H273935   1.355   6.262  14.412 -0.2329  3.4284  0.3297
17482TIP3   OH273936   5.227   4.243  12.587  0.0322 -0.0350 -0.2717
17482TIP3    H173937   5.188   4.304  12.650  1.2114 -0.2868  0.7298
17482TIP3    H273938   5.159   4.230  12.521 -0.3822  2.0657 -0.3144
17483TIP3   OH273939   6.741   5.244   0.704  0.3825 -0.3366  0.5694
17483TIP3    H173940   6.809   5.284   0.759  0.5778 -0.1706  0.2111
17483TIP3    H273941   6.706   5.316   0.652  0.7288 -0.6252 -0.0704
17484TIP3   OH273942   4.320   2.966   6.480 -0.4603  0.3089 -0.6274
17484TIP3    H173943   4.349   2.927   6.562  0.0382  0.7230 -0.6068
17484TIP3    H273944   4.279   3.049   6.505  0.0242  0.6102 -0.8311
17485TIP3   OH273945   2.990   6.386   3.361 -0.3926  0.0252 -0.4287
17485TIP3    H173946   3.060   6.387   3.426 -0.6464  0.9468 -0.1709
17485TIP3    H273947   3.014   6.314   3.302  0.3203 -0.2169  0.1426
17486TIP3   OH273948   2.006   4.836  11.620 -0.1696 -0.7510 -0.7259
17486TIP3    H173949   1.922   4.792  11.609 -1.3624  1.4391 -0.5944
17486TIP3    H273950   1.994   4.920  11.577  2.6073 -1.1687 -2.4135
17487TIP3   OH273951   5.059   6.130  13.550  0.4556  0.7751  0.0584
17487TIP3    H173952   5.125   6.089  13.493  0.0667 -0.7087  0.6728
17487TIP3    H273953   5.065   6.082  13.632 -2.9393 -0.8714 -0.6015
17488TIP3   OH273954   1.394   0.946   5.336  0.0978  0.1927  0.0816
17488TIP3    H173955   1.342   0.871   5.308 -0.8787  0.3602  1.3861
17488TIP3    H273956   1.359   1.020   5.285 -0.2808  0.1289  0.2520
17489TIP3   OH273957   3.529   3.908  12.145 -0.0369 -0.1459 -0.1373
17489TIP3    H173958   3.532   3.814  12.160 -0.4794  0.2832  3.0177
17489TIP3    H273959   3.599   3.944  12.199  0.5182  1.3038 -1.7616
17490TIP3   OH273960   5.373   6.033   3.463  0.1333 -0.0894 -0.0646
17490TIP3    H173961   5.305   6.095   3.435  0.2398 -1.0664 -2.6849
17490TIP3    H273962   5.443   6.087   3.497 -0.7509  1.1037 -0.1193
17491TIP3   OH273963   3.646   4.367  14.388 -0.5537 -0.5741 -0.0674
17491TIP3    H173964   3.624   4.441  14.445 -2.7193  0.0199 -1.6084
17491TIP3    H273965   3.641   4.291  14.446  0.4465  0.3351  1.2545
17492TIP3   OH273966   1.337   1.940  14.572  0.1991  0.1466 -0.5081
17492TIP3    H173967   1.273   1.964  14.639  1.9502 -1.0283  1.6483
17492TIP3    H273968   1.321   1.848  14.554  0.0888  0.3185 -1.3239
17493TIP3   OH273969   4.485   1.349  13.919 -0.5047  0.2451 -0.3294
17493TIP3    H173970   4.460   1.279  13.980 -1.4479  2.5152  1.9542
17493TIP3    H273971   4.540   1.305  13.854 -3.2425 -3.1439 -0.4980
17494TIP3   OH273972   0.701   4.470  17.169 -0.5986 -0.0339 -0.3682
17494TIP3    H173973   0.668   4.380  17.177  0.8342 -0.6011 -0.5774
17494TIP3    H273974   0.741   4.488  17.254  1.7317 -0.7044 -1.2814
17495TIP3   OH273975   3.306   3.885   5.396 -0.3288  0.2789  0.3981
17495TIP3    H173976   3.281   3.976   5.383 -2.9038 -0.5295 -0.4791
17495TIP3    H273977   3.322   3.850   5.308  1.3926  0.0485  0.7688
17496TIP3   OH273978   1.079   0.756  16.171 -0.3852  0.3644 -0.4405
17496TIP3    H173979   1.030   0.823  16.218  0.8552  2.5263 -2.1346
17496TIP3    H273980   1.144   0.805  16.119  1.8057 -2.2383 -0.2847
17497TIP3   OH273981   0.039   4.271   3.034  0.0875  0.4635  0.5490
17497TIP3    H173982   0.113   4.291   3.092  0.5495 -2.3513  0.9848
17497TIP3    H273983  -0.031   4.243   3.094 -0.0291 -0.7076 -0.1285
17498TIP3   OH273984   0.303   6.480   0.219  0.5204 -0.0592  0.6648
17498TIP3    H173985   0.373   6.525   0.266  1.0454 -0.5362  0.3403
17498TIP3    H273986   0.297   6.526   0.136  0.4532 -0.0236  0.6891
17499TIP3   OH273987   3.180   1.818  14.427  0.9274  0.0239 -0.0199
17499TIP3    H173988   3.267   1.857  14.419  0.6603  0.7604  0.5307
17499TIP3    H273989   3.151   1.806  14.337  0.8530  1.5317 -0.2188
17500TIP3   OH273990   0.719   5.097  12.040  0.0060  0.0355  0.0603
17500TIP3    H173991   0.749   5.073  12.127  3.0214  0.1688 -0.8838
17500TIP3    H273992   0.745   5.189  12.030  0.0872 -0.1108 -1.1606
17501TIP3   OH273993   5.989   3.626   4.463 -0.0330  0.0275 -0.1284
17501TIP3    H173994   6.074   3.600   4.498  0.1620 -0.3704 -0.8867
17501TIP3    H273995   5.941   3.660   4.538  0.3113 -0.9930  0.5595
17502TIP3   OH273996   3.476   6.289  15.306  0.1140  0.1739  0.6105
17502TIP3    H173997   3.485   6.308  15.212  2.5071  1.1283  0.9969
17502TIP3    H273998   3.421   6.211  15.309  1.7782 -1.1833 -1.7268
17503TIP3   OH273999   5.902   0.274  14.621  0.5852 -0.4784 -0.4070
17503TIP3    H174000   5.959   0.214  14.573  2.2529  1.0151 -0.3378
17503TIP3    H274001   5.814   0.243  14.602  1.3189 -1.3909 -2.4727
17504TIP3   OH274002   0.377   6.400  11.842  0.0688  0.7206 -0.1058
17504TIP3    H174003   0.437   6.423  11.772  1.1579  1.1612  0.9429
17504TIP3    H274004   0.410   6.449  11.918  0.4244 -1.6707  1.3264
17505TIP3   OH274005   3.066   0.965  17.032  0.1393  0.3696  0.0745
17505TIP3    H174006   2.975   0.951  17.055 -0.4925  0.0972 -2.4533
17505TIP3    H274007   3.081   1.058  17.046 -0.4423  0.3658  0.7332
17506TIP3   OH274008   3.304   1.621   5.623  0.0967  0.3445 -0.2563
17506TIP3    H174009   3.388   1.668   5.616  0.7942 -0.4978  2.0839
17506TIP3    H274010   3.317   1.559   5.694 -1.4888 -2.0182 -1.9362
17507TIP3   OH274011   5.975   0.819   0.955  0.3390 -0.2184 -0.0876
17507TIP3    H174012   5.969   0.784   0.866  0.0731  0.0303 -0.1685
17507TIP3    H274013   5.904   0.774   1.003  0.1955 -0.0204 -0.1145
17508TIP3   OH274014   4.294   3.137   3.219  0.1619 -0.7799 -0.1594
17508TIP3    H174015   4.310   3.136   3.313  0.2704  2.2287 -0.1122
17508TIP3    H274016   4.331   3.054   3.188  1.0288 -1.3463  2.2801
17509TIP3   OH274017   0.362   4.695   5.893 -0.2762 -0.4433  0.1610
17509TIP3    H174018   0.342   4.708   5.801  2.5972 -0.8729 -0.5503
17509TIP3    H274019   0.277   4.673   5.933 -1.4789 -0.6423 -2.4216
17510TIP3   OH274020   5.009   5.717  11.852 -0.3902 -0.9402 -0.0344
17510TIP3    H174021   4.959   5.778  11.906 -0.9813 -0.7929 -0.7360
17510TIP3    H274022   4.983   5.630  11.884  1.2851 -0.8144  1.6974
17511TIP3   OH274023   2.473   1.053   4.505  0.1175  0.0826 -0.0482
17511TIP3    H174024   2.418   0.975   4.505  1.8072 -1.1476 -1.7807
17511TIP3    H274025   2.413   1.125   4.486 -1.0056 -1.1424 -1.1660
17512TIP3   OH274026   0.070   4.639   5.349 -0.2514  0.1784  0.3954
17512TIP3    H174027   0.150   4.599   5.317 -0.7134 -0.8772  0.5386
17512TIP3    H274028   0.098   4.724   5.384  0.7959 -0.1679  0.4242
17513TIP3   OH274029   5.054   2.351  11.189  0.0141  0.4004 -0.5946
17513TIP3    H174030   5.144   2.352  11.159  0.6600  0.8580  1.2739
17513TIP3    H274031   5.021   2.264  11.165  1.4432 -0.3459  0.0971
17514TIP3   OH274032   6.255   0.810  11.319  0.2990  0.2540  0.4878
17514TIP3    H174033   6.199   0.856  11.256 -0.8589 -1.0538  0.5391
17514TIP3    H274034   6.288   0.880  11.376 -1.3718  1.0642  0.5132
17515TIP3   OH274035   6.225   0.635  13.738 -0.7522  0.5520 -0.4003
17515TIP3    H174036   6.152   0.593  13.693  0.4569 -1.9698 -0.0659
17515TIP3    H274037   6.297   0.635  13.675  0.5660 -1.8620  1.0367
17516TIP3   OH274038   4.062   2.734  15.895  0.5651  0.1592 -0.0757
17516TIP3    H174039   4.061   2.828  15.912 -0.1307 -0.0091  0.7875
17516TIP3    H274040   4.098   2.695  15.975  0.5042 -0.3454 -0.2928
17517TIP3   OH274041   3.445   4.837  13.990 -0.4222 -0.6420  0.0289
17517TIP3    H174042   3.486   4.869  13.910  0.4151 -0.0108  0.7071
17517TIP3    H274043   3.398   4.912  14.025  1.2892 -0.2147  1.4554
17518TIP3   OH274044   3.641   5.584  13.323 -0.0221  0.1476 -0.2217
17518TIP3    H174045   3.556   5.567  13.364 -0.6848  2.3002 -0.6830
17518TIP3    H274046   3.631   5.668  13.280  2.2928  0.3332 -0.4539
17519TIP3   OH274047   2.060   2.082  13.331 -0.0738  0.1231  0.1614
17519TIP3    H174048   2.030   2.148  13.394  1.3941 -1.0637  2.1889
17519TIP3    H274049   2.074   2.003  13.384 -0.5174 -1.4523 -1.9811
17520TIP3   OH274050   3.316   3.551   1.834 -0.6056  0.2733  0.6558
17520TIP3    H174051   3.274   3.466   1.819 -1.1210  1.0160 -2.2553
17520TIP3    H274052   3.363   3.570   1.753  1.6091  1.6165  2.1995
17521TIP3   OH274053   4.741   1.224  14.540  0.2779 -0.3425  0.4081
17521TIP3    H174054   4.820   1.250  14.491 -0.6750 -0.2245 -1.0967
17521TIP3    H274055   4.726   1.297  14.601 -0.8571  1.4677 -1.9589
17522TIP3   OH274056   3.639   3.885  13.789  0.1553  0.4173 -0.0031
17522TIP3    H174057   3.570   3.839  13.836 -0.3120  1.8239  0.7079
17522TIP3    H274058   3.630   3.856  13.698 -1.5818  0.8671  0.0179
17523TIP3   OH274059   5.100   3.240  12.648 -0.1908  0.8519  0.2093
17523TIP3    H174060   5.065   3.325  12.673 -0.1549  1.0440 -0.3909
17523TIP3    H274061   5.116   3.247  12.554 -1.3952 -0.2314 -0.0903
17524TIP3   OH274062   5.474   6.717   2.069  0.3205 -0.3349 -0.7226
17524TIP3    H174063   5.526   6.744   2.145 -0.0982 -0.4825 -0.3820
17524TIP3    H274064   5.469   6.795   2.014  0.7675 -0.2739 -0.6815
17525TIP3   OH274065   0.563   0.889   1.120 -0.3389  0.2736  0.0545
17525TIP3    H174066   0.585   0.806   1.163 -0.5711 -0.5286 -1.3234
17525TIP3    H274067   0.622   0.953   1.160  0.9123 -0.8594  0.0907
17526TIP3   OH274068   6.713   0.276   2.398 -0.4729  0.0743 -0.2693
17526TIP3    H174069   6.650   0.342   2.426  0.8519  1.0806  0.3851
17526TIP3    H274070   6.660   0.208   2.355 -1.8980  1.2868 -0.4444
17527TIP3   OH274071   2.990   3.092   5.601  0.8364 -0.4167  0.2812
17527TIP3    H174072   3.024   3.006   5.625  0.2150 -1.2541 -1.6522
17527TIP3    H274073   2.922   3.110   5.666  1.3276 -1.1670  1.0056
17528TIP3   OH274074   5.020   4.594  14.410  0.1904 -0.5023 -0.2144
17528TIP3    H174075   4.984   4.633  14.331 -2.2117  0.5118  1.3166
17528TIP3    H274076   4.946   4.588  14.470  1.8441 -1.7097  1.7838
17529TIP3   OH274077   1.346   0.703  15.653 -0.3982  0.2825  0.8734
17529TIP3    H174078   1.375   0.683  15.564 -0.3723  0.1429  0.9126
17529TIP3    H274079   1.298   0.624  15.680 -1.1865  0.6778  0.6522
17530TIP3   OH274080   1.402   6.357  10.354  0.0055 -0.2618 -0.5265
17530TIP3    H174081   1.411   6.262  10.344  0.5621 -0.2656 -0.0615
17530TIP3    H274082   1.377   6.369  10.446  3.3917  0.2105  0.4069
17531TIP3   OH274083   3.744   0.187   2.451  0.1109 -0.8851  0.3625
17531TIP3    H174084   3.748   0.130   2.375 -1.0017  0.9825 -1.1281
17531TIP3    H274085   3.835   0.197   2.479  0.4615 -2.1130 -0.2983
17532TIP3   OH274086   2.092   2.509   1.112  0.0962 -0.3440 -0.0993
17532TIP3    H174087   2.185   2.500   1.089 -0.0473 -1.0387 -0.4253
17532TIP3    H274088   2.062   2.419   1.125 -0.4626 -0.1034  0.2906
17533TIP3   OH274089   4.213   3.788   4.443 -0.2442  0.1767 -0.3469
17533TIP3    H174090   4.182   3.763   4.530  2.0323  1.4509  0.8761
17533TIP3    H274091   4.190   3.714   4.387  0.4386 -1.7353  1.8392
17534TIP3   OH274092   6.653   3.398  13.333 -0.2421  0.6508  0.3381
17534TIP3    H174093   6.705   3.340  13.389  0.7191  1.6260  0.4674
17534TIP3    H274094   6.575   3.418  13.385 -0.2789 -0.0012  0.5464
17535TIP3   OH274095   2.281   6.294   5.838  0.0608 -0.0535 -0.0097
17535TIP3    H174096   2.352   6.302   5.901  1.6204  1.8062 -1.9552
17535TIP3    H274097   2.201   6.296   5.892  1.4235 -2.0289  2.1657
17536TIP3   OH274098   5.698   5.930  13.242  0.1886 -0.2352 -0.4736
17536TIP3    H174099   5.636   5.875  13.291 -0.1893 -0.4481 -1.1754
17536TIP3    H274100   5.662   5.932  13.153  0.6199  0.5218 -0.6329
17537TIP3   OH274101   2.969   3.493  17.170 -0.6274 -0.0498 -0.3194
17537TIP3    H174102   2.986   3.441  17.091 -0.5819  1.0148 -1.0140
17537TIP3    H274103   2.874   3.501  17.174 -0.6199  0.0800 -0.3913
17538TIP3   OH274104   4.884   2.632  10.476  0.8361  0.2461  0.4906
17538TIP3    H174105   4.906   2.555  10.422  0.5319  0.7886 -0.4116
17538TIP3    H274106   4.902   2.603  10.566  1.8305 -0.5021  0.0681
17539TIP3   OH274107   5.494   0.212   5.514 -0.0078 -0.4327  0.0285
17539TIP3    H174108   5.468   0.294   5.555 -0.1021  0.7089 -2.2340
17539TIP3    H274109   5.579   0.192   5.553  1.3399  2.2341 -1.4081
17540TIP3   OH274110   4.135   2.978   2.683  0.2972  0.2403  0.1484
17540TIP3    H174111   4.186   2.925   2.623  0.8147  0.9273 -0.0218
17540TIP3    H274112   4.082   2.915   2.733  1.2454 -0.4574  0.2673
17541TIP3   OH274113   5.011   2.718   1.618  0.7069 -0.4102 -0.3926
17541TIP3    H174114   5.014   2.622   1.628 -2.5922 -0.3109  1.9246
17541TIP3    H274115   4.945   2.732   1.550 -1.4735  0.3056  1.8075
17542TIP3   OH274116   5.353   0.102   6.169  0.0213 -0.1140  0.2216
17542TIP3    H174117   5.397   0.021   6.197 -0.5429 -1.1056 -1.6870
17542TIP3    H274118   5.424   0.164   6.156  1.0133 -1.9053 -3.4926
17543TIP3   OH274119   4.882   1.703   4.963 -0.2666  0.0598 -0.5580
17543TIP3    H174120   4.897   1.763   5.036 -0.8857  1.0098 -1.2101
17543TIP3    H274121   4.793   1.722   4.933 -1.3197 -2.7385  0.6675
17544TIP3   OH274122   4.090   5.366  17.069 -0.4844 -0.6068  0.6683
17544TIP3    H174123   4.094   5.370  17.164 -2.7673  0.5380  0.7536
17544TIP3    H274124   4.042   5.285  17.051 -1.6201  0.0670  0.5792
17545TIP3   OH274125   5.568   2.817   5.662 -0.2706 -0.0510 -0.2540
17545TIP3    H174126   5.656   2.829   5.698 -0.2101  1.9179 -1.0003
17545TIP3    H274127   5.559   2.723   5.652  2.3488 -0.1897 -1.6356
17546TIP3   OH274128   5.175   5.261  16.212 -0.3486 -0.0854 -0.6465
17546TIP3    H174129   5.191   5.348  16.249 -1.4717  0.5242 -1.5498
17546TIP3    H274130   5.219   5.263  16.127 -0.8340 -0.2012 -0.9039
17547TIP3   OH274131   0.062   6.218  14.010 -0.5302 -0.0323 -0.0009
17547TIP3    H174132  -0.027   6.253  14.001  0.1021  2.0096  1.3316
17547TIP3    H274133   0.088   6.242  14.099  0.8229 -1.8952  0.1166
17548TIP3   OH274134   3.131   2.889  16.659 -0.1798  0.3194  0.3930
17548TIP3    H174135   3.092   2.946  16.725  0.1728  1.0106  0.0127
17548TIP3    H274136   3.070   2.892  16.586 -1.0606 -1.2142  1.0411
17549TIP3   OH274137   4.910   6.418   2.258 -0.4600 -0.6113 -0.1479
17549TIP3    H174138   4.815   6.412   2.263 -0.5181  0.2590 -0.1384
17549TIP3    H274139   4.927   6.503   2.218  0.3013 -1.0666 -0.8217
17550TIP3   OH274140   1.604   1.337  14.280 -0.0871 -0.0776  0.2893
17550TIP3    H174141   1.699   1.329  14.273 -0.0424 -0.4104  1.1849
17550TIP3    H274142   1.581   1.282  14.355 -1.2234 -1.6498 -1.1845
17551TIP3   OH274143   5.867   2.420   3.863  0.0432 -0.0161  0.5281
17551TIP3    H174144   5.823   2.371   3.933  0.9035 -3.7664 -1.4188
17551TIP3    H274145   5.814   2.402   3.785  0.1432  2.6059 -0.2057
17552TIP3   OH274146   6.794   0.733  15.991 -0.5529  0.9531 -0.6350
17552TIP3    H174147   6.712   0.754  16.034 -0.4557  0.8012 -0.3769
17552TIP3    H274148   6.826   0.816  15.957  0.0610  1.3182  0.7947
17553TIP3   OH274149   4.496   2.025  12.714 -0.3197 -0.5219  0.2240
17553TIP3    H174150   4.416   2.020  12.766 -1.4826  0.6123 -1.3802
17553TIP3    H274151   4.470   1.998  12.626  0.4793  2.1581 -0.8966
17554TIP3   OH274152   3.312   6.105   1.258 -0.4589  0.0079  0.2877
17554TIP3    H174153   3.330   6.079   1.349 -0.1014  1.0851  0.5416
17554TIP3    H274154   3.237   6.165   1.265  0.3897  1.1084  0.0213
17555TIP3   OH274155   3.438   5.348  13.169  0.0221 -0.3134  0.2738
17555TIP3    H174156   3.426   5.335  13.075 -0.6241  1.2175  0.1213
17555TIP3    H274157   3.532   5.363  13.179 -0.0693  0.7378 -0.3057
17556TIP3   OH274158   1.371   0.429   2.723 -0.1832  0.3599 -0.4990
17556TIP3    H174159   1.341   0.408   2.812  0.8767  2.4738  0.4152
17556TIP3    H274160   1.352   0.523   2.714  0.7342  0.4004 -2.0797
17557TIP3   OH274161   6.442   0.925  14.782 -0.3509  0.0913 -0.0294
17557TIP3    H174162   6.405   0.842  14.813  0.2569  0.0842  0.6790
17557TIP3    H274163   6.403   0.938  14.695  2.0052 -2.5830 -1.5818
17558TIP3   OH274164   1.234   4.434  13.531  0.1271  0.2246 -0.3951
17558TIP3    H174165   1.193   4.365  13.479 -0.6528  0.0478  0.4260
17558TIP3    H274166   1.182   4.512  13.513 -0.0577  0.1952  0.0003
17559TIP3   OH274167   2.656   6.345  15.146 -0.4454 -0.3991 -0.4868
17559TIP3    H174168   2.694   6.432  15.164 -3.3059  0.7749  0.2120
17559TIP3    H274169   2.628   6.314  15.232  0.9704 -2.2492 -0.6775
17560TIP3   OH274170   2.680   0.077  13.212  0.2873 -0.5152  0.2981
17560TIP3    H174171   2.741   0.144  13.180  0.8547 -0.7399  0.9045
17560TIP3    H274172   2.713  -0.005  13.175  0.7088 -0.7189  1.0964
17561TIP3   OH274173   0.110   2.041   3.180 -0.1022  0.4009 -0.1699
17561TIP3    H174174   0.045   1.988   3.227  0.9017 -0.9377 -0.2575
17561TIP3    H274175   0.190   2.032   3.230  0.0238  2.0900 -0.0437
17562TIP3   OH274176   4.497   1.332  12.830 -0.4077 -0.3751 -0.0737
17562TIP3    H174177   4.558   1.275  12.876  0.6471  1.0293  0.3179
17562TIP3    H274178   4.515   1.420  12.865 -1.9532  0.2104 -0.6941
17563TIP3   OH274179   1.204   3.384   1.121 -0.1564 -0.8028  0.1668
17563TIP3    H174180   1.175   3.466   1.159  0.1366 -0.6821  0.1346
17563TIP3    H274181   1.254   3.410   1.043  0.4799 -0.9848  0.5156
17564TIP3   OH274182   4.497   2.270  12.052  0.1029 -0.0187  0.5762
17564TIP3    H174183   4.509   2.214  12.129 -0.3198  0.0260  0.6758
17564TIP3    H274184   4.511   2.359  12.085  2.7249 -0.1781  0.0237
17565TIP3   OH274185   4.977   6.147   1.233  0.5236 -0.2297  0.2665
17565TIP3    H174186   4.959   6.231   1.190  0.6832  0.3371  1.2913
17565TIP3    H274187   4.891   6.105   1.240  0.6368 -0.8178 -1.5882
17566TIP3   OH274188   4.570   6.588  14.976  0.2882  0.7793  0.0938
17566TIP3    H174189   4.607   6.662  14.929 -3.1972  1.3376 -1.9144
17566TIP3    H274190   4.493   6.623  15.021  0.1565 -1.0496  1.3672
17567TIP3   OH274191   1.327   3.270   5.939  0.1790 -0.3906 -0.0212
17567TIP3    H174192   1.350   3.210   5.868  0.1498 -1.2110  0.6559
17567TIP3    H274193   1.405   3.324   5.951 -0.5739  1.2261 -2.1360
17568TIP3   OH274194   5.663   0.515   3.622 -0.0948 -0.0679 -0.8765
17568TIP3    H174195   5.750   0.554   3.615 -0.0334 -0.1404 -0.5321
17568TIP3    H274196   5.676   0.435   3.671 -0.2140 -0.5657 -1.6494
17569TIP3   OH274197   3.936   2.805  11.808  0.1353  0.1267 -0.4291
17569TIP3    H174198   3.987   2.729  11.779  0.3509  0.3486 -0.6348
17569TIP3    H274199   3.845   2.776  11.804  0.2473 -0.2817 -0.0334
17570TIP3   OH274200   1.946   1.756  16.032  0.1603 -0.2928 -0.0116
17570TIP3    H174201   1.992   1.804  15.964 -1.6004  1.2991 -0.1110
17570TIP3    H274202   1.925   1.672  15.992  2.1729 -0.7240 -0.2460
17571TIP3   OH274203   2.681   1.785   6.100  0.1502 -0.6521  0.3093
17571TIP3    H174204   2.700   1.773   6.193  3.0586 -1.5426 -0.3423
17571TIP3    H274205   2.694   1.698   6.062 -0.0002 -0.0696 -1.0803
17572TIP3   OH274206   4.051   3.603  11.985 -0.0862 -0.1676 -0.2076
17572TIP3    H174207   4.063   3.688  11.943 -0.2742 -0.2471 -0.4192
17572TIP3    H274208   3.972   3.613  12.037 -1.0520 -0.7261 -1.5356
17573TIP3   OH274209   0.503   3.153  12.224 -0.1956  0.5362 -0.6499
17573TIP3    H174210   0.516   3.072  12.174  0.5061  0.6279 -0.6197
17573TIP3    H274211   0.588   3.197  12.222  0.0333  0.2337  1.1844
17574TIP3   OH274212   4.965   5.799   5.215  0.1416  0.3615 -0.5713
17574TIP3    H174213   4.920   5.817   5.132 -0.5896  0.4005 -0.1673
17574TIP3    H274214   5.056   5.783   5.190 -0.0333  0.5973 -1.3590
17575TIP3   OH274215   3.393   1.788   0.410 -0.3337 -0.0488 -0.2825
17575TIP3    H174216   3.414   1.801   0.502 -0.1874  2.5270 -0.6443
17575TIP3    H274217   3.320   1.848   0.393  0.0811  0.0111 -1.9878
17576TIP3   OH274218   1.430   5.875  16.640  0.3138 -0.6116  0.1100
17576TIP3    H174219   1.364   5.826  16.591  2.4270 -0.0988 -3.4016
17576TIP3    H274220   1.435   5.960  16.595  2.5096 -0.2103  1.0362
17577TIP3   OH274221   4.390   1.375  12.567 -0.5988  0.1750 -0.2767
17577TIP3    H174222   4.460   1.412  12.513  0.4016 -0.5478  0.5005
17577TIP3    H274223   4.426   1.375  12.656 -1.6775  0.0193  0.1607
17578TIP3   OH274224   4.223   5.598  15.147  0.2980 -0.0230  0.0937
17578TIP3    H174225   4.263   5.676  15.109 -0.7544 -0.6235 -2.3628
17578TIP3    H274226   4.136   5.593  15.107  1.1295 -3.6042 -1.5459
17579TIP3   OH274227   6.437   4.849  11.167 -0.4232 -0.0943 -0.1377
17579TIP3    H174228   6.354   4.861  11.121 -0.2623  1.0590 -0.1547
17579TIP3    H274229   6.486   4.929  11.148  1.6199 -1.7249 -2.0042
17580TIP3   OH274230   5.947   5.302  10.717 -0.5474  1.0113  0.6612
17580TIP3    H174231   5.967   5.337  10.631  0.3387 -0.0951  0.4030
17580TIP3    H274232   6.022   5.247  10.739 -0.5536  1.6258  2.3326
17581TIP3   OH274233   2.028   6.350  16.947  0.5408 -0.0744 -0.0641
17581TIP3    H174234   2.043   6.295  16.870 -1.0536 -0.1725 -0.3137
17581TIP3    H274235   1.986   6.429  16.913 -1.6300 -0.7948  0.8932
17582TIP3   OH274236   0.275   3.147   6.203 -0.0128  0.4166  0.0130
17582TIP3    H174237   0.206   3.141   6.269 -1.2215  0.4028 -1.2160
17582TIP3    H274238   0.353   3.171   6.252 -0.2303 -2.3499  1.8351
17583TIP3   OH274239   6.117   0.032   3.047 -0.0865 -0.1235  0.0172
17583TIP3    H174240   6.120  -0.051   2.998 -0.4920  0.6925 -1.4297
17583TIP3    H274241   6.197   0.078   3.022 -0.0985  0.1307  0.4377
17584TIP3   OH274242   1.544   4.528  11.431  0.4169  0.5784  0.0853
17584TIP3    H174243   1.550   4.432  11.430 -1.4282  0.4484 -2.1117
17584TIP3    H274244   1.520   4.552  11.342 -2.5821  2.8303  1.3952
17585TIP3   OH274245   2.736   5.222  12.791 -0.2507  0.3516 -0.0311
17585TIP3    H174246   2.719   5.316  12.802  0.7768  0.5984 -0.4237
17585TIP3    H274247   2.773   5.215  12.703 -1.9223 -0.6609 -0.6728
17586TIP3   OH274248   1.028   1.445  15.703  0.7236  0.7191  0.7638
17586TIP3    H174249   1.033   1.531  15.661  0.8939 -0.1120 -0.9598
17586TIP3    H274250   1.116   1.431  15.740  1.5916  0.0793 -1.4476
17587TIP3   OH274251   1.676   0.246   6.289 -0.1676  0.0734  0.2206
17587TIP3    H174252   1.684   0.274   6.198  0.2972  0.9197  0.5168
17587TIP3    H274253   1.757   0.197   6.306 -0.6129 -0.7691 -0.0531
17588TIP3   OH274254   5.292   2.116   2.579 -0.0662  0.0904 -0.5329
17588TIP3    H174255   5.352   2.190   2.581  2.1307 -1.6244 -0.7860
17588TIP3    H274256   5.284   2.089   2.670  0.2446 -0.1880 -0.5835
17589TIP3   OH274257   6.713   5.144   5.012 -0.0026 -0.0601 -0.0686
17589TIP3    H174258   6.777   5.161   5.081 -0.0098  1.1984 -0.3732
17589TIP3    H274259   6.644   5.094   5.057 -1.3870  3.1443  1.5811
17590TIP3   OH274260   4.966   4.856   1.890  1.0867 -0.1547  0.5089
17590TIP3    H174261   4.909   4.913   1.942  1.1360 -2.2642  2.9669
17590TIP3    H274262   5.033   4.914   1.854 -0.4841  1.7618  0.6097
17591TIP3   OH274263   0.695   3.843  15.430  0.3160  0.3893 -0.5646
17591TIP3    H174264   0.723   3.753  15.417  1.9422  1.0108 -1.4796
17591TIP3    H274265   0.635   3.839  15.505  1.2312 -1.2764  0.1073
17592TIP3   OH274266   0.888   0.570   4.678 -0.3167 -0.0996 -0.2403
17592TIP3    H174267   0.861   0.588   4.768 -1.8430 -1.6074 -0.3781
17592TIP3    H274268   0.819   0.513   4.643  0.1215  0.6882 -2.4502
17593TIP3   OH274269   2.070   2.488  16.078 -0.4021 -0.7216  0.3520
17593TIP3    H174270   2.163   2.499  16.097 -0.8799  0.9821  1.9230
17593TIP3    H274271   2.056   2.535  15.996 -0.0121 -0.3470  0.4991
17594TIP3   OH274272   2.443   6.284   4.060  0.0593  0.3662  0.0690
17594TIP3    H174273   2.523   6.337   4.068 -0.4104  1.0087  0.5479
17594TIP3    H274274   2.428   6.277   3.966 -0.0270  1.3171  0.0070
17595TIP3   OH274275   5.108   5.269   2.246  0.2337 -0.3787  0.4878
17595TIP3    H174276   5.076   5.233   2.163 -1.1856  0.1415  0.8025
17595TIP3    H274277   5.166   5.340   2.220  0.8234 -1.0495 -0.0767
17596TIP3   OH274278   3.311   5.995  10.889  0.3327  0.2644  0.0294
17596TIP3    H174279   3.333   6.018  10.799 -1.1657  1.5263 -0.0421
17596TIP3    H274280   3.218   6.017  10.897  0.8906  2.0039  2.4400
17597TIP3   OH274281   4.484   6.595   3.761 -0.2162  1.0122 -0.4668
17597TIP3    H174282   4.470   6.504   3.786  0.8845  0.5051 -1.5735
17597TIP3    H274283   4.417   6.644   3.808  0.9588 -0.0133  2.3974
17598TIP3   OH274284   0.454   0.022  14.232  0.3845 -0.9301 -0.1080
17598TIP3    H174285   0.382  -0.000  14.291 -1.2031  1.5372 -1.0398
17598TIP3    H274286   0.421   0.000  14.145  1.6149 -1.8146 -0.3685
17599TIP3   OH274287   6.244   1.072  12.626 -0.5392 -0.5489  0.2328
17599TIP3    H174288   6.245   0.998  12.566 -0.1712 -1.6482  1.5620
17599TIP3    H274289   6.157   1.111  12.615 -1.1168 -1.8077  0.2903
17600TIP3   OH274290   1.979   5.779  17.222  0.0995 -0.8317  0.0161
17600TIP3    H174291   1.956   5.765  17.130 -1.8354 -0.0360  0.3467
17600TIP3    H274292   1.985   5.874  17.231  0.4684 -0.9157  0.6621
17601TIP3   OH274293   3.973   4.745  12.888  0.1130  0.8781  0.0270
17601TIP3    H174294   3.967   4.771  12.980 -1.6228  3.9655 -0.8685
17601TIP3    H274295   4.051   4.790  12.855  0.6970 -0.1724 -0.0536
17602TIP3   OH274296   0.725   2.078   1.149 -0.2593  0.7086  0.0957
17602TIP3    H174297   0.802   2.132   1.165 -0.1123  0.0007  1.8421
17602TIP3    H274298   0.689   2.062   1.236 -0.5411 -1.6613 -0.4419
17603TIP3   OH274299   6.270   1.584   4.482  0.2311 -0.6014  0.0964
17603TIP3    H174300   6.317   1.585   4.565 -2.6998 -2.9290  1.9263
17603TIP3    H274301   6.324   1.531   4.424  2.8876  2.0231  0.1161
17604TIP3   OH274302   4.758   6.710   0.853  0.2674 -0.0140  0.2285
17604TIP3    H174303   4.707   6.788   0.832 -0.4531 -0.2586  0.9995
17604TIP3    H274304   4.843   6.724   0.813  0.6776  1.8903  1.7110
17605TIP3   OH274305   0.081   0.286  14.267 -0.2407  0.0401 -0.4173
17605TIP3    H174306   0.172   0.316  14.268 -0.4222  0.5872  0.5030
17605TIP3    H274307   0.032   0.357  14.310 -0.8674 -0.9723  0.5761
17606TIP3   OH274308   0.873   0.427   1.800  0.4502 -0.4301  0.4348
17606TIP3    H174309   0.950   0.465   1.842  1.1714 -1.9741  0.5468
17606TIP3    H274310   0.816   0.403   1.873 -0.6013  1.5903  0.3253
17607TIP3   OH274311   5.089   5.567   3.810 -0.3526 -0.0035  0.0923
17607TIP3    H174312   5.123   5.633   3.749 -1.8107  1.0938  0.4319
17607TIP3    H274313   5.104   5.483   3.766  0.5117  0.6387 -0.8421
17608TIP3   OH274314   1.568   2.982   6.480 -0.2732 -0.1921  0.0184
17608TIP3    H174315   1.566   3.044   6.407  0.6434 -0.8800 -0.6074
17608TIP3    H274316   1.653   2.999   6.522  0.2514 -1.4234 -0.5244
17609TIP3   OH274317   5.675   3.314  11.168 -0.4927  0.2607  0.3252
17609TIP3    H174318   5.743   3.299  11.233  0.0253  0.4923 -0.1546
17609TIP3    H274319   5.656   3.227  11.133  0.2074  0.3069 -0.1809
17610TIP3   OH274320   1.962   4.114   4.127  0.9471 -0.4445 -0.1182
17610TIP3    H174321   1.979   4.037   4.180  0.4222  0.1072  0.8629
17610TIP3    H274322   1.872   4.140   4.150  0.8448  0.0082 -0.9966
17611TIP3   OH274323   2.884   5.165   3.338  0.0277  0.3506  0.0623
17611TIP3    H174324   2.814   5.226   3.314 -0.4266  0.9872  2.8289
17611TIP3    H274325   2.844   5.078   3.327  0.2360  0.5253 -2.5486
17612TIP3   OH274326   0.387   4.040  17.098  0.4206 -0.5730  0.2870
17612TIP3    H174327   0.347   4.023  17.183  0.0532 -2.2762 -0.2183
17612TIP3    H274328   0.481   4.046  17.117  0.1577  1.3282  1.1410
17613TIP3   OH274329   1.204   6.206  14.651  0.9082 -0.1587 -0.1891
17613TIP3    H174330   1.282   6.206  14.707  0.1395  0.7635  0.8972
17613TIP3    H274331   1.238   6.198  14.563  2.1441 -1.6627  0.4011
17614TIP3   OH274332   0.932   2.263   5.664 -0.1279 -0.0126  0.1090
17614TIP3    H174333   0.921   2.289   5.573 -0.8905 -1.4154 -0.2122
17614TIP3    H274334   0.972   2.176   5.660  0.5210  0.2320  1.1195
17615TIP3   OH274335   3.539   6.701  17.031 -0.2306  0.2169  0.6395
17615TIP3    H174336   3.606   6.726  16.967  0.3483  0.6293  1.4052
17615TIP3    H274337   3.588   6.676  17.109 -0.9859  0.9836  1.3649
17616TIP3   OH274338   3.286   5.291  10.830  0.2781  0.7587  0.0935
17616TIP3    H174339   3.366   5.316  10.877  0.3166  0.5723  0.1270
17616TIP3    H274340   3.311   5.213  10.780  0.4559  1.4322 -0.8699
17617TIP3   OH274341   2.948   1.733   4.636 -0.4655 -0.1368 -0.1661
17617TIP3    H174342   2.960   1.828   4.637  0.7969 -0.2923  1.8761
17617TIP3    H274343   2.870   1.718   4.688  0.1441 -0.3155  0.6980
17618TIP3   OH274344   2.386   4.283   3.870 -0.0871  0.0734 -0.5802
17618TIP3    H174345   2.436   4.326   3.800  0.3576 -0.0486 -0.3403
17618TIP3    H274346   2.375   4.351   3.936 -0.7988  0.2844 -0.9146
17619TIP3   OH274347   4.066   5.381   3.113 -0.1972 -0.1033 -1.0852
17619TIP3    H174348   4.141   5.426   3.074  0.2789 -0.1884 -0.2803
17619TIP3    H274349   4.000   5.450   3.126  0.7962  0.5348  0.8143
17620TIP3   OH274350   3.102   5.979  12.750 -0.3292 -0.4586 -0.0018
17620TIP3    H174351   3.083   5.899  12.702  1.0837 -0.8889  0.1372
17620TIP3    H274352   3.191   5.967  12.785 -0.1693  1.0667  0.1955
17621TIP3   OH274353   2.074   5.998   3.441 -0.4172 -0.5789  0.5162
17621TIP3    H174354   2.076   5.911   3.481  0.9407 -0.1977  1.3403
17621TIP3    H274355   2.049   6.056   3.513 -1.9339 -0.3443 -0.1786
17622TIP3   OH274356   1.339   5.069   3.944 -0.1187 -0.4692  0.3407
17622TIP3    H174357   1.256   5.021   3.952 -1.3657  1.4271 -0.9144
17622TIP3    H274358   1.319   5.141   3.885  2.4381  0.0463  0.0695
17623TIP3   OH274359   5.017   2.838   5.617 -0.2415  0.6301  0.2382
17623TIP3    H174360   5.094   2.833   5.673 -0.0947  0.2793  0.0098
17623TIP3    H274361   5.048   2.881   5.537  0.1657 -1.1321 -0.5897
17624TIP3   OH274362   2.385   3.226   1.844  0.5171 -0.4395  0.8124
17624TIP3    H174363   2.332   3.231   1.765  1.0523 -3.8784  0.1497
17624TIP3    H274364   2.323   3.242   1.916 -0.2230  1.3931 -0.2090
17625TIP3   OH274365   2.424   5.276  11.270 -0.1525 -0.0543 -0.5703
17625TIP3    H174366   2.479   5.354  11.276  1.1375 -0.9901 -0.1015
17625TIP3    H274367   2.440   5.241  11.182 -0.5166  0.0326 -0.6758
17626TIP3   OH274368   3.148   0.959  13.156  0.5508 -0.4751  0.2007
17626TIP3    H174369   3.123   0.914  13.237 -1.7702 -2.2283 -1.4435
17626TIP3    H274370   3.127   0.897  13.086  2.3843  1.0596 -1.7969
17627TIP3   OH274371   0.192   0.425   5.840  0.0507  0.1710  0.3547
17627TIP3    H174372   0.211   0.429   5.747 -0.9475 -1.1116  0.0729
17627TIP3    H274373   0.105   0.386   5.845  0.4653 -0.6090  1.8565
17628TIP3   OH274374   4.646   4.847   0.406  0.4115  0.6590 -0.0413
17628TIP3    H174375   4.691   4.916   0.455 -0.6002  1.1204  0.2532
17628TIP3    H274376   4.650   4.876   0.315  2.3238 -0.2160 -0.2618
17629TIP3   OH274377   2.617   2.374   6.064  0.0319  0.2430 -0.4620
17629TIP3    H174378   2.615   2.286   6.102  1.1257  1.3121  2.1755
17629TIP3    H274379   2.693   2.373   6.006 -1.6283 -1.3868 -2.7236
17630TIP3   OH274380   1.230   0.608  16.839 -0.2273  0.3355 -0.0717
17630TIP3    H174381   1.191   0.670  16.778 -0.8114  0.0316 -0.0015
17630TIP3    H274382   1.172   0.532  16.838  1.7075 -1.1791 -1.9268
17631TIP3   OH274383   6.610   5.037  16.120 -0.4980 -0.0246 -0.3785
17631TIP3    H174384   6.576   5.075  16.039  0.9082  1.0417 -0.5060
17631TIP3    H274385   6.699   5.010  16.098  0.0888  0.7722  0.9433
17632TIP3   OH274386   4.579   4.967  15.155 -0.1739 -0.6728 -0.0271
17632TIP3    H174387   4.559   4.891  15.210 -0.5077  0.2474  1.1653
17632TIP3    H274388   4.495   5.013  15.147  0.3694  0.4596  0.6734
17633TIP3   OH274389   0.712   3.914  15.875 -0.4001  0.3711 -0.0508
17633TIP3    H174390   0.786   3.858  15.853 -0.5097 -0.0214  0.5734
17633TIP3    H274391   0.638   3.853  15.884 -0.4663  0.5866  0.8759
17634TIP3   OH274392   6.451   6.342  16.216  0.2583  0.2921  0.1303
17634TIP3    H174393   6.382   6.393  16.257 -0.2606 -1.2796  1.2723
17634TIP3    H274394   6.409   6.301  16.140  0.4958  0.9702 -0.3816
17635TIP3   OH274395   0.810   5.774  14.352  0.5432 -0.6513  0.0960
17635TIP3    H174396   0.762   5.848  14.388  0.5614 -0.3153 -0.5763
17635TIP3    H274397   0.760   5.748  14.275  0.0748 -1.8654  0.7883
17636TIP3   OH274398   4.548   1.214   1.301 -0.5088 -0.9349  0.2985
17636TIP3    H174399   4.643   1.228   1.290 -0.6567 -1.5249 -1.9890
17636TIP3    H274400   4.514   1.301   1.321  0.0863 -0.0456 -2.3575
17637TIP3   OH274401   5.257   0.124   3.016  0.4042 -0.0020  0.1332
17637TIP3    H174402   5.323   0.106   2.949 -0.7090 -3.0077 -0.2297
17637TIP3    H274403   5.223   0.210   2.993  1.7644  0.0848 -1.7003
17638TIP3   OH274404   0.403   1.739   3.049 -0.3569  0.2648  0.0087
17638TIP3    H174405   0.492   1.740   3.015 -0.3809 -0.6061 -0.0913
17638TIP3    H274406   0.413   1.734   3.144 -0.2815 -1.5144 -0.0651
17639TIP3   OH274407   3.523   5.767  14.119  0.0094 -0.0042  0.1444
17639TIP3    H174408   3.480   5.792  14.201  0.8920  1.1507  0.2665
17639TIP3    H274409   3.516   5.845  14.064  1.3915 -0.0207 -0.0587
17640TIP3   OH274410   4.838   4.497  16.489  0.3926 -0.3745  0.0704
17640TIP3    H174411   4.835   4.579  16.440 -2.0222 -0.4878 -0.0570
17640TIP3    H274412   4.785   4.437  16.437  0.8539 -1.5555  0.9607
17641TIP3   OH274413   0.772   2.621  14.784  0.1516 -0.1932  0.8908
17641TIP3    H174414   0.782   2.668  14.868 -0.5524 -1.2614  1.5819
17641TIP3    H274415   0.838   2.552  14.788 -0.2992 -0.6238  0.8171
17642TIP3   OH274416   6.181   4.013   0.976 -0.1723 -0.2204  0.1342
17642TIP3    H174417   6.277   4.017   0.980 -0.1039  1.6757 -2.0327
17642TIP3    H274418   6.153   4.018   1.067  1.7189  2.9194  0.6204
17643TIP3   OH274419   2.179   0.250   3.139 -0.3167  0.2622  0.0858
17643TIP3    H174420   2.207   0.166   3.176 -0.8950 -0.4921 -1.1371
17643TIP3    H274421   2.255   0.280   3.089 -0.5230 -0.1379 -0.4747
17644TIP3   OH274422   1.163   1.918   1.620  0.2669  0.1727  0.4089
17644TIP3    H174423   1.238   1.863   1.645  1.7679  1.5575 -0.9436
17644TIP3    H274424   1.088   1.858   1.623  1.3526 -1.1418  2.1967
17645TIP3   OH274425   3.744   5.333  12.072 -0.4041 -0.5093 -0.6617
17645TIP3    H174426   3.707   5.246  12.087 -2.1789  0.5773  1.5832
17645TIP3    H274427   3.835   5.325  12.100 -0.5271 -1.6797 -0.5751
17646TIP3   OH274428   6.651   3.459   1.251  0.0157  0.1455  0.2475
17646TIP3    H174429   6.563   3.494   1.236  0.9979  2.0122 -1.4742
17646TIP3    H274430   6.675   3.490   1.338 -0.2123  1.5139 -0.1530
17647TIP3   OH274431   1.806   5.287  13.307 -0.9337 -0.0617  0.3653
17647TIP3    H174432   1.831   5.214  13.364 -0.1764 -0.0423  0.0549
17647TIP3    H274433   1.786   5.245  13.223 -0.3816  0.0990  0.1524
17648TIP3   OH274434   5.404   1.041  11.897 -0.2594  0.2331  0.2831
17648TIP3    H174435   5.459   1.016  11.972  1.7999 -2.0261 -1.8664
17648TIP3    H274436   5.466   1.069  11.830 -1.8997  0.1489 -1.3117
17649TIP3   OH274437   6.680   5.801   1.879  0.0213 -0.0071  0.3327
17649TIP3    H174438   6.715   5.743   1.811  1.4681  0.0245  1.0501
17649TIP3    H274439   6.660   5.742   1.952 -0.8611  0.0664  0.1650
17650TIP3   OH274440   3.170   0.548  15.837 -0.2304 -0.0663 -0.2707
17650TIP3    H174441   3.136   0.635  15.859 -0.3303 -0.1283 -0.1779
17650TIP3    H274442   3.177   0.548  15.742  0.5896  0.3498 -0.2140
17651TIP3   OH274443   0.750   4.702  15.478  0.6067  0.2795  0.1350
17651TIP3    H174444   0.747   4.664  15.390  0.1527 -0.8123  0.6072
17651TIP3    H274445   0.662   4.735  15.493  0.4512 -0.2796  0.4886
17652TIP3   OH274446   1.410   1.028   1.170 -0.2465 -0.2978 -0.1460
17652TIP3    H174447   1.333   0.976   1.147  0.5685 -1.1862 -0.8605
17652TIP3    H274448   1.453   0.977   1.239  0.2117 -0.2696 -0.4104
17653TIP3   OH274449   4.662   4.487  15.695  0.1243  0.4693  0.1467
17653TIP3    H174450   4.727   4.530  15.640  0.9451 -0.2029  0.5891
17653TIP3    H274451   4.590   4.550  15.701  0.8647  1.3446 -0.0861
17654TIP3   OH274452   2.960   0.131  15.255  0.5071  0.2799  0.1990
17654TIP3    H174453   3.011   0.211  15.242  1.1701 -0.3941 -1.5590
17654TIP3    H274454   2.939   0.130  15.348  1.7285  1.7591  0.5048
17655TIP3   OH274455   2.320   5.069  14.391  0.2454 -0.1211 -0.1083
17655TIP3    H174456   2.411   5.091  14.407  0.5730 -0.4572 -1.4198
17655TIP3    H274457   2.305   5.095  14.300 -0.6227 -1.1331 -0.2708
17656TIP3   OH274458   6.022   0.720   4.821 -0.1894  0.4334 -0.0445
17656TIP3    H174459   6.027   0.796   4.879  0.1980  0.1866  0.2477
17656TIP3    H274460   6.041   0.645   4.879  1.2812  0.2805 -0.7342
17657TIP3   OH274461   0.547   6.227   2.464 -0.8647 -0.2295  0.6234
17657TIP3    H174462   0.637   6.208   2.437 -1.2241  0.0793 -0.8231
17657TIP3    H274463   0.496   6.155   2.426 -1.5252  0.7997 -0.4508
17658TIP3   OH274464   5.460   0.899   3.830  0.4678 -0.2221 -0.2007
17658TIP3    H174465   5.418   0.938   3.907  0.5806  1.9954 -1.2204
17658TIP3    H274466   5.509   0.824   3.864  1.9945  1.7844  2.1877
17659TIP3   OH274467   1.985   2.964   2.666 -0.4898  0.4512  0.2473
17659TIP3    H174468   2.033   3.045   2.649 -1.0310  0.7074 -0.0906
17659TIP3    H274469   1.994   2.950   2.760  0.1222  0.5724  0.2122
17660TIP3   OH274470   1.756   5.829  11.498  0.8954  0.4341 -0.5975
17660TIP3    H174471   1.691   5.783  11.444 -0.9854  2.5950 -0.2608
17660TIP3    H274472   1.762   5.777  11.578 -1.9652  1.2589  0.2114
17661TIP3   OH274473   3.645   0.148   4.025  0.8900  0.1036  0.0938
17661TIP3    H174474   3.627   0.142   3.931 -0.5336  0.4254  0.3248
17661TIP3    H274475   3.636   0.241   4.046  0.1319 -0.0985  0.7305
17662TIP3   OH274476   3.660   3.315  14.368  0.1132 -0.0879  0.0371
17662TIP3    H174477   3.680   3.221  14.363 -3.4003 -0.8359 -1.2472
17662TIP3    H274478   3.713   3.354  14.298  0.4575 -1.3325 -0.4132
17663TIP3   OH274479   3.067   3.309   4.054  0.3135 -0.2521  0.4070
17663TIP3    H174480   3.136   3.287   4.116 -0.2868 -1.2931  0.7282
17663TIP3    H274481   3.093   3.265   3.973 -0.6230 -1.7555  0.9007
17664TIP3   OH274482   3.268   4.692  15.936 -0.1810  0.5641  0.4311
17664TIP3    H174483   3.263   4.751  15.861  0.1553 -0.4642 -0.4205
17664TIP3    H274484   3.361   4.678  15.950 -0.2721 -1.2993 -0.6323
17665TIP3   OH274485   5.489   6.074   3.901 -0.4133  0.1503 -0.1296
17665TIP3    H174486   5.456   6.142   3.842  1.0751  1.1346  0.1397
17665TIP3    H274487   5.424   6.068   3.970 -1.1402  0.4721 -0.7818
17666TIP3   OH274488   3.829   4.854   5.398 -0.4687  0.5854  0.0322
17666TIP3    H174489   3.823   4.846   5.493 -1.6952 -1.5209 -0.2005
17666TIP3    H274490   3.744   4.825   5.365 -1.0447  3.7908 -1.6208
17667TIP3   OH274491   6.009   4.454  15.444 -0.0088 -0.4580 -0.6212
17667TIP3    H174492   5.934   4.497  15.403  0.6198 -0.5173 -1.8448
17667TIP3    H274493   6.081   4.468  15.383  0.6707 -1.5016 -0.0682
17668TIP3   OH274494   5.915   0.981  16.465  0.6164  0.6525  0.7169
17668TIP3    H174495   5.935   0.922  16.538  0.1430 -2.2660 -1.4329
17668TIP3    H274496   5.820   0.991  16.468  0.3971 -0.8816 -0.4996
17669TIP3   OH274497   5.498   3.512   4.346 -0.1321  0.3711 -0.3732
17669TIP3    H174498   5.484   3.570   4.421  3.2214  0.5910  0.1719
17669TIP3    H274499   5.539   3.434   4.384  2.4346  0.8584 -2.0749
17670TIP3   OH274500   4.681   3.495   6.629  0.7558 -0.2706  0.1111
17670TIP3    H174501   4.749   3.523   6.690 -1.1486  1.6248  1.4086
17670TIP3    H274502   4.640   3.420   6.672  0.0330  0.4807  0.7444
17671TIP3   OH274503   3.886   0.957  15.851  0.5858  0.4496  0.1050
17671TIP3    H174504   3.921   0.961  15.762 -1.2459  0.1257 -0.6429
17671TIP3    H274505   3.923   1.034  15.895 -1.4367  2.7169 -2.0112
17672TIP3   OH274506   3.603   4.895   0.908  0.1121 -0.3283  0.3658
17672TIP3    H174507   3.540   4.831   0.876  0.5934 -0.0380 -1.2408
17672TIP3    H274508   3.688   4.852   0.898  0.5133  0.8534 -1.5406
17673TIP3   OH274509   5.099   5.253   5.712 -0.3867 -0.5514 -0.2902
17673TIP3    H174510   5.186   5.242   5.751  0.3257 -1.2156 -2.0522
17673TIP3    H274511   5.094   5.345   5.689  0.1779 -0.6972 -0.9783
17674TIP3   OH274512   6.317   1.431  14.820 -0.6999 -0.3555  0.1637
17674TIP3    H174513   6.383   1.365  14.799 -1.2907 -0.7531 -0.4885
17674TIP3    H274514   6.236   1.395  14.783 -0.9335  0.9703 -0.6311
17675TIP3   OH274515   1.947   6.226  11.729  0.5243  0.5867 -0.1123
17675TIP3    H174516   1.999   6.183  11.661  1.0375  2.3207 -0.8438
17675TIP3    H274517   1.961   6.173  11.807  0.1959 -1.2527 -1.2698
17676TIP3   OH274518   5.913   0.936   1.732 -0.0211 -0.1180  0.7792
17676TIP3    H174519   5.921   0.846   1.762 -0.7088  0.5427  2.9991
17676TIP3    H274520   5.894   0.987   1.811 -0.9875  1.7808 -0.6313
17677TIP3   OH274521   6.574   1.154   2.436  0.4148 -0.2072  0.0370
17677TIP3    H174522   6.521   1.111   2.369 -0.1111 -0.4250  0.5885
17677TIP3    H274523   6.653   1.183   2.389 -0.3946  0.5251 -0.8808
17678TIP3   OH274524   2.479   6.619   3.538 -0.3390  0.1072 -0.0601
17678TIP3    H174525   2.514   6.699   3.500  1.3274  0.7044  2.5833
17678TIP3    H274526   2.463   6.641   3.630 -0.7854 -2.3014  0.4834
17679TIP3   OH274527   6.369   1.984  13.235 -0.2741  0.5936 -0.2111
17679TIP3    H174528   6.351   2.038  13.312 -0.6588  0.9672 -0.5643
17679TIP3    H274529   6.325   2.029  13.163 -2.2716 -1.2395 -0.1724
17680TIP3   OH274530   1.881   6.582   3.389  0.2190  0.1702 -0.5690
17680TIP3    H174531   1.831   6.652   3.430  1.8342  1.3820 -0.5791
17680TIP3    H274532   1.898   6.519   3.459 -1.1539 -0.1693 -0.5355
17681TIP3   OH274533   3.898   2.219   5.673  0.6718 -0.2638  0.2001
17681TIP3    H174534   3.914   2.261   5.757 -0.1377  2.3479 -0.9038
17681TIP3    H274535   3.826   2.158   5.689 -1.2442  2.1239  0.8483
17682TIP3   OH274536   0.001   6.092   2.228  0.4029  0.3471  0.2117
17682TIP3    H174537   0.016   6.122   2.317  1.6804 -0.4993  0.2783
17682TIP3    H274538  -0.036   6.169   2.183 -2.2210  0.1887  1.9627
17683TIP3   OH274539   4.115   5.983  15.713  0.1354  0.3157 -0.6010
17683TIP3    H174540   4.119   5.888  15.707 -0.4298  0.2935 -0.6191
17683TIP3    H274541   4.121   6.002  15.807 -0.5296  0.2221 -0.5349
17684TIP3   OH274542   2.073   4.243   5.420  0.3465  0.4956  0.9017
17684TIP3    H174543   2.055   4.212   5.509  1.9401 -0.4857  0.8962
17684TIP3    H274544   2.157   4.288   5.427 -0.0181  1.3232  0.0820
17685TIP3   OH274545   3.442   6.079  16.669  0.7109 -0.2299  0.6223
17685TIP3    H174546   3.378   6.045  16.732  0.2779 -0.2532  0.1646
17685TIP3    H274547   3.478   6.157  16.711  0.6523 -0.4281  1.0420
17686TIP3   OH274548   1.528   6.316  15.059 -0.6863  0.2606 -0.1698
17686TIP3    H174549   1.514   6.340  14.968  0.6238 -1.4630 -0.8589
17686TIP3    H274550   1.619   6.287  15.062 -0.5869  0.7277  1.7951
17687TIP3   OH274551   3.410   3.878  16.993 -0.0018  0.6081 -0.2408
17687TIP3    H174552   3.445   3.904  16.908 -1.1528 -0.4058 -1.0336
17687TIP3    H274553   3.427   3.953  17.050 -0.3286  1.7701 -1.6712
17688TIP3   OH274554   2.476   5.196  10.734  0.6319 -0.8669  0.5203
17688TIP3    H174555   2.521   5.114  10.717  1.8225 -0.1278  0.0341
17688TIP3    H274556   2.467   5.237  10.648 -1.1215 -1.0684  0.5840
17689TIP3   OH274557   4.920   1.291   1.894  0.4717 -0.1517 -0.4313
17689TIP3    H174558   4.873   1.233   1.834 -0.6406 -0.2513  0.5348
17689TIP3    H274559   4.852   1.326   1.951  1.5692 -0.2655  0.9530
17690TIP3   OH274560   3.166   4.773   1.614  0.0332  0.3618  0.0627
17690TIP3    H174561   3.076   4.805   1.604 -0.1551  0.0568  0.7511
17690TIP3    H274562   3.207   4.834   1.675 -0.6818 -1.3419  2.3497
17691TIP3   OH274563   2.169   2.598  13.396 -0.5359  0.2102  0.0294
17691TIP3    H174564   2.251   2.624  13.437 -1.2237  0.5027  1.2339
17691TIP3    H274565   2.140   2.675  13.348  0.5859 -0.3261 -1.5641
17692TIP3   OH274566   2.775   0.225   4.304 -0.2172 -0.2661  0.5266
17692TIP3    H174567   2.840   0.227   4.375 -0.2271  0.1183  0.5283
17692TIP3    H274568   2.775   0.134   4.273  1.6699  0.1204 -0.7110
17693TIP3   OH274569   1.516   6.365   6.452  0.2529 -0.3556  0.9313
17693TIP3    H174570   1.441   6.400   6.404  0.6739 -0.7057  0.0261
17693TIP3    H274571   1.542   6.436   6.511  0.6563  0.5930 -0.3870
17694TIP3   OH274572   6.584   4.862  11.462 -0.3210 -0.3005  0.3218
17694TIP3    H174573   6.662   4.913  11.441  0.8877 -2.4285 -0.5155
17694TIP3    H274574   6.523   4.881  11.391 -0.2292  0.6607  0.4931
17695TIP3   OH274575   6.375   6.200   5.985 -0.0179 -0.0419  0.2784
17695TIP3    H174576   6.405   6.190   6.075 -1.0995  1.0490  0.7699
17695TIP3    H274577   6.335   6.116   5.963  0.3179 -0.3342  0.7786
17696TIP3   OH274578   4.221   1.804  13.811 -0.5229 -0.0798 -0.4922
17696TIP3    H174579   4.276   1.875  13.777 -1.8278  0.9748 -0.4511
17696TIP3    H274580   4.175   1.772  13.734 -0.0721 -0.7670 -0.4772
17697TIP3   OH274581   6.387   0.714   3.509  0.4474  0.2434 -0.4448
17697TIP3    H174582   6.459   0.770   3.481  0.3597  1.1392  1.0907
17697TIP3    H274583   6.310   0.770   3.506 -0.1199 -0.5777 -1.6065
17698TIP3   OH274584   3.077   0.139   6.043 -0.2999  0.5666 -0.3526
17698TIP3    H174585   2.998   0.088   6.057  2.2965 -3.4563  0.2606
17698TIP3    H274586   3.118   0.146   6.130 -0.6189  3.8892 -0.3737
17699TIP3   OH274587   0.658   2.253  16.906  0.1049  0.2919  0.0305
17699TIP3    H174588   0.664   2.196  16.982 -1.1762  0.5447  0.3397
17699TIP3    H274589   0.589   2.215  16.852 -1.7856  2.2911  0.9350
17700TIP3   OH274590   3.852   3.631   3.830  0.1856  0.1187  0.4940
17700TIP3    H174591   3.936   3.590   3.850  1.1116  1.4580 -0.5923
17700TIP3    H274592   3.805   3.566   3.777  1.9960  0.7554 -1.9794
17701TIP3   OH274593   4.151   4.384  10.834 -0.1311  0.2915 -0.1219
17701TIP3    H174594   4.135   4.318  10.767 -3.5922  2.2308 -1.3178
17701TIP3    H274595   4.104   4.353  10.911 -0.4716  0.5695 -0.2142
17702TIP3   OH274596   1.070   0.851  11.738 -0.2104 -0.3311  0.0236
17702TIP3    H174597   1.152   0.822  11.696  0.2663  0.5950  0.2877
17702TIP3    H274598   1.006   0.853  11.667  0.4465  0.6498 -0.5623
17703TIP3   OH274599   3.595   6.163   3.804 -0.5422  0.2822 -0.2348
17703TIP3    H174600   3.567   6.186   3.892  0.9339  1.9460 -0.1708
17703TIP3    H274601   3.612   6.069   3.807 -4.3844 -0.4669  0.1605
17704TIP3   OH274602   1.434   6.578  15.398  0.5336  0.3561  0.4601
17704TIP3    H174603   1.369   6.508  15.400 -1.0111  1.6952 -1.3163
17704TIP3    H274604   1.517   6.534  15.378 -0.4679 -0.9331 -0.9299
17705TIP3   OH274605   2.531   4.617  15.060  0.3457  1.1152  0.3167
17705TIP3    H174606   2.609   4.580  15.020 -1.5364 -3.0857  0.2915
17705TIP3    H274607   2.498   4.679  14.995  0.9618 -0.7554 -1.8486
17706TIP3   OH274608   6.029   2.106   2.534  0.3966 -0.0663  0.3164
17706TIP3    H174609   5.943   2.125   2.571  0.6992 -0.7100  1.3836
17706TIP3    H274610   6.091   2.134   2.601  0.9638 -1.0184  0.2041
17707TIP3   OH274611   1.645   0.012   5.379  0.5382  0.1315  0.9413
17707TIP3    H174612   1.569  -0.016   5.430  1.3784  0.2685  2.2953
17707TIP3    H274613   1.653  -0.054   5.310 -2.0135  1.2082 -0.4720
17708TIP3   OH274614   4.493   0.612   2.683 -0.2281  0.0700  0.5904
17708TIP3    H174615   4.407   0.570   2.674  0.1230 -0.9645  1.9556
17708TIP3    H274616   4.480   0.700   2.649 -1.3104 -0.7312 -1.1321
17709TIP3   OH274617   6.386   5.435  16.487  0.2834 -0.1389  0.1975
17709TIP3    H174618   6.478   5.453  16.465  0.1170  0.1426 -0.2866
17709TIP3    H274619   6.390   5.367  16.554  0.8295 -0.9663 -0.6476
17710TIP3   OH274620   4.187   1.568   1.090 -0.6489  0.0678 -0.7060
17710TIP3    H174621   4.173   1.474   1.102  0.1075  0.0396 -0.0232
17710TIP3    H274622   4.234   1.596   1.168 -1.2577  1.1074 -0.7024
17711TIP3   OH274623   6.071   6.309  14.569 -0.0512 -0.4957  0.0540
17711TIP3    H174624   6.124   6.230  14.569  2.0009  0.8317 -0.0754
17711TIP3    H274625   6.108   6.363  14.499 -0.2753  1.2668  1.2342
17712TIP3   OH274626   5.113   6.362  11.893  0.7664  0.2176 -0.1014
17712TIP3    H174627   5.205   6.339  11.907  1.1384  0.2031 -2.3095
17712TIP3    H274628   5.076   6.285  11.848  0.3139  1.2069 -1.4531
17713TIP3   OH274629   5.791   1.531  16.811 -0.4613  0.9920 -0.4489
17713TIP3    H174630   5.737   1.598  16.853  1.0583  1.5821  0.6192
17713TIP3    H274631   5.751   1.448  16.836 -1.4521  1.4534 -0.4901
17714TIP3   OH274632   2.861   3.622   3.501  0.3704 -0.3245 -0.2452
17714TIP3    H174633   2.937   3.591   3.550  0.7315  0.0916 -0.5445
17714TIP3    H274634   2.875   3.716   3.492  0.6140 -0.4976 -1.6877
17715TIP3   OH274635   4.166   5.968   6.311 -0.3117 -0.0913 -0.3601
17715TIP3    H174636   4.213   5.884   6.310 -1.2225 -0.6208  0.0858
17715TIP3    H274637   4.111   5.965   6.233  1.9309  1.4476 -2.0668
17716TIP3   OH274638   0.439   4.044  12.985  0.2918 -0.2836 -0.4653
17716TIP3    H174639   0.410   4.019  12.897 -0.4982  1.1788 -0.6428
17716TIP3    H274640   0.360   4.078  13.027  0.7841 -0.4797  0.6405
17717TIP3   OH274641   0.206   2.638  14.111 -0.5103  0.5408  0.7402
17717TIP3    H174642   0.186   2.564  14.169  1.8238 -0.3450  0.4697
17717TIP3    H274643   0.279   2.683  14.154  1.1797 -0.0505 -1.4125
17718TIP3   OH274644   5.593   1.610   5.759  0.1323 -0.3262  0.2621
17718TIP3    H174645   5.529   1.655   5.704 -0.7463 -1.3484  0.4293
17718TIP3    H274646   5.602   1.523   5.718 -0.6892 -1.1757  1.8261
17719TIP3   OH274647   0.972   3.841   4.883  0.0791  0.6636  0.0861
17719TIP3    H174648   1.017   3.854   4.967 -2.1227 -1.8778  1.7115
17719TIP3    H274649   0.993   3.751   4.858  1.3593  1.6573 -2.5197
17720TIP3   OH274650   1.840   1.151  14.733  0.1144 -0.0943 -0.1847
17720TIP3    H174651   1.833   1.197  14.817  0.6096  0.1786 -0.2924
17720TIP3    H274652   1.920   1.185  14.694 -0.2335 -0.0568 -0.8680
17721TIP3   OH274653   0.391   2.914  16.150 -0.0725 -0.3565  0.0931
17721TIP3    H174654   0.310   2.864  16.159  1.1012 -2.3902 -0.3807
17721TIP3    H274655   0.453   2.869  16.208  0.7819  1.0560  0.2952
17722TIP3   OH274656   5.877   5.744  13.083  0.2189  0.2959  0.1381
17722TIP3    H174657   5.877   5.768  13.176  0.3991 -0.9113  0.4482
17722TIP3    H274658   5.814   5.804  13.044  0.2082  0.8767  1.0228
17723TIP3   OH274659   0.045   4.112  12.486 -0.2046 -0.0814 -0.3215
17723TIP3    H174660   0.122   4.153  12.525  0.7282 -2.3464  0.2921
17723TIP3    H274661  -0.026   4.173  12.504  1.0639  1.1047  0.8442
17724TIP3   OH274662   3.151   5.135   0.236  0.2482 -0.4536  0.2878
17724TIP3    H174663   3.097   5.132   0.157  0.3453 -1.8380  0.2517
17724TIP3    H274664   3.183   5.225   0.241 -0.5858 -0.0962 -0.6871
17725TIP3   OH274665   1.995   1.547   3.853 -0.2819  0.2785 -0.1583
17725TIP3    H174666   2.068   1.563   3.912 -0.9719 -0.5463  0.9344
17725TIP3    H274667   1.997   1.453   3.837 -0.5091  0.3981 -0.9029
17726TIP3   OH274668   6.392   3.233  10.736 -0.3694  0.0431  0.1967
17726TIP3    H174669   6.302   3.223  10.767 -0.2051  1.1918  1.0502
17726TIP3    H274670   6.421   3.317  10.770 -0.1079  1.2771 -2.9086
17727TIP3   OH274671   1.721   3.117  14.552  0.5187 -0.4543  0.6489
17727TIP3    H174672   1.712   3.046  14.615 -0.5816 -0.0108  1.0004
17727TIP3    H274673   1.725   3.073  14.467 -0.3117 -0.9458  0.8488
17728TIP3   OH274674   4.669   3.586   2.289 -0.2989  0.4909  0.1967
17728TIP3    H174675   4.688   3.572   2.196 -0.9560 -4.2119  0.6361
17728TIP3    H274676   4.751   3.567   2.334 -1.0834 -1.5131  0.8291
17729TIP3   OH274677   3.544   5.540  16.548 -0.8657 -0.7027 -0.1608
17729TIP3    H174678   3.557   5.633  16.566  1.4791 -0.8112 -1.0519
17729TIP3    H274679   3.499   5.538  16.464 -0.3474 -0.3526 -0.4575
17730TIP3   OH274680   3.422   3.338  12.562 -0.1736  0.1875 -0.8548
17730TIP3    H174681   3.442   3.290  12.642  2.5279  2.3610 -0.1555
17730TIP3    H274682   3.339   3.381  12.579  1.3534  2.3006  1.6471
17731TIP3   OH274683   1.041   0.485  11.727  0.2402  1.0099  0.0812
17731TIP3    H174684   1.021   0.504  11.635 -1.0517 -0.3229  0.0689
17731TIP3    H274685   1.048   0.390  11.730  1.3352  1.1231  1.1673
17732TIP3   OH274686   0.951   4.541   1.111  0.7426  0.2522 -0.3608
17732TIP3    H174687   0.972   4.580   1.195 -3.1333 -0.6920  1.1755
17732TIP3    H274688   0.948   4.447   1.127 -0.3624  0.0790 -1.4543
17733TIP3   OH274689   1.349   3.467   3.444 -0.5412  0.0368 -0.1308
17733TIP3    H174690   1.439   3.451   3.471 -0.0981  1.1357 -0.8949
17733TIP3    H274691   1.349   3.448   3.350 -1.3994 -1.1295  0.0987
17734TIP3   OH274692   2.934   3.527  13.611  0.1473  0.2806 -0.3838
17734TIP3    H174693   2.942   3.545  13.518 -1.8149  0.5146 -0.5284
17734TIP3    H274694   3.010   3.473  13.632  0.8816  0.6590 -1.9969
17735TIP3   OH274695   4.441   3.417   3.806 -0.3251  0.0542  0.0190
17735TIP3    H174696   4.478   3.362   3.874  0.7496  2.1518  1.1858
17735TIP3    H274697   4.349   3.392   3.802 -0.2156 -0.6784  1.6687
17736TIP3   OH274698   6.532   0.224  15.936  0.2291  0.2279  0.1852
17736TIP3    H174699   6.584   0.162  15.989  0.1954  1.0551  1.2061
17736TIP3    H274700   6.597   0.269  15.883  0.4834  0.7433  0.9265
17737TIP3   OH274701   6.004   3.118   5.321  0.1210 -0.1818 -0.4202
17737TIP3    H174702   6.083   3.105   5.374  1.0569  2.5771 -1.0650
17737TIP3    H274703   6.026   3.082   5.236  0.1313 -0.8043 -0.1567
17738TIP3   OH274704   6.695   6.375  14.779  0.5002 -0.0028 -0.0889
17738TIP3    H174705   6.603   6.349  14.784  1.0397 -1.7323  1.5110
17738TIP3    H274706   6.715   6.410  14.866  1.1628  1.0967 -0.6668
17739TIP3   OH274707   6.787   5.180  12.859 -0.9790  0.3400 -0.1072
17739TIP3    H174708   6.857   5.135  12.906  0.3859  0.9976 -1.4833
17739TIP3    H274709   6.716   5.186  12.923  1.7990  3.7387  2.8990
17740TIP3   OH274710   4.720   4.049  14.347  0.0548  0.3355 -0.4909
17740TIP3    H174711   4.703   4.060  14.441  1.5071  2.2200 -0.4035
17740TIP3    H274712   4.671   4.120  14.306 -0.5014 -0.4352 -1.1632
17741TIP3   OH274713   2.633   5.414   1.576  0.1131 -0.4811  0.7714
17741TIP3    H174714   2.706   5.352   1.578  0.5404  0.0428  1.4907
17741TIP3    H274715   2.674   5.500   1.569 -0.4806 -0.2780 -0.3300
17742TIP3   OH274716   0.415   1.218   6.129  0.4180  0.7064 -0.0196
17742TIP3    H174717   0.383   1.296   6.175  1.0617  0.2433  1.2227
17742TIP3    H274718   0.454   1.164   6.197 -0.2354 -0.8227 -0.8398
17743TIP3   OH274719   2.388   2.058   4.575  0.5016  0.9058  0.5441
17743TIP3    H174720   2.397   2.133   4.635  1.8714  0.9748  0.2530
17743TIP3    H274721   2.467   2.006   4.589  0.4845  0.5371 -0.6855
17744TIP3   OH274722   6.196   0.108   4.461  0.0256  0.0911  0.3734
17744TIP3    H174723   6.227   0.193   4.431  0.7687 -0.0178  0.8234
17744TIP3    H274724   6.104   0.122   4.483 -0.0434  0.6027 -0.2208
17745TIP3   OH274725   4.112   1.814  17.148 -0.1961 -0.2844  0.3202
17745TIP3    H174726   4.033   1.773  17.114 -0.8899 -0.2619  1.8520
17745TIP3    H274727   4.088   1.906  17.162  0.2589 -0.1582  0.2756
17746TIP3   OH274728   4.392   6.563  15.805 -0.5767  0.0060 -0.3248
17746TIP3    H174729   4.306   6.581  15.767 -0.3541 -0.2595 -0.9565
17746TIP3    H274730   4.454   6.599  15.742 -0.1930 -0.9218 -0.4762
17747TIP3   OH274731   0.566   5.907   5.420 -0.6011  0.3358 -0.4074
17747TIP3    H174732   0.477   5.879   5.440 -1.9948  3.6985 -1.5593
17747TIP3    H274733   0.582   5.982   5.478  0.8761  0.7709 -1.3420
17748TIP3   OH274734   4.059   6.332   0.283 -0.3282  0.0818 -0.1161
17748TIP3    H174735   4.124   6.401   0.294 -0.3951  0.1733 -0.2890
17748TIP3    H274736   4.070   6.275   0.360  0.1470 -0.0634 -0.2895
17749TIP3   OH274737   4.137   0.866   1.052 -0.3366  0.5535 -0.4096
17749TIP3    H174738   4.218   0.905   1.019  0.6330 -0.3856  0.8372
17749TIP3    H274739   4.086   0.846   0.973  1.3498 -0.3409 -1.2986
17750TIP3   OH274740   5.105   5.597  16.309  0.1448 -0.0894  0.2175
17750TIP3    H174741   5.200   5.607  16.318 -0.0182 -0.1918  2.2307
17750TIP3    H274742   5.069   5.641  16.386 -1.4189 -0.5924 -0.2113
17751TIP3   OH274743   1.396   4.722  16.031 -0.2103 -0.3807 -0.1095
17751TIP3    H174744   1.310   4.702  15.993  0.0440 -2.1832  0.1972
17751TIP3    H274745   1.384   4.708  16.125  0.2202  0.1495  0.0284
17752TIP3   OH274746   6.622   5.008   0.787  0.2811 -0.7546 -0.0737
17752TIP3    H174747   6.652   5.002   0.877  0.4851  0.1022 -0.0828
17752TIP3    H274748   6.651   5.094   0.757 -1.6122 -0.1672 -0.2883
17753TIP3   OH274749   5.652   3.797   5.642  0.5448 -0.0412 -0.9455
17753TIP3    H174750   5.720   3.832   5.700 -0.4853 -0.2988  0.4379
17753TIP3    H274751   5.630   3.870   5.584 -0.0596  0.9647  0.5107
17754TIP3   OH274752   2.709   4.032  14.980 -0.1248  0.4214  0.4762
17754TIP3    H174753   2.717   4.107  14.920 -0.6541 -0.2182 -0.4070
17754TIP3    H274754   2.668   3.964  14.927  0.3155 -0.4803  1.2932
17755TIP3   OH274755   1.755   6.553  13.275 -0.3302  0.0692 -0.0899
17755TIP3    H174756   1.841   6.589  13.250  0.7903 -1.5464  1.3685
17755TIP3    H274757   1.775   6.471  13.319 -2.6526 -0.2970  0.3424
17756TIP3   OH274758   1.499   4.655   2.210  0.3338 -0.2304 -0.2241
17756TIP3    H174759   1.558   4.581   2.224  0.8798  0.5315  1.7946
17756TIP3    H274760   1.546   4.712   2.149  1.1003 -0.3083  0.2807
17757TIP3   OH274761   1.050   4.371  16.021  0.3652 -0.1738 -0.0909
17757TIP3    H174762   1.114   4.314  15.979  1.2400  1.3341 -0.8358
17757TIP3    H274763   0.974   4.315  16.037  0.2024 -0.9130 -3.1866
17758TIP3   OH274764   2.375   1.662  14.701 -0.5549  0.4140  0.0893
17758TIP3    H174765   2.295   1.708  14.728 -0.4714  1.0913 -0.7671
17758TIP3    H274766   2.382   1.589  14.762 -2.9153 -0.8092 -1.0267
17759TIP3   OH274767   2.939   6.255   3.783  0.5113  0.0936 -0.0232
17759TIP3    H174768   2.869   6.219   3.729  0.7425 -0.5122  0.0721
17759TIP3    H274769   3.002   6.183   3.792  0.8040  0.4049  0.4786
17760TIP3   OH274770   6.746   1.082   5.864 -0.2460 -0.0469 -0.1821
17760TIP3    H174771   6.696   1.155   5.829  0.7833  0.3103 -0.9320
17760TIP3    H274772   6.836   1.114   5.867 -0.0156 -0.7872  0.8493
17761TIP3   OH274773   3.830   6.233   5.047  0.3857  0.2044  0.9110
17761TIP3    H174774   3.816   6.327   5.061  0.4712  0.4850 -0.7418
17761TIP3    H274775   3.754   6.205   4.996  1.1488 -0.2807  0.0275
17762TIP3   OH274776   1.291   5.444   4.197 -0.1189 -0.2890 -0.3667
17762TIP3    H174777   1.346   5.515   4.163 -1.0132  1.5506  1.8933
17762TIP3    H274778   1.257   5.402   4.118  0.4002  1.8240 -1.7939
17763TIP3   OH274779   5.669   0.730  13.675  0.0853 -0.4850  0.0534
17763TIP3    H174780   5.732   0.659  13.658  0.3306 -0.0291 -0.9527
17763TIP3    H274781   5.674   0.743  13.770  2.4179  0.3660 -0.1312
17764TIP3   OH274782   3.438   0.176  13.803  0.5281 -0.2382  0.3450
17764TIP3    H174783   3.444   0.090  13.846  0.0725 -0.4905 -0.0957
17764TIP3    H274784   3.360   0.170  13.749  1.5093 -0.1930 -1.1082
17765TIP3   OH274785   6.478   4.479  12.672  0.1948 -0.0705  0.2422
17765TIP3    H174786   6.441   4.396  12.704 -0.8829  0.3107  0.0091
17765TIP3    H274787   6.423   4.546  12.711  0.4809  0.4990 -0.3316
17766TIP3   OH274788   6.305   2.423   1.442  0.5250 -0.4219 -0.0595
17766TIP3    H174789   6.283   2.435   1.534  0.4214 -2.1615  0.1627
17766TIP3    H274790   6.265   2.339   1.418 -1.0304  0.8587 -2.1957
17767TIP3   OH274791   1.148   6.026  16.895 -0.0261  0.0350 -0.0922
17767TIP3    H174792   1.061   5.991  16.877 -1.2109  2.8194 -0.0958
17767TIP3    H274793   1.151   6.033  16.991  1.2174 -2.4154  0.0941
17768TIP3   OH274794   5.511   4.078   5.763  0.2129  0.4095  0.4187
17768TIP3    H174795   5.586   4.055   5.818  0.1199  0.0817  0.4108
17768TIP3    H274796   5.478   4.160   5.800  0.8008  0.7465  0.1934
17769TIP3   OH274797   4.512   6.211   1.696  0.2110  0.1743  0.2985
17769TIP3    H174798   4.492   6.128   1.652  1.2443 -0.3883  0.8785
17769TIP3    H274799   4.607   6.219   1.691  0.0485  1.8378 -0.6615
17770TIP3   OH274800   5.664   1.470   1.535  0.2767  0.0974  0.3643
17770TIP3    H174801   5.714   1.549   1.516  0.8711 -0.4200 -0.2470
17770TIP3    H274802   5.576   1.502   1.557  0.7485  0.9804  0.9892
17771TIP3   OH274803   4.323   3.680   6.157  0.2238  0.0766 -0.2515
17771TIP3    H174804   4.380   3.607   6.178  0.8540  0.7684  0.4647
17771TIP3    H274805   4.235   3.643   6.160  0.6065 -0.9128 -1.0328
17772TIP3   OH274806   2.439   3.678   4.727 -0.1869  0.0012 -0.4670
17772TIP3    H174807   2.404   3.757   4.685  1.0934  0.3355 -0.9135
17772TIP3    H274808   2.453   3.617   4.656  2.5102  0.7645 -0.6483
17773TIP3   OH274809   6.355   0.271  14.636  0.0912  0.2497  0.2267
17773TIP3    H174810   6.280   0.286  14.578  1.2424  0.5487 -1.2012
17773TIP3    H274811   6.315   0.246  14.719 -1.6345  1.7310 -0.1163
17774TIP3   OH274812   1.096   2.636  16.332  0.2944  0.1949 -0.2569
17774TIP3    H174813   1.017   2.687  16.312 -0.1401 -0.9336 -1.5395
17774TIP3    H274814   1.074   2.590  16.413  0.1276  0.8820  0.0956
17775TIP3   OH274815   0.374   4.798  14.354  0.3040  0.5185 -0.3653
17775TIP3    H174816   0.387   4.892  14.362  3.1766  0.2524 -1.4373
17775TIP3    H274817   0.420   4.760  14.429  1.5164 -0.1783 -1.4456
17776TIP3   OH274818   4.565   2.152   6.061  0.4217  0.4206 -0.3255
17776TIP3    H174819   4.564   2.102   5.979  0.1087  0.0142 -0.0790
17776TIP3    H274820   4.479   2.136   6.099 -0.0636  2.0036 -0.7416
17777TIP3   OH274821   1.110   3.488   2.380 -0.0635 -0.6143 -0.2161
17777TIP3    H174822   1.202   3.491   2.354  0.0570 -2.3025 -0.0777
17777TIP3    H274823   1.079   3.579   2.374  1.3807 -0.1729 -1.0650
17778TIP3   OH274824   3.554   4.161  11.121 -0.1008 -0.8054 -0.3833
17778TIP3    H174825   3.606   4.085  11.094  1.1503 -0.2485  0.4149
17778TIP3    H274826   3.476   4.158  11.065  0.1433 -2.4224 -0.6614
17779TIP3   OH274827   5.564   4.412   4.853 -0.0928 -0.5080  0.0382
17779TIP3    H174828   5.644   4.360   4.844  1.9131  2.1677  1.4616
17779TIP3    H274829   5.560   4.464   4.773 -0.1508 -0.3358  0.1508
17780TIP3   OH274830   4.092   1.731   4.791 -0.2046 -0.6926  0.3586
17780TIP3    H174831   4.162   1.725   4.726 -1.0187  1.4314 -0.7640
17780TIP3    H274832   4.018   1.686   4.752 -0.3812 -0.3036  0.2370
17781TIP3   OH274833   0.191   1.613  12.357  0.0703 -0.0710  0.3196
17781TIP3    H174834   0.283   1.627  12.333  0.2543  0.1623  1.1525
17781TIP3    H274835   0.193   1.533  12.411 -0.2668 -0.2724  0.0364
17782TIP3   OH274836   3.793   5.719   1.069  0.6573 -0.1470  0.3013
17782TIP3    H174837   3.790   5.631   1.033 -1.1879 -0.2445  0.5989
17782TIP3    H274838   3.866   5.718   1.131  2.6883 -0.5017 -2.0347
17783TIP3   OH274839   5.286   6.631   2.864  0.0580  0.0038  0.2323
17783TIP3    H174840   5.244   6.548   2.842  0.8212 -0.6480  1.1911
17783TIP3    H274841   5.373   6.625   2.825  0.9255 -0.5917  2.1690
17784TIP3   OH274842   6.194   1.649   5.879 -0.2939 -0.2772 -0.3299
17784TIP3    H174843   6.185   1.741   5.904 -1.7217 -0.5154  0.0637
17784TIP3    H274844   6.277   1.622   5.917  0.8541  1.2360 -1.6660
17785TIP3   OH274845   3.174   0.564  13.520  0.3276  0.1306  0.4528
17785TIP3    H174846   3.223   0.633  13.476  2.9712 -2.1323 -0.2641
17785TIP3    H274847   3.106   0.540  13.457 -0.2749  1.6386  0.4886
17786TIP3   OH274848   4.474   4.747   4.046  0.4177  0.4042  0.4486
17786TIP3    H174849   4.409   4.808   4.010  0.5858  0.9188  0.9924
17786TIP3    H274850   4.484   4.775   4.137  0.3431 -0.5741  0.7674
17787TIP3   OH274851   5.387   3.388  12.774 -0.7248 -0.3756 -0.2087
17787TIP3    H174852   5.478   3.404  12.800 -0.7426 -1.9050  0.8536
17787TIP3    H274853   5.349   3.476  12.763  0.6053  0.2708  0.2777
17788TIP3   OH274854   4.487   1.858   3.831  0.3890 -0.0778 -0.1756
17788TIP3    H174855   4.466   1.933   3.887 -0.8221 -2.2295  2.3863
17788TIP3    H274856   4.581   1.844   3.844  0.3724  0.2327  0.3011
17789TIP3   OH274857   2.063   4.204  14.356  0.7993 -0.3233  0.2401
17789TIP3    H174858   2.026   4.290  14.336 -0.5547 -1.0712 -0.5662
17789TIP3    H274859   2.100   4.175  14.272  1.4203 -0.4542  0.5568
17790TIP3   OH274860   6.281   6.697   4.359  0.5251  0.2700  0.5213
17790TIP3    H174861   6.245   6.768   4.411  0.0347  0.6485 -0.3304
17790TIP3    H274862   6.354   6.663   4.411 -0.1966  0.3913  1.6196
17791TIP3   OH274863   0.189   3.329   3.875  0.5029 -0.1880 -0.4526
17791TIP3    H174864   0.125   3.323   3.946  0.8765 -0.9749 -0.1747
17791TIP3    H274865   0.200   3.423   3.861 -0.4762 -0.0377 -0.2907
17792TIP3   OH274866   3.662   4.037   1.060  0.0554  0.6886 -0.2518
17792TIP3    H174867   3.581   3.997   1.093 -0.3126  0.8654 -0.9191
17792TIP3    H274868   3.633   4.088   0.984  0.7015  1.2557 -0.1213
17793TIP3   OH274869   0.549   0.187   1.089 -0.4468  0.0722  0.2964
17793TIP3    H174870   0.514   0.108   1.130 -0.8651 -0.5845 -1.3047
17793TIP3    H274871   0.498   0.259   1.126  0.3096 -0.3353  2.1824
17794TIP3   OH274872   0.754   0.829  13.934  0.5243  0.2100 -0.3141
17794TIP3    H174873   0.713   0.761  13.988  0.2596  0.1227 -0.6232
17794TIP3    H274874   0.834   0.788  13.901 -0.8575 -0.8088 -2.4924
17795TIP3   OH274875   3.728   3.093  16.120  0.0099  0.5970  0.7990
17795TIP3    H174876   3.742   3.069  16.028 -0.6645 -0.7605  1.0342
17795TIP3    H274877   3.738   3.011  16.168  0.2483  1.2756  1.9337
17796TIP3   OH274878   3.207   2.048   6.482  0.0241 -0.1842  0.4449
17796TIP3    H174879   3.262   2.120   6.451  0.3123  0.3212  2.0808
17796TIP3    H274880   3.204   1.987   6.409  0.9316  0.8434 -0.4629
17797TIP3   OH274881   1.350   0.211   4.885 -0.2450  0.2388 -0.1134
17797TIP3    H174882   1.443   0.227   4.901 -0.1333  0.2030 -0.6997
17797TIP3    H274883   1.322   0.284   4.830 -0.5609  0.2425  0.0483
17798TIP3   OH274884   4.124   5.432  12.455 -0.8045  0.5783  0.3496
17798TIP3    H174885   4.125   5.368  12.526 -0.5077 -0.4585 -0.5746
17798TIP3    H274886   4.107   5.516  12.499  0.4129  0.1131  1.7691
17799TIP3   OH274887   1.298   4.413  17.066  0.3696 -0.3856 -0.4921
17799TIP3    H174888   1.282   4.497  17.023 -1.3198 -0.3310  0.2215
17799TIP3    H274889   1.219   4.397  17.118  1.1885 -1.8345  0.3245
17800TIP3   OH274890   2.825   4.563  15.497 -0.2221 -0.2150 -0.0679
17800TIP3    H174891   2.820   4.469  15.481  0.4769 -0.3860  0.6620
17800TIP3    H274892   2.828   4.570  15.593  0.6194  0.4911 -0.1384
17801TIP3   OH274893   1.729   3.804  12.856  0.6685  0.1836 -0.1190
17801TIP3    H174894   1.687   3.863  12.919 -1.1512  1.9420 -2.8857
17801TIP3    H274895   1.823   3.820  12.868  0.2974  1.4059  1.3135
17802TIP3   OH274896   6.509   0.290   5.052  0.1275 -0.5925 -0.2920
17802TIP3    H174897   6.490   0.373   5.008 -0.8495 -0.6975 -0.0729
17802TIP3    H274898   6.603   0.276   5.036  0.3556  0.6704 -0.1206
17803TIP3   OH274899   4.624   5.531  12.558  0.7739 -0.1982  0.0496
17803TIP3    H174900   4.614   5.443  12.524 -0.2218  0.5673 -1.6980
17803TIP3    H274901   4.689   5.572  12.501  2.7911 -0.4119  2.1162
17804TIP3   OH274902   0.374   4.572   0.809 -0.2315 -0.2425  0.3574
17804TIP3    H174903   0.439   4.634   0.775 -0.4229  0.1834  0.7546
17804TIP3    H274904   0.298   4.584   0.752 -0.1595 -0.3368  0.2411
17805TIP3   OH274905   3.130   1.691  12.135  0.5925 -0.2638  0.4352
17805TIP3    H174906   3.202   1.722  12.190 -0.0137  0.9707  0.5315
17805TIP3    H274907   3.082   1.770  12.110 -1.2282 -1.1452  1.0650
17806TIP3   OH274908   0.210   6.688   5.987 -0.7444 -0.1142  0.3490
17806TIP3    H174909   0.245   6.650   5.906 -0.4723  2.1549 -0.6248
17806TIP3    H274910   0.178   6.612   6.036  1.9184 -1.8742 -0.4723
17807TIP3   OH274911   4.831   4.436   3.884  0.1081 -0.3653  0.0963
17807TIP3    H174912   4.837   4.505   3.951 -1.9286 -1.7959  1.8349
17807TIP3    H274913   4.856   4.480   3.803 -1.9185  2.6904  1.0095
17808TIP3   OH274914   0.382   6.818  12.986 -1.3334  0.0429 -0.0375
17808TIP3    H174915   0.380   6.867  13.069  0.5617 -0.8142  0.5604
17808TIP3    H274916   0.447   6.865  12.934  0.8053 -2.0075  0.6945
17809TIP3   OH274917   3.283   2.371  16.200 -0.8151  0.0298 -0.5524
17809TIP3    H174918   3.298   2.299  16.262 -0.6432 -0.3251 -0.9980
17809TIP3    H274919   3.365   2.420  16.201 -0.1936 -0.9524 -1.7521
17810TIP3   OH274920   1.612   0.087   0.983 -0.1079 -0.0587  0.6582
17810TIP3    H174921   1.636   0.151   1.050 -0.1384 -1.5760  2.1493
17810TIP3    H274922   1.694   0.044   0.961 -0.0197  0.7362 -0.6389
17811TIP3   OH274923   1.624   4.638  13.000 -0.6614 -0.8605  0.1391
17811TIP3    H174924   1.625   4.714  12.941 -1.0399 -0.3422  0.7925
17811TIP3    H274925   1.698   4.585  12.972  0.3245  0.3411  0.4150
17812TIP3   OH274926   6.450   4.477  11.820 -0.0745 -0.4506  0.3375
17812TIP3    H174927   6.456   4.540  11.892 -1.4348  0.9635 -0.7672
17812TIP3    H274928   6.359   4.481  11.792  0.1108 -2.0614 -0.5174
17813TIP3   OH274929   6.658   5.433   4.975  0.0165  0.0064  0.8197
17813TIP3    H174930   6.673   5.338   4.974 -0.4316 -0.1099  2.7859
17813TIP3    H274931   6.564   5.442   4.986 -0.0889  0.7094 -0.5351
17814TIP3   OH274932   6.448   0.208   3.534 -0.7528  0.0688 -0.0845
17814TIP3    H174933   6.377   0.145   3.542 -0.6192  0.1118  1.6204
17814TIP3    H274934   6.406   0.286   3.497 -1.0513 -0.7561 -1.5491
17815TIP3   OH274935   0.152   0.623   3.898  0.1566 -0.1505 -0.7379
17815TIP3    H174936   0.076   0.673   3.929 -0.1384  0.3705 -2.2312
17815TIP3    H274937   0.138   0.616   3.804  0.9339 -1.8302 -0.7308
17816TIP3   OH274938   5.541   5.979  12.495 -0.3941 -0.0759  0.5235
17816TIP3    H174939   5.502   5.911  12.550  1.4191 -2.8007 -1.4388
17816TIP3    H274940   5.467   6.022  12.453 -1.5495 -1.1856  1.4021
17817TIP3   OH274941   6.171   3.967  13.600  0.0581  0.5118  0.1500
17817TIP3    H174942   6.220   3.999  13.676  1.4199 -2.4660  0.6002
17817TIP3    H274943   6.109   3.903  13.636  0.3839 -0.5749 -1.1454
17818TIP3   OH274944   2.870   1.895   0.768  0.4467 -0.0897  0.0689
17818TIP3    H174945   2.830   1.809   0.761  0.0966  0.1844 -1.4847
17818TIP3    H274946   2.799   1.953   0.795 -0.2965  0.4308 -2.8712
17819TIP3   OH274947   4.259   4.674   4.889  0.0295 -0.4573  0.3681
17819TIP3    H174948   4.328   4.724   4.846 -1.4984  1.3773 -0.0388
17819TIP3    H274949   4.305   4.605   4.937  2.0750  0.3259 -0.4121
17820TIP3   OH274950   0.836   5.558   6.133 -0.1783 -0.2494  0.0011
17820TIP3    H174951   0.787   5.484   6.099  1.1658 -0.9393 -0.4783
17820TIP3    H274952   0.895   5.521   6.199  0.9376  0.2743 -0.6724
17821TIP3   OH274953   1.202   5.766   3.906  0.3458 -0.2533 -0.3147
17821TIP3    H174954   1.139   5.832   3.876  1.7013  1.2107 -0.0249
17821TIP3    H274955   1.151   5.686   3.913 -0.9224  0.3352 -2.4909
17822TIP3   OH274956   2.427   1.348  14.279  0.4807 -0.0931 -0.0249
17822TIP3    H174957   2.332   1.341  14.293  0.2637 -0.3760 -1.5577
17822TIP3    H274958   2.465   1.311  14.358 -0.6945 -1.9848 -0.3022
17823TIP3   OH274959   5.457   3.090  14.398  0.2180 -0.0464  0.3391
17823TIP3    H174960   5.479   3.002  14.429  0.6408  0.1557  0.6211
17823TIP3    H274961   5.385   3.076  14.337 -1.1276 -0.3823  1.9640
17824TIP3   OH274962   3.121   5.719   1.258 -0.3162  0.3990 -0.7084
17824TIP3    H174963   3.122   5.720   1.163  2.2043  0.7439 -0.7186
17824TIP3    H274964   3.100   5.810   1.282  0.2557  0.5868 -0.9266
17825TIP3   OH274965   3.492   4.136   0.276  1.0321 -0.0736 -0.1644
17825TIP3    H174966   3.586   4.117   0.268  1.3875  1.3156  0.5780
17825TIP3    H274967   3.478   4.144   0.370  0.1635 -0.2396 -0.2796
17826TIP3   OH274968   5.612   1.147  15.826  0.3560 -0.0314 -0.3051
17826TIP3    H174969   5.593   1.185  15.741 -0.1539  1.9237  0.6496
17826TIP3    H274970   5.527   1.135  15.868  0.6345 -0.3712  0.1775
17827TIP3   OH274971   3.924   4.958   0.094 -0.1436 -0.0053  0.2766
17827TIP3    H174972   3.877   4.897   0.036  1.9412 -0.4798 -0.9933
17827TIP3    H274973   3.919   4.917   0.180 -0.9473 -0.6897 -0.0829
17828TIP3   OH274974   6.443   4.353  13.122  0.0520  0.3649 -0.5702
17828TIP3    H174975   6.408   4.277  13.167 -0.0162  1.6296  1.5699
17828TIP3    H274976   6.535   4.331  13.105 -0.6356 -1.2546 -2.4402
17829TIP3   OH274977   3.117   3.736   1.909 -0.2936  0.0420 -0.5627
17829TIP3    H174978   3.205   3.701   1.894  0.2996  1.8561 -1.4197
17829TIP3    H274979   3.072   3.726   1.825 -0.8170 -0.6014 -0.2107
17830TIP3   OH274980   6.120   5.555   4.592 -0.4240  0.3335 -0.0017
17830TIP3    H174981   6.143   5.473   4.549 -2.3937  0.7086 -1.9122
17830TIP3    H274982   6.078   5.528   4.673 -2.5471 -0.6709 -1.3672
17831TIP3   OH274983   3.962   6.199   1.071  0.2390 -0.1125 -0.4133
17831TIP3    H174984   3.882   6.153   1.049  0.4759 -0.3469 -0.7933
17831TIP3    H274985   4.014   6.197   0.991  1.3067 -1.3870  0.2894
17832TIP3   OH274986   3.750   4.553   3.123 -0.3698 -0.5010 -0.1274
17832TIP3    H174987   3.692   4.586   3.191  2.2891  2.0241  1.0111
17832TIP3    H274988   3.815   4.502   3.170  1.3746  1.0919 -0.7398
17833TIP3   OH274989   0.491   1.512   2.790 -0.2536 -0.3278 -0.0463
17833TIP3    H174990   0.563   1.489   2.849 -0.4332 -1.4368 -0.2377
17833TIP3    H274991   0.505   1.604   2.769  0.3661 -0.1817  0.9517
17834TIP3   OH274992   1.203   2.955  11.223  0.5836 -0.2396  0.8993
17834TIP3    H174993   1.214   2.928  11.314 -0.1091  1.7087  1.5917
17834TIP3    H274994   1.236   3.045  11.220 -0.6512  0.1988 -0.4688
17835TIP3   OH274995   5.147   3.693   6.796 -0.2937  0.0643 -0.5902
17835TIP3    H174996   5.209   3.620   6.795 -0.0890  0.2475 -3.0540
17835TIP3    H274997   5.202   3.772   6.800 -0.4761  0.1389  0.6016
17836TIP3   OH274998   5.844   1.492   2.249  0.2542  0.3627 -0.6872
17836TIP3    H174999   5.921   1.546   2.267  0.1168  0.0736  0.8239
17836TIP3    H275000   5.773   1.555   2.238 -0.1206  0.4784  2.1316
17837TIP3   OH275001   0.023   0.574  11.445 -0.2542 -0.1289  0.2435
17837TIP3    H175002   0.118   0.576  11.452 -0.1826  1.2098 -0.9185
17837TIP3    H275003  -0.008   0.559  11.534  1.0487 -0.7326  0.5937
17838TIP3   OH275004   4.164   5.960  15.990  0.0416  0.1005 -0.0296
17838TIP3    H175005   4.241   5.911  16.017  0.2759  0.3471 -0.2571
17838TIP3    H275006   4.150   6.025  16.059 -1.0400 -1.1339  0.9435
17839TIP3   OH275007   1.780   3.074  11.563  0.1146  0.3635  0.0884
17839TIP3    H175008   1.863   3.122  11.561 -1.3894  3.1145  0.6521
17839TIP3    H275009   1.752   3.080  11.654 -1.5497  0.9538 -0.4610
17840TIP3   OH275010   6.140   1.390  16.204 -0.7388  0.0308  0.3588
17840TIP3    H175011   6.207   1.445  16.243  0.0454 -0.1709 -0.6750
17840TIP3    H275012   6.183   1.305  16.190 -0.3962  0.6363 -2.6273
17841TIP3   OH275013   3.964   5.892  12.176 -0.0632  0.0518 -0.2336
17841TIP3    H175014   3.965   5.902  12.271  0.5169 -0.7071 -0.1489
17841TIP3    H275015   3.876   5.860  12.156  0.7154 -2.7009  0.3974
17842TIP3   OH275016   1.176   2.758   1.720 -0.1745 -0.0491  0.2648
17842TIP3    H175017   1.112   2.698   1.758  0.6500 -1.6052 -0.7605
17842TIP3    H275018   1.153   2.761   1.627  0.8722 -0.1434 -0.0043
17843TIP3   OH275019   1.519   1.834  12.114 -0.0894  0.5733 -0.2007
17843TIP3    H175020   1.535   1.743  12.088 -1.3168  0.1043  0.6173
17843TIP3    H275021   1.523   1.884  12.033 -1.1361 -0.4693 -0.9065
17844TIP3   OH275022   0.669   6.110   4.850 -0.2268 -0.5843 -0.6371
17844TIP3    H175023   0.701   6.049   4.784  0.1081 -0.4597 -0.5908
17844TIP3    H275024   0.661   6.194   4.804 -2.1529 -1.0021 -1.0877
17845TIP3   OH275025   4.628   0.995  15.488  0.3817  0.0857 -0.1996
17845TIP3    H175026   4.707   1.036  15.522  0.0908 -0.7908  1.6147
17845TIP3    H275027   4.557   1.031  15.542  0.0098 -1.9779  0.7315
17846TIP3   OH275028   2.734   3.643   0.633  0.3037 -0.3113 -0.8408
17846TIP3    H175029   2.725   3.598   0.549 -0.1658 -2.3250  0.2455
17846TIP3    H275030   2.655   3.697   0.640  0.7948  0.5982 -2.0912
17847TIP3   OH275031   4.040   2.589   0.021 -0.0389 -0.0743 -0.4473
17847TIP3    H175032   4.005   2.659  -0.034  1.5662  0.7335 -0.4862
17847TIP3    H275033   4.130   2.617   0.041 -0.2390 -0.8503  1.7252
17848TIP3   OH275034   2.734   2.261   1.972 -0.8107 -0.1441 -0.2973
17848TIP3    H175035   2.667   2.322   1.942  1.8306  3.0522 -0.0249
17848TIP3    H275036   2.795   2.255   1.898  0.2024 -0.5746  0.5574
17849TIP3   OH275037   1.552   4.331  12.106 -0.1262  0.2021 -0.3317
17849TIP3    H175038   1.538   4.270  12.034  0.1174 -0.0065 -0.2008
17849TIP3    H275039   1.464   4.366  12.125 -0.2673 -0.1287 -0.3843
17850TIP3   OH275040   6.643   1.225   1.342 -0.3277 -0.7283 -0.2478
17850TIP3    H175041   6.615   1.141   1.379  0.8707 -1.4156 -0.8773
17850TIP3    H275042   6.620   1.219   1.249 -0.3566 -0.3056 -0.2696
17851TIP3   OH275043   0.429   4.367  12.992  0.5918 -0.2847 -0.0056
17851TIP3    H175044   0.363   4.301  13.013 -0.0200  0.4696  0.4695
17851TIP3    H275045   0.383   4.450  12.999  1.5688  0.2437  0.2531
17852TIP3   OH275046   3.089   4.290   3.858 -0.6101 -0.4944  0.4307
17852TIP3    H175047   3.040   4.351   3.913  0.6797  1.4508 -0.5432
17852TIP3    H275048   3.077   4.205   3.900 -3.8947  0.1156  0.8095
17853TIP3   OH275049   6.562   6.773   0.451  0.0634  0.1980 -0.4103
17853TIP3    H175050   6.550   6.808   0.539  1.2471  2.5744 -1.1657
17853TIP3    H275051   6.476   6.781   0.410  0.5280  3.2700 -0.9053
17854TIP3   OH275052   2.326   3.497   2.595  0.1481 -0.0410  0.0264
17854TIP3    H175053   2.252   3.484   2.654 -2.0852  2.4088 -2.1360
17854TIP3    H275054   2.332   3.591   2.584  1.1088 -0.3967 -2.8948
17855TIP3   OH275055   3.870   0.270  12.410 -0.0744  0.2061  0.2145
17855TIP3    H175056   3.948   0.218  12.432 -0.5151 -0.7769 -0.5117
17855TIP3    H275057   3.818   0.213  12.354 -1.2698  0.8984  0.5910
17856TIP3   OH275058   2.394   5.363  10.954 -1.0188 -0.5840  0.0682
17856TIP3    H175059   2.353   5.417  10.887 -0.6648 -1.0611 -0.5433
17856TIP3    H275060   2.429   5.288  10.906 -1.2035 -1.1846  0.8567
17857TIP3   OH275061   0.173   1.608  15.866 -0.6816  0.2150 -0.5828
17857TIP3    H175062   0.142   1.698  15.857 -0.9219  0.3856  1.5941
17857TIP3    H275063   0.114   1.569  15.930 -0.5943 -1.5134 -1.5303
17858TIP3   OH275064   6.378   0.121   3.045 -0.0172 -0.1638  0.0295
17858TIP3    H175065   6.423   0.063   3.106  3.2156  1.0608 -1.0944
17858TIP3    H275066   6.429   0.202   3.047 -1.9115  1.1289 -1.6950
17859TIP3   OH275067   1.852   5.511  15.383  0.8311 -1.1882  0.1186
17859TIP3    H175068   1.882   5.507  15.474 -0.1588 -0.5471  0.4785
17859TIP3    H275069   1.877   5.426  15.346  0.9519 -1.5701  1.0716
17860TIP3   OH275070   4.878   3.068  11.034  0.3848  0.2167  0.0966
17860TIP3    H175071   4.833   3.020  10.965  1.4045  0.2183 -0.5694
17860TIP3    H275072   4.812   3.077  11.103 -1.2814  1.9610 -1.6435
17861TIP3   OH275073   5.775   1.239   1.409  0.7370 -0.0013 -0.5980
17861TIP3    H175074   5.757   1.309   1.473 -0.4683  0.0450 -0.9866
17861TIP3    H275075   5.858   1.202   1.438 -0.5091 -0.9508  1.8851
17862TIP3   OH275076   5.757   6.795  13.877 -0.5964  1.0319 -0.2215
17862TIP3    H175077   5.730   6.751  13.796 -2.5394 -0.3292  1.1113
17862TIP3    H275078   5.778   6.723  13.937  0.3564  2.0156  0.6424
17863TIP3   OH275079   0.151   3.179   0.829  0.4327 -0.3466  0.4525
17863TIP3    H175080   0.169   3.250   0.891  1.2436 -1.3760  1.4134
17863TIP3    H275081   0.110   3.111   0.882  1.8941 -1.5719  0.0337
17864TIP3   OH275082   4.391   3.674   3.061 -0.4071  0.0754 -0.4544
17864TIP3    H175083   4.409   3.618   3.136 -0.9053 -1.7107 -1.6599
17864TIP3    H275084   4.356   3.755   3.099  2.0873  0.3247  1.4045
17865TIP3   OH275085   5.808   3.024   0.725 -0.1233 -0.3793  0.0669
17865TIP3    H175086   5.820   2.973   0.645 -0.7981 -1.9267  0.9278
17865TIP3    H275087   5.868   3.098   0.716  1.7231 -1.9342 -0.6966
17866TIP3   OH275088   1.801   2.191   0.369  0.1262 -0.2522  0.1493
17866TIP3    H175089   1.877   2.168   0.422  1.1157 -0.5779 -1.4084
17866TIP3    H275090   1.760   2.107   0.347  1.1587 -0.2886 -1.7115
17867TIP3   OH275091   5.967   2.835   3.574 -0.0622  0.2947  0.2055
17867TIP3    H175092   5.987   2.848   3.482  2.0478  1.3906  0.8023
17867TIP3    H275093   6.014   2.755   3.598  0.9990  1.0800  0.7947
17868TIP3   OH275094   6.594   2.271   3.511  0.6111  0.4673 -0.5661
17868TIP3    H175095   6.526   2.212   3.479  2.1746 -1.3507 -0.5748
17868TIP3    H275096   6.574   2.282   3.604  1.3328 -1.4984 -0.1659
17869TIP3   OH275097   1.777   5.874   0.304  0.4111  0.0237  0.1825
17869TIP3    H175098   1.760   5.946   0.243 -1.2337  0.3364  0.9853
17869TIP3    H275099   1.856   5.901   0.352 -0.1123  1.2366  0.3805
17870TIP3   OH275100   0.416   1.516  13.856 -0.0275  0.0944  0.2651
17870TIP3    H175101   0.374   1.541  13.774  0.5995 -0.6434 -0.2939
17870TIP3    H275102   0.467   1.437  13.834  0.3154  0.0129  1.3070
17871TIP3   OH275103   5.951   3.727  15.328 -0.7344 -0.4334  0.3177
17871TIP3    H175104   5.901   3.800  15.365 -1.9773 -0.8296 -0.5664
17871TIP3    H275105   6.043   3.753  15.340 -1.1139  0.0819  2.3680
17872TIP3   OH275106   4.306   6.405   5.140  0.2667  0.0263 -0.1773
17872TIP3    H175107   4.358   6.349   5.198  0.0068 -1.9873 -1.8325
17872TIP3    H275108   4.236   6.349   5.108 -1.7374  2.1328  0.3783
17873TIP3   OH275109   4.431   4.572  14.825  0.1077  0.3005  0.2660
17873TIP3    H175110   4.455   4.526  14.906 -0.4549  0.9667  0.8267
17873TIP3    H275111   4.335   4.572  14.825  0.0957 -0.8548 -1.0848
17874TIP3   OH275112   0.702   4.141  11.949  0.2247  0.1677 -0.6371
17874TIP3    H175113   0.657   4.195  12.013 -2.0670 -2.3315 -0.0328
17874TIP3    H275114   0.658   4.160  11.866 -0.3817 -0.5132 -0.4777
17875TIP3   OH275115   2.362   4.969  13.947 -0.0758 -0.4359  0.3529
17875TIP3    H175116   2.336   4.877  13.948  1.3795 -0.8713 -0.4069
17875TIP3    H275117   2.415   4.979  13.868  0.2798  0.9134  0.7350
17876TIP3   OH275118   0.750   3.204   1.749  0.3893 -0.1856  0.1226
17876TIP3    H175119   0.728   3.274   1.811 -0.5457  0.2790 -0.7175
17876TIP3    H275120   0.710   3.232   1.666  1.0137 -1.1456 -0.5120
17877TIP3   OH275121   0.684   5.557   1.625 -0.2372  0.1900  0.6203
17877TIP3    H175122   0.748   5.486   1.622  1.1583  1.4320  0.3464
17877TIP3    H275123   0.614   5.528   1.567  0.9026 -0.4222 -0.4858
17878TIP3   OH275124   6.613   3.894  15.112 -0.1051  0.3060 -0.0466
17878TIP3    H175125   6.630   3.866  15.022 -1.2176 -2.2460  0.4888
17878TIP3    H275126   6.561   3.974  15.104 -0.7396 -0.2621 -1.6598
17879TIP3   OH275127   2.122   6.426  13.732  0.1787 -0.2157  0.6425
17879TIP3    H175128   2.080   6.353  13.776  1.4447 -3.3924 -3.1808
17879TIP3    H275129   2.216   6.412  13.743  0.4319  1.7071  1.2007
17880TIP3   OH275130   5.588   6.180  12.881 -0.2206  0.7441 -0.0085
17880TIP3    H175131   5.665   6.158  12.828  0.4395  0.4251  1.0686
17880TIP3    H275132   5.529   6.105  12.869 -0.2890  0.9010 -0.6798
17881TIP3   OH275133   6.472   6.138   5.033  0.1464  0.2452 -0.0196
17881TIP3    H175134   6.416   6.215   5.036  1.1569  0.9577  0.9062
17881TIP3    H275135   6.411   6.064   5.021 -0.7025  1.3061 -2.5587
17882TIP3   OH275136   2.805   5.079  16.224  0.0006 -0.8072 -0.3323
17882TIP3    H175137   2.842   5.071  16.311 -0.1550  0.1756 -0.1667
17882TIP3    H275138   2.724   5.129  16.237 -1.0176 -2.2988 -0.7808
17883TIP3   OH275139   2.326   4.890  15.131 -0.2751  0.7369  0.6531
17883TIP3    H175140   2.371   4.836  15.065 -0.8088  2.0974 -0.8480
17883TIP3    H275141   2.245   4.843  15.150 -0.6417  0.9011 -0.4993
17884TIP3   OH275142   0.515   6.199   0.038  0.6091  0.2868  0.2270
17884TIP3    H175143   0.565   6.203   0.120 -0.6995  1.0148  1.0191
17884TIP3    H275144   0.430   6.163   0.065  0.9367 -1.6794 -1.2256
17885TIP3   OH275145   5.944   2.136   3.971 -0.6403 -0.2295 -0.1850
17885TIP3    H175146   5.854   2.165   3.955 -1.1279 -0.8830  1.3533
17885TIP3    H275147   5.939   2.084   4.050  0.8970 -1.3057 -0.7778
17886TIP3   OH275148   1.741   0.276   4.005 -0.6212  1.2494 -0.0266
17886TIP3    H175149   1.775   0.290   4.094 -0.3139  3.0536 -0.3991
17886TIP3    H275150   1.806   0.317   3.948 -1.2961  0.9542 -1.0182
17887TIP3   OH275151   2.052   0.315   4.651  0.2124  0.6075  0.9060
17887TIP3    H175152   2.023   0.386   4.594 -1.1745  0.6666  1.6430
17887TIP3    H275153   2.015   0.235   4.612 -2.3760  0.8527  2.7025
17888TIP3   OH275154   1.456   0.624  16.081  0.4939  0.1570 -0.2206
17888TIP3    H175155   1.411   0.702  16.050  1.6781  0.3532 -1.5249
17888TIP3    H275156   1.466   0.637  16.175 -0.0071  1.2121 -0.3084
17889TIP3   OH275157   4.772   2.319   0.423  0.7271  0.2582 -0.0708
17889TIP3    H175158   4.824   2.287   0.349 -0.2720 -0.9241 -0.2762
17889TIP3    H275159   4.818   2.285   0.500  0.4772 -0.4925 -0.2410
17890TIP3   OH275160   4.302   0.578   2.982 -0.2225 -0.1409  0.3006
17890TIP3    H175161   4.219   0.627   2.985  1.7849  3.5202 -1.4010
17890TIP3    H275162   4.314   0.558   2.889 -0.6874 -3.5254  0.8857
17891TIP3   OH275163   5.551   3.674   1.064  0.0258 -0.3594  0.1929
17891TIP3    H175164   5.505   3.743   1.016  0.3239 -0.7620 -0.6750
17891TIP3    H275165   5.564   3.710   1.152  2.4353  1.6679 -0.9685
17892TIP3   OH275166   1.848   6.416  16.094  0.4225 -0.3215  0.0147
17892TIP3    H175167   1.835   6.503  16.057  0.9019  0.0015  0.6030
17892TIP3    H275168   1.800   6.418  16.177  0.5172 -0.5856  0.0769
17893TIP3   OH275169   0.438   3.874   2.602 -0.2808 -0.2818  0.0811
17893TIP3    H175170   0.422   3.958   2.559  0.4920  0.5152  1.3137
17893TIP3    H275171   0.358   3.823   2.587 -1.6486  1.4955  1.2653
17894TIP3   OH275172   4.310   4.211  15.162  0.3329 -0.5117  0.2645
17894TIP3    H175173   4.302   4.129  15.211 -1.2684 -0.7213 -0.3087
17894TIP3    H275174   4.395   4.246  15.188  0.8828 -2.1670  0.7976
17895TIP3   OH275175   0.443   0.163  12.758 -0.5238  0.0402 -0.0161
17895TIP3    H175176   0.349   0.150  12.771 -0.8067  0.0413 -1.9182
17895TIP3    H275177   0.459   0.137  12.667  1.3780 -0.2474  0.3686
17896TIP3   OH275178   3.044   0.260   4.391  0.1406  0.6174 -0.1235
17896TIP3    H175179   3.034   0.215   4.307  0.5535  0.2548  0.0211
17896TIP3    H275180   3.029   0.352   4.370 -0.2211  0.4729 -0.5099
17897TIP3   OH275181   3.540   2.138  11.707 -0.1258 -0.3430 -0.3886
17897TIP3    H175182   3.561   2.228  11.682  0.4212 -0.3322  0.1067
17897TIP3    H275183   3.444   2.136  11.709 -0.1645 -0.1653 -1.8085
17898TIP3   OH275184   1.040   1.396  12.024 -0.1214  0.9205 -0.2009
17898TIP3    H175185   1.115   1.394  11.965  0.1223 -0.7904  0.1337
17898TIP3    H275186   0.964   1.401  11.965  0.2004  1.6865 -0.5650
17899TIP3   OH275187   1.755   5.080   5.998  0.0371  0.2142 -0.5044
17899TIP3    H175188   1.708   5.113   6.075  1.1852 -0.4476  0.5059
17899TIP3    H275189   1.839   5.127   6.000  0.9765 -1.4611 -0.0633
17900TIP3   OH275190   0.501   0.821  14.319  0.0139 -0.0042 -0.5890
17900TIP3    H175191   0.436   0.883  14.284  1.5371  1.8205 -0.2441
17900TIP3    H275192   0.460   0.785  14.397 -0.7014  0.9456 -0.5180
17901TIP3   OH275193   5.853   5.424  12.018  0.0317  0.0230  0.9494
17901TIP3    H175194   5.860   5.468  12.103 -1.5230  0.0340  1.0803
17901TIP3    H275195   5.760   5.401  12.010  0.3455 -0.8754 -0.2988
17902TIP3   OH275196   4.078   0.467  14.271  0.0720  0.6882 -0.3353
17902TIP3    H175197   4.057   0.478  14.364  2.0712 -0.2857  0.2674
17902TIP3    H275198   4.086   0.372  14.259  0.4013  0.8385 -1.3592
17903TIP3   OH275199   3.684   4.512  12.956 -0.0987 -0.0823  0.6531
17903TIP3    H175200   3.712   4.428  12.992 -1.8893 -0.9306  0.1313
17903TIP3    H275201   3.755   4.573  12.977  0.5030 -1.3702  2.3988
17904TIP3   OH275202   0.812   2.844   5.259 -0.2817 -0.4933 -0.0151
17904TIP3    H175203   0.838   2.936   5.259 -4.2121  0.7090 -2.0555
17904TIP3    H275204   0.842   2.810   5.175  2.9599 -1.7091  1.5541
17905TIP3   OH275205   2.923   6.243   2.115  0.3846 -0.0811 -0.2500
17905TIP3    H175206   2.934   6.322   2.169 -0.7111  0.2714 -0.5346
17905TIP3    H275207   3.010   6.202   2.115  0.6167  0.3854  1.0510
17906TIP3   OH275208   3.200   2.310  10.583  0.7030  0.2013  0.0502
17906TIP3    H175209   3.222   2.291  10.674  3.5146 -0.1037 -0.6240
17906TIP3    H275210   3.190   2.405  10.580 -2.2721 -0.0274  1.2110
17907TIP3   OH275211   5.019   6.144  15.380  0.3540 -0.2185 -0.2515
17907TIP3    H175212   4.984   6.187  15.302  0.0713 -0.9941 -0.5525
17907TIP3    H275213   4.944   6.102  15.421  0.4166  0.5813  0.7015
17908TIP3   OH275214   5.035   4.706  13.950  0.4752  0.2648 -0.4684
17908TIP3    H175215   4.950   4.679  13.986  0.3943  2.1092  0.7683
17908TIP3    H275216   5.053   4.642  13.881 -1.5476 -0.6129 -0.2121
17909TIP3   OH275217   3.808   1.576   2.194 -0.7411 -0.1265 -0.0076
17909TIP3    H175218   3.797   1.515   2.121  0.3450 -0.8068  0.3772
17909TIP3    H275219   3.778   1.660   2.160 -0.9086 -0.5857 -1.0125
17910TIP3   OH275220   1.744   2.508  16.124  0.1265 -0.9537  0.1166
17910TIP3    H175221   1.681   2.458  16.071  0.3649 -1.5547  0.4049
17910TIP3    H275222   1.689   2.564  16.179 -0.1814 -2.0324  0.9139
17911TIP3   OH275223   5.462   3.207   0.760  0.0592  0.5630  0.0249
17911TIP3    H175224   5.457   3.157   0.841 -0.9509 -0.2650 -0.5402
17911TIP3    H275225   5.420   3.291   0.781 -0.1355  0.3782  0.3732
17912TIP3   OH275226   3.465   3.325  15.316  0.2945  0.4972  0.5913
17912TIP3    H175227   3.538   3.291  15.264  0.9997  1.5267  0.8943
17912TIP3    H275228   3.403   3.253  15.320  1.3921 -0.4620  0.5085
17913TIP3   OH275229   2.908   6.540  10.944 -0.1559  0.1505 -0.1451
17913TIP3    H175230   2.908   6.444  10.940  2.1566  0.1020  0.2898
17913TIP3    H275231   2.971   6.567  10.877  0.3346  1.2874  0.7473
17914TIP3   OH275232   2.732   5.886  16.589  0.1017 -0.2570  0.1905
17914TIP3    H175233   2.787   5.948  16.540  0.3425 -0.6048  0.0235
17914TIP3    H275234   2.787   5.809  16.600 -0.6032 -0.8754 -0.5809
17915TIP3   OH275235   2.432   3.925  16.561  0.2900 -0.2651 -0.8471
17915TIP3    H175236   2.417   3.931  16.655  1.7724  1.7947 -0.6829
17915TIP3    H275237   2.480   3.843  16.549  1.5798  0.2879  0.4245
17916TIP3   OH275238   2.022   4.649   4.248 -0.6137  0.0099 -0.4295
17916TIP3    H175239   1.960   4.712   4.286  0.3995  0.9397 -0.2826
17916TIP3    H275240   1.980   4.564   4.259 -0.9734  0.4047  1.4977
17917TIP3   OH275241   2.919   5.342   0.597 -0.5648 -0.4383 -0.3351
17917TIP3    H175242   2.966   5.381   0.671  1.0210 -0.6737 -1.1888
17917TIP3    H275243   2.848   5.292   0.637 -1.0979  1.2668  0.8987
17918TIP3   OH275244   3.038   2.304  14.286  0.3701  0.0271 -0.1811
17918TIP3    H175245   2.959   2.289  14.234 -0.8092  1.2231  1.2269
17918TIP3    H275246   3.006   2.344  14.367  2.2248 -1.3870  1.2788
17919TIP3   OH275247   4.135   3.833   1.227 -0.1513  0.3047 -0.1128
17919TIP3    H175248   4.116   3.808   1.318  1.0883 -0.2986 -0.0197
17919TIP3    H275249   4.080   3.775   1.175 -1.0074  0.7779  0.2500
17920TIP3   OH275250   5.494   5.260   0.267  0.2654  0.5500 -0.3175
17920TIP3    H175251   5.499   5.271   0.172 -0.9137 -1.2787 -0.6111
17920TIP3    H275252   5.580   5.225   0.291  0.2711  0.1887 -0.8396
17921TIP3   OH275253   6.631   6.390  11.200 -0.6732 -0.5434  1.0155
17921TIP3    H175254   6.542   6.357  11.188 -0.6082  0.4272 -2.7705
17921TIP3    H275255   6.683   6.343  11.136  1.2831 -0.0925  2.2441
17922TIP3   OH275256   1.135   4.652  13.103  0.1342 -0.1446 -0.4208
17922TIP3    H175257   1.210   4.629  13.049 -0.3906 -0.5683 -0.9793
17922TIP3    H275258   1.068   4.587  13.080  0.0368 -0.5550  1.0190
17923TIP3   OH275259   6.479   2.801  12.125  0.2252 -0.2257 -0.2342
17923TIP3    H175260   6.479   2.860  12.050 -0.8095 -2.5284 -2.1289
17923TIP3    H275261   6.416   2.839  12.185  1.0173  1.6208 -0.5179
17924TIP3   OH275262   4.914   6.197  15.127 -0.0134  0.5053  0.5267
17924TIP3    H175263   4.902   6.290  15.108  1.2141  0.3638 -1.0283
17924TIP3    H275264   4.985   6.169  15.068  0.3509 -1.1672  1.7161
17925TIP3   OH275265   6.503   2.589   4.334  0.3838 -0.1928  0.4290
17925TIP3    H175266   6.555   2.516   4.368  0.1714 -0.5592 -0.0305
17925TIP3    H275267   6.559   2.630   4.268 -0.0316 -0.7976 -0.3139
17926TIP3   OH275268   5.257   2.388  17.040  0.1419  0.2296 -0.0987
17926TIP3    H175269   5.197   2.374  16.966 -1.8070  1.7114  1.1577
17926TIP3    H275270   5.306   2.466  17.016  1.5646 -0.9366 -1.0904
17927TIP3   OH275271   4.091   6.362  12.098 -0.4338  0.5651 -0.1787
17927TIP3    H175272   4.156   6.301  12.135 -1.7084 -0.5974  0.1737
17927TIP3    H275273   4.007   6.321  12.116 -1.3050  2.3496 -0.1313
17928TIP3   OH275274   2.873   3.026  17.180 -0.8046 -0.0062 -0.2022
17928TIP3    H175275   2.798   3.086  17.178 -0.6154  0.2064 -1.3078
17928TIP3    H275276   2.949   3.083  17.164 -0.4038 -0.2163  0.9437
17929TIP3   OH275277   0.093   6.720  16.229 -0.0632  0.1619  0.1215
17929TIP3    H175278   0.062   6.630  16.231 -2.4102  0.9504  0.8238
17929TIP3    H275279   0.030   6.768  16.283  0.8224  2.3152 -0.7071
17930TIP3   OH275280   3.032   6.090   3.532  0.2570  0.5420 -0.9362
17930TIP3    H175281   2.987   6.091   3.447  1.3338  2.7187 -1.5234
17930TIP3    H275282   3.061   6.180   3.544 -2.3583  0.9998  3.0998
17931TIP3   OH275283   4.361   1.434  15.159  0.0667  0.1908 -0.2926
17931TIP3    H175284   4.275   1.462  15.188 -0.0485  0.1685 -0.6059
17931TIP3    H275285   4.413   1.514  15.155  0.2564  0.1143  0.5478
17932TIP3   OH275286   3.336   0.910   6.037 -0.3805 -0.3537  0.0971
17932TIP3    H175287   3.321   1.000   6.064 -0.8913 -0.4110  0.0263
17932TIP3    H275288   3.258   0.863   6.069 -0.2130 -0.7251 -0.0433
17933TIP3   OH275289   4.226   5.373   1.410 -0.1239  0.2037  0.2518
17933TIP3    H175290   4.227   5.456   1.457  1.5403  0.6049 -0.4487
17933TIP3    H275291   4.215   5.397   1.318 -0.1744 -0.3782  0.1014
17934TIP3   OH275292   0.880   3.099   5.160 -0.0086 -0.3539 -0.1606
17934TIP3    H175293   0.799   3.113   5.111  0.7550  2.1360 -0.7805
17934TIP3    H275294   0.949   3.100   5.094  0.8939  1.5093  0.7616
17935TIP3   OH275295   1.846   2.089   6.142  0.5712 -0.0057 -0.4725
17935TIP3    H175296   1.927   2.099   6.193  1.8931  0.1926 -2.5544
17935TIP3    H275297   1.791   2.162   6.171  1.3370  0.1844  0.5666
17936TIP3   OH275298   5.230   4.469  16.967 -0.0476  0.2862 -0.0739
17936TIP3    H175299   5.162   4.406  16.943  2.3731 -2.5419  0.1660
17936TIP3    H275300   5.279   4.484  16.885 -0.0093  1.0960  0.0976
17937TIP3   OH275301   6.500   1.364  14.537  0.1046  0.4959  0.6678
17937TIP3    H175302   6.507   1.398  14.447 -1.1850  1.0382  0.7499
17937TIP3    H275303   6.535   1.434  14.592 -0.6458  0.8637  0.6903
17938TIP3   OH275304   5.372   5.666   4.512 -0.5287 -0.0268 -0.5361
17938TIP3    H175305   5.404   5.576   4.522 -1.6132 -0.2351  1.5023
17938TIP3    H275306   5.429   5.718   4.569 -1.3377  0.1907  0.0960
17939TIP3   OH275307   6.210   6.168   4.115  0.2454 -0.0602  0.0164
17939TIP3    H175308   6.145   6.228   4.151  0.5106  1.0618 -1.3218
17939TIP3    H275309   6.202   6.089   4.168 -1.5808  0.3896  0.4545
17940TIP3   OH275310   4.985   2.721   2.391  0.2653  0.1419 -0.3903
17940TIP3    H175311   5.020   2.765   2.313 -1.5472  0.9879 -0.7602
17940TIP3    H275312   4.895   2.701   2.368  0.0694 -0.6760  1.0736
17941TIP3   OH275313   2.264   0.826  14.442  0.1652  0.3992 -1.3854
17941TIP3    H175314   2.208   0.845  14.367  0.8714  0.5367 -1.8788
17941TIP3    H275315   2.338   0.777  14.406 -0.3174 -1.0151 -0.5284
17942TIP3   OH275316   5.407   0.821  15.759  0.3271 -0.1396 -0.1475
17942TIP3    H175317   5.472   0.833  15.828  1.4137 -3.5295 -0.5040
17942TIP3    H275318   5.443   0.869  15.684  1.5174 -0.4505  0.2139
17943TIP3   OH275319   2.879   4.315  14.189 -0.2551 -0.1205 -0.1852
17943TIP3    H175320   2.871   4.226  14.155  1.6794 -0.5167  0.3289
17943TIP3    H275321   2.949   4.355  14.137  1.1444  0.0135  1.7471
17944TIP3   OH275322   0.811   3.457   3.076 -0.0924 -0.4893 -0.2594
17944TIP3    H175323   0.856   3.375   3.093  0.4127 -0.0693  0.4964
17944TIP3    H275324   0.823   3.472   2.982 -1.4484 -2.0011 -0.6775
17945TIP3   OH275325   1.299   4.188  11.649 -0.1418  0.2125 -0.1453
17945TIP3    H175326   1.275   4.136  11.726 -2.2985  1.4711  0.0781
17945TIP3    H275327   1.251   4.147  11.577  1.4893 -0.6638 -0.7398
17946TIP3   OH275328   1.960   2.160  14.688  0.2952  0.8506  0.5413
17946TIP3    H175329   1.995   2.183  14.601  0.5313 -0.3465  0.3171
17946TIP3    H275330   2.038   2.147  14.742  0.1469  1.4500  0.9100
17947TIP3   OH275331   2.805   1.493   3.375  0.2006  0.3508 -0.1037
17947TIP3    H175332   2.870   1.477   3.306 -1.2422  1.7903 -1.8625
17947TIP3    H275333   2.834   1.573   3.418  0.6519 -0.0998  0.4472
17948TIP3   OH275334   0.903   4.063   4.395  0.5415 -0.1595  0.2317
17948TIP3    H175335   0.825   4.096   4.351 -1.1877 -0.6991  2.7822
17948TIP3    H275336   0.907   4.113   4.477  2.5712 -0.5316  0.3888
17949TIP3   OH275337   2.155   6.023  15.002 -0.6920 -0.0894 -0.3892
17949TIP3    H175338   2.210   6.067  15.067 -0.4678  0.2921 -0.8327
17949TIP3    H275339   2.083   5.985  15.053 -1.2350  1.3290 -0.0742
17950TIP3   OH275340   0.179   2.016  13.047  0.5004  0.5179  0.1454
17950TIP3    H175341   0.259   2.060  13.076 -0.0530  1.4061  0.3659
17950TIP3    H275342   0.120   2.023  13.122  0.5237 -0.9247  0.3053
17951TIP3   OH275343   6.416   4.590  11.480  0.1824  0.4213 -0.0755
17951TIP3    H175344   6.404   4.595  11.385 -0.4336  1.7152  0.0572
17951TIP3    H275345   6.414   4.681  11.509  1.4086  0.0980  1.0597
17952TIP3   OH275346   6.117   0.916   3.720 -0.4272  0.0405  1.0593
17952TIP3    H175347   6.117   0.874   3.806  1.1202  1.0343  1.5786
17952TIP3    H275348   6.129   1.009   3.739  0.2895  0.2284 -0.2531
17953TIP3   OH275349   6.231   6.736   5.871 -0.1534  0.4701  0.4285
17953TIP3    H175350   6.172   6.708   5.941 -0.1441  2.0671  1.0907
17953TIP3    H275351   6.300   6.670   5.870 -0.7974 -0.2253  1.1053
17954TIP3   OH275352   2.667   4.729  14.814 -0.3495  0.3341 -0.6765
17954TIP3    H175353   2.673   4.768  14.727  0.1379 -0.7545 -1.1411
17954TIP3    H275354   2.742   4.670  14.819 -1.9480 -1.7175 -0.5782
17955TIP3   OH275355   3.314   0.787   1.369 -0.7151  0.1203 -0.2783
17955TIP3    H175356   3.249   0.856   1.352  1.1057  1.9507 -0.0018
17955TIP3    H275357   3.376   0.827   1.430 -1.2875 -2.8201  2.3794
17956TIP3   OH275358   4.721   0.503  11.122 -0.0545  0.8045  0.2822
17956TIP3    H175359   4.812   0.530  11.108  0.8725 -1.6174  1.4784
17956TIP3    H275360   4.718   0.477  11.214 -1.3249 -1.5153 -0.3896
17957TIP3   OH275361   3.245   0.599   4.176 -0.5402 -0.1773 -0.0115
17957TIP3    H175362   3.311   0.530   4.180 -1.4882 -1.1458 -0.6705
17957TIP3    H275363   3.260   0.652   4.254 -0.0695 -1.3857  0.7303
17958TIP3   OH275364   0.181   0.315   4.496  0.5070  0.0637 -0.2454
17958TIP3    H175365   0.235   0.236   4.493 -0.8884 -1.1509  3.5851
17958TIP3    H275366   0.127   0.310   4.418  2.2930 -1.3684 -1.4306
17959TIP3   OH275367   3.622   2.066  13.920 -0.0056 -0.2411  0.5956
17959TIP3    H175368   3.555   2.000  13.900  0.7640 -1.5627  2.2282
17959TIP3    H275369   3.586   2.147  13.886 -1.9764 -1.1184  0.4773
17960TIP3   OH275370   5.199   2.501  14.614  0.1372 -0.0530 -0.6860
17960TIP3    H175371   5.250   2.444  14.556  0.2366 -0.7843  0.1143
17960TIP3    H275372   5.238   2.588  14.602  1.9017 -0.6871  0.2709
17961TIP3   OH275373   2.452   2.597  13.510 -0.5788  0.0378 -0.2272
17961TIP3    H175374   2.434   2.503  13.512  1.2760 -0.3284  0.2367
17961TIP3    H275375   2.442   2.626  13.601  0.0346  0.0528 -0.1631
17962TIP3   OH275376   1.722   4.409   2.291 -0.2889  0.2138 -0.4184
17962TIP3    H175377   1.754   4.325   2.324  1.1341  0.5225 -0.9919
17962TIP3    H275378   1.717   4.465   2.369  2.8173  0.8595 -0.6005
17963TIP3   OH275379   5.290   2.662   4.124 -0.6706  0.3505  0.0068
17963TIP3    H175380   5.248   2.577   4.132 -2.1316  1.0627  0.1423
17963TIP3    H275381   5.304   2.690   4.215  0.7667 -0.2087 -0.0446
17964TIP3   OH275382   0.761   6.133   5.775 -0.4595  0.7500 -0.0864
17964TIP3    H175383   0.845   6.110   5.734 -0.6368  0.5283 -0.3264
17964TIP3    H275384   0.757   6.229   5.770  0.2225  0.8209  0.7970
17965TIP3   OH275385   5.030   4.408   1.048  0.1856 -0.0331 -0.2547
17965TIP3    H175386   5.045   4.372   0.961  0.9069  0.9242 -0.5286
17965TIP3    H275387   5.002   4.333   1.100  0.9002 -0.8438 -1.0195
17966TIP3   OH275388   2.739   1.786   3.933  0.2476 -0.5453  0.1477
17966TIP3    H175389   2.738   1.871   3.888 -0.0573  0.0841  1.3330
17966TIP3    H275390   2.726   1.808   4.025 -1.1388 -1.9781  0.3062
17967TIP3   OH275391   5.226   2.796   0.529 -0.3542 -0.5021 -0.4146
17967TIP3    H175392   5.245   2.882   0.491  2.1473 -0.8489 -0.0294
17967TIP3    H275393   5.228   2.736   0.455 -1.1133 -0.3726 -0.5413
17968TIP3   OH275394   0.369   0.521   4.369 -0.2693 -0.5411  0.5718
17968TIP3    H175395   0.330   0.442   4.406 -3.0570  0.5184  0.0778
17968TIP3    H275396   0.352   0.514   4.275  0.9522 -0.1327  0.3159
17969TIP3   OH275397   2.378   5.197   0.761 -0.7291  0.0943 -0.0425
17969TIP3    H175398   2.421   5.122   0.802  0.3750  0.2368 -0.9223
17969TIP3    H275399   2.362   5.258   0.833 -0.5444 -0.4698  0.4802
17970TIP3   OH275400   2.708   3.216  14.968 -0.0395  0.2694 -0.4177
17970TIP3    H175401   2.734   3.295  14.920  1.8151  0.1561  0.3489
17970TIP3    H275402   2.672   3.249  15.050  1.4276  0.2963  0.2170
17971TIP3   OH275403   4.031   1.166  15.962  0.5491 -0.5433 -0.0796
17971TIP3    H175404   4.097   1.124  16.018  0.0013  0.9685  1.7358
17971TIP3    H275405   4.080   1.232  15.914  0.4934  0.1976  0.8575
17972TIP3   OH275406   3.998   6.083  13.209  0.0958  0.0112  0.1844
17972TIP3    H175407   4.050   6.003  13.196  0.5172  0.5525 -1.5822
17972TIP3    H275408   4.017   6.137  13.132 -1.0375  1.3515  0.8238
17973TIP3   OH275409   1.984   6.053  11.979  0.2459 -0.6848 -0.9089
17973TIP3    H175410   2.058   6.024  12.031 -0.0373 -0.5497 -0.4248
17973TIP3    H275411   1.926   5.977  11.974 -0.7101 -0.0829  0.7436
17974TIP3   OH275412   0.776   2.475   4.661  0.2211 -0.1259  0.0207
17974TIP3    H175413   0.767   2.570   4.669 -1.7119 -0.2874 -0.0089
17974TIP3    H275414   0.866   2.457   4.688  0.8042  1.7726 -0.5865
17975TIP3   OH275415   4.517   1.264  16.488  0.3827  0.5281 -0.3386
17975TIP3    H175416   4.551   1.217  16.412  1.6434 -0.9518  1.1354
17975TIP3    H275417   4.427   1.232  16.498  0.8222 -0.6269 -0.0980
17976TIP3   OH275418   3.131   4.718  13.642 -0.2338 -0.0403  0.3373
17976TIP3    H175419   3.074   4.652  13.602 -1.1503  2.1102 -1.9886
17976TIP3    H275420   3.071   4.776  13.690  0.6756 -1.4829  3.3653
17977TIP3   OH275421   3.466   4.773   4.378 -0.2009  0.0836 -0.2151
17977TIP3    H175422   3.410   4.697   4.394  0.6823 -0.7149 -0.8904
17977TIP3    H275423   3.555   4.739   4.384  0.2396  1.4106  1.1821
17978TIP3   OH275424   6.178   4.285   1.323 -1.1070  0.1886  0.1502
17978TIP3    H175425   6.111   4.354   1.319 -0.0469  1.2732  0.6673
17978TIP3    H275426   6.256   4.330   1.356 -0.0202 -0.9812 -0.8119
17979TIP3   OH275427   3.190   0.613   5.849  0.0193  0.1157 -0.2335
17979TIP3    H175428   3.279   0.579   5.841 -0.0372 -0.1520  0.2249
17979TIP3    H275429   3.144   0.547   5.901 -0.4044  0.3303 -0.3311
17980TIP3   OH275430   4.658   6.758  13.178 -0.0097 -0.5451 -0.5613
17980TIP3    H175431   4.730   6.796  13.127  1.4637 -1.7318  0.5483
17980TIP3    H275432   4.616   6.697  13.117 -0.0600  0.1518 -1.2263
17981TIP3   OH275433   2.063   1.695  16.702 -0.0621  0.2456 -0.6348
17981TIP3    H175434   1.991   1.746  16.741 -0.5420 -1.6948  1.1461
17981TIP3    H275435   2.024   1.610  16.683  1.4753 -0.4472 -0.7464
17982TIP3   OH275436   6.788   2.787  10.795  0.4141  0.2067  0.0147
17982TIP3    H175437   6.806   2.693  10.792  0.1440  0.1343  0.5538
17982TIP3    H275438   6.871   2.826  10.823  0.7338  0.2014 -0.8904
17983TIP3   OH275439   5.377   3.113   1.124  0.0309 -0.3649  0.0658
17983TIP3    H175440   5.348   3.023   1.112 -1.2974  0.0463  0.1477
17983TIP3    H275441   5.306   3.156   1.171  1.5475  0.2150  1.8665
17984TIP3   OH275442   3.458   5.648   1.281 -0.2143  0.7077  0.1596
17984TIP3    H175443   3.464   5.667   1.187  2.6965  0.5818  0.2938
17984TIP3    H275444   3.475   5.554   1.288  2.7749  1.2801  1.0712
17985TIP3   OH275445   4.348   5.096  15.116 -0.1089  0.4061  0.2591
17985TIP3    H175446   4.326   5.139  15.033  0.3522 -0.2366 -0.1961
17985TIP3    H275447   4.326   5.004  15.101  0.0675  0.2767  0.8194
17986TIP3   OH275448   2.183   4.186   0.211  0.2574  0.2915 -0.3384
17986TIP3    H175449   2.237   4.207   0.287  1.7923  0.2060 -1.3724
17986TIP3    H275450   2.131   4.265   0.196 -0.1363  0.2681  0.8510
17987TIP3   OH275451   5.882   1.550   1.972 -0.4026 -0.6259  0.4066
17987TIP3    H175452   5.978   1.550   1.967 -0.3192 -0.8311  1.7088
17987TIP3    H275453   5.863   1.528   2.064 -1.6802  1.0726  0.5677
17988TIP3   OH275454   6.495   4.386  12.410  0.2236  0.0242  0.3145
17988TIP3    H175455   6.414   4.378  12.360  0.2542 -3.1065  0.6425
17988TIP3    H275456   6.469   4.427  12.492 -0.6790  0.8258 -0.3639
17989TIP3   OH275457   0.358   0.755  16.183 -0.2798  0.1895 -0.0866
17989TIP3    H175458   0.358   0.812  16.105  0.3508 -0.4295 -0.5400
17989TIP3    H275459   0.342   0.815  16.256  0.0337  0.9052 -0.6019
17990TIP3   OH275460   2.486   4.080   4.335 -0.0489  0.4266  0.1381
17990TIP3    H175461   2.398   4.106   4.363 -0.3020  1.4224 -1.4696
17990TIP3    H275462   2.506   4.139   4.262  1.5915 -0.3928 -0.1036
17991TIP3   OH275463   4.584   0.615   6.288  0.3067  0.3241  0.3231
17991TIP3    H175464   4.584   0.694   6.342  1.4335  0.4243  0.1827
17991TIP3    H275465   4.579   0.543   6.351 -0.5647  0.4968  0.4590
17992TIP3   OH275466   4.805   3.072   6.700  0.1653 -0.4091  0.2127
17992TIP3    H175467   4.811   3.164   6.725 -0.7833 -0.2603 -0.1244
17992TIP3    H275468   4.713   3.049   6.710 -0.2872 -0.3427 -3.1219
17993TIP3   OH275469   0.153   2.189   2.587  0.1882 -0.0315 -0.0876
17993TIP3    H175470   0.130   2.180   2.495 -0.4389 -0.4305  0.1091
17993TIP3    H275471   0.245   2.164   2.591 -0.5703 -2.9858 -0.1165
17994TIP3   OH275472   5.991   6.273  16.005 -0.2842 -0.5714 -0.5532
17994TIP3    H175473   5.985   6.346  15.944 -1.0034 -1.8629 -2.0721
17994TIP3    H275474   5.974   6.312  16.091 -1.6696  0.8741 -1.4462
17995TIP3   OH275475   3.414   2.527   4.069 -0.1193  0.0242  0.2080
17995TIP3    H175476   3.426   2.451   4.011  0.5746  0.5604 -0.3543
17995TIP3    H275477   3.503   2.556   4.089 -0.3831  0.9851  0.0244
17996TIP3   OH275478   1.635   0.638   6.626  0.0827 -0.6061 -0.0050
17996TIP3    H175479   1.552   0.594   6.641  1.4204 -2.3551  2.8760
17996TIP3    H275480   1.617   0.730   6.641 -1.2437 -1.0306  1.0558
17997TIP3   OH275481   1.001   2.967  14.603 -0.0252 -0.6061  0.6140
17997TIP3    H175482   1.020   3.033  14.537  1.3996 -0.2865  1.3285
17997TIP3    H275483   1.058   2.893  14.581  0.4633 -0.4953  1.4833
17998TIP3   OH275484   5.762   3.551  15.287  0.0104  0.4176 -0.0124
17998TIP3    H175485   5.761   3.496  15.365  0.9393 -0.9819 -0.9614
17998TIP3    H275486   5.812   3.628  15.313 -2.0981  1.2763  1.6078
17999TIP3   OH275487   1.891   4.930  13.403 -0.0460 -0.5825  0.0934
17999TIP3    H175488   1.827   4.923  13.333  1.0560 -0.6008 -0.9182
17999TIP3    H275489   1.841   4.913  13.483 -1.5959  0.8482 -0.5479
18000TIP3   OH275490   6.193   0.093   0.112  0.1229 -0.4192 -0.4319
18000TIP3    H175491   6.101   0.071   0.127  0.2641 -0.7029  0.0535
18000TIP3    H275492   6.230   0.013   0.075  0.4001 -0.6509  0.3342
18001TIP3   OH275493   4.634   5.213  13.856 -0.0641 -0.1633  1.0005
18001TIP3    H175494   4.700   5.191  13.790  0.2461 -0.0859  1.2829
18001TIP3    H275495   4.684   5.227  13.936 -0.1886  2.0683  0.7155
18002TIP3   OH275496   3.799   6.163   0.768  0.3562 -0.2097 -0.2537
18002TIP3    H175497   3.874   6.221   0.783  0.4425 -0.6228  1.0137
18002TIP3    H275498   3.796   6.108   0.846  0.3377 -1.9920 -1.5047
18003TIP3   OH275499   2.460   0.308   1.291 -0.0520  0.3436  0.7099
18003TIP3    H175500   2.507   0.224   1.290 -0.6187  0.0322 -0.0575
18003TIP3    H275501   2.529   0.373   1.305  0.9397  0.0732 -2.4768
18004TIP3   OH275502   4.383   2.224   1.358  0.2907 -0.6447  0.2085
18004TIP3    H175503   4.394   2.165   1.284  2.6224  0.9407 -0.7457
18004TIP3    H275504   4.305   2.276   1.336  0.0124 -1.2920 -0.3415
18005TIP3   OH275505   6.774   1.721   1.579  0.5773 -0.7483 -0.7373
18005TIP3    H175506   6.727   1.638   1.586 -2.1401  0.8855  1.4552
18005TIP3    H275507   6.787   1.749   1.669 -0.1175  2.0371 -1.4484
18006TIP3   OH275508   0.680   0.531  12.615  0.1040  0.0710 -0.7211
18006TIP3    H175509   0.739   0.594  12.573  0.8997 -0.7490 -0.8462
18006TIP3    H275510   0.695   0.449  12.568  1.2537 -0.9444  1.3679
18007TIP3   OH275511   4.907   4.643   1.023 -0.1198  0.1905 -0.2993
18007TIP3    H175512   4.817   4.614   1.009 -0.3266  0.4882  0.3910
18007TIP3    H275513   4.958   4.562   1.029 -0.5390 -0.0112  0.6048
18008TIP3   OH275514   2.446   2.992  15.312 -0.5135  0.1408 -0.7646
18008TIP3    H175515   2.529   2.956  15.281 -0.1767  1.1695 -1.0820
18008TIP3    H275516   2.381   2.957  15.250 -0.5420 -1.8177  0.3182
18009TIP3   OH275517   0.177   0.673   0.771 -0.6272  0.1769  0.6409
18009TIP3    H175518   0.251   0.719   0.730 -2.4433  2.3396 -0.3217
18009TIP3    H275519   0.128   0.742   0.816 -0.6675 -1.6269  3.5024
18010TIP3   OH275520   5.343   4.613  14.250 -0.0646  0.2250  0.1724
18010TIP3    H175521   5.432   4.623  14.216 -0.2991 -0.4359 -0.6496
18010TIP3    H275522   5.306   4.701  14.244  0.4160  0.4353  0.1926
18011TIP3   OH275523   0.886   4.900  11.200 -0.3415  0.3410 -0.0554
18011TIP3    H175524   0.953   4.955  11.240  0.3135 -0.2250 -0.3681
18011TIP3    H275525   0.841   4.957  11.138  0.6224  0.4068 -0.7002
18012TIP3   OH275526   0.883   4.258  12.790 -0.0567  0.3888  0.3647
18012TIP3    H175527   0.831   4.210  12.854  0.0336 -0.1375  0.0499
18012TIP3    H275528   0.838   4.244  12.707  0.9856 -0.6808 -0.0340
18013TIP3   OH275529   5.883   1.661  12.226  0.2065  0.8176  0.1346
18013TIP3    H175530   5.849   1.651  12.315 -1.0666 -1.3147 -0.5586
18013TIP3    H275531   5.925   1.577  12.207  0.6385  1.3299 -1.2092
18014TIP3   OH275532   2.783   1.764   4.998  0.0149 -0.6571 -0.1305
18014TIP3    H175533   2.864   1.732   5.039  0.4294 -0.5073 -0.8215
18014TIP3    H275534   2.770   1.706   4.923 -0.6087 -0.7780  0.0731
18015TIP3   OH275535   0.561   3.252   3.152  0.2550 -0.3421  0.3228
18015TIP3    H175536   0.585   3.325   3.095 -2.4142  1.5015  1.4514
18015TIP3    H275537   0.532   3.183   3.093 -0.1560  0.6404 -0.6269
18016TIP3   OH275538   2.236   2.281   5.378  0.0942  0.2866  0.0147
18016TIP3    H175539   2.313   2.302   5.325  0.6801 -2.7846 -0.4571
18016TIP3    H275540   2.172   2.247   5.316  0.0864 -1.5195  0.9535
18017TIP3   OH275541   3.030   0.682   5.154 -0.7499  0.0465  0.1867
18017TIP3    H175542   2.935   0.673   5.162 -0.8311  1.3496  0.8624
18017TIP3    H275543   3.064   0.642   5.234 -0.8018  0.5541  0.4693
18018TIP3   OH275544   6.816   4.112  15.762  0.0154  0.1561  0.0197
18018TIP3    H175545   6.815   4.068  15.847  0.3288 -2.0299 -1.0981
18018TIP3    H275546   6.883   4.066  15.712  0.2183  1.7900 -1.2492
18019TIP3   OH275547   6.054   6.410   4.918 -0.0455  0.1421 -0.8675
18019TIP3    H175548   5.994   6.362   4.975  2.3756  0.5633  2.2164
18019TIP3    H275549   6.027   6.501   4.927  0.4590  0.2329 -0.1487
18020TIP3   OH275550   2.493   2.866  17.148 -0.0595  0.3863  0.2499
18020TIP3    H175551   2.479   2.890  17.057  0.7327 -0.8179 -0.1998
18020TIP3    H275552   2.584   2.837  17.152 -0.7508 -1.7664  0.9247
18021TIP3   OH275553   0.452   4.440  15.787  0.2454  0.6442  0.8266
18021TIP3    H175554   0.514   4.392  15.732  0.8512 -0.5204  2.4775
18021TIP3    H275555   0.472   4.532  15.773 -0.0869  0.4094 -1.4261
18022TIP3   OH275556   5.435   1.422   5.048 -0.3172  0.0347  0.3000
18022TIP3    H175557   5.358   1.461   5.006 -0.0080 -1.4039 -1.7203
18022TIP3    H275558   5.451   1.341   4.998  2.6753  0.4589  0.4516
18023TIP3   OH275559   3.570   6.558  13.914  0.2117  0.4123  0.2816
18023TIP3    H175560   3.475   6.560  13.906  0.2348  2.0222  0.1854
18023TIP3    H275561   3.596   6.650  13.914  1.8882 -0.0355 -1.0050
18024TIP3   OH275562   0.795   1.578  16.143  0.2332 -0.4147  0.3806
18024TIP3    H175563   0.780   1.577  16.048  0.6100 -0.3199  0.3176
18024TIP3    H275564   0.878   1.532  16.155 -0.2317 -1.1541  0.7400
18025TIP3   OH275565   3.093   1.224  13.195 -0.2431 -0.7315  0.1845
18025TIP3    H175566   3.101   1.131  13.216 -2.0747 -0.5149  2.0369
18025TIP3    H275567   3.087   1.268  13.280 -0.5295  0.9645 -0.6838
18026TIP3   OH275568   1.561   1.478  12.948  0.5719 -0.2717 -0.2719
18026TIP3    H175569   1.543   1.385  12.930 -0.8084 -0.1610  0.5174
18026TIP3    H275570   1.600   1.478  13.035 -1.0500  0.0516  0.4610
18027TIP3   OH275571   5.603   3.583  16.575  0.5320 -0.0861  0.1151
18027TIP3    H175572   5.610   3.656  16.638 -2.3141  0.1142  0.2344
18027TIP3    H275573   5.566   3.623  16.497  0.6033 -1.0742 -0.4186
18028TIP3   OH275574   4.323   5.019   0.645  0.0861 -0.1484  0.3735
18028TIP3    H175575   4.399   5.054   0.691 -0.8184  1.2069  0.8524
18028TIP3    H275576   4.333   5.050   0.555  0.0628  0.0855  0.4515
18029TIP3   OH275577   3.820   0.787   5.018  0.2243 -0.0224  0.2223
18029TIP3    H175578   3.817   0.740   4.934 -1.4973  2.2576 -1.0699
18029TIP3    H275579   3.909   0.823   5.021  0.7370 -1.2167  0.0418
18030TIP3   OH275580   5.602   5.527  13.729  0.1287  0.0823 -0.1270
18030TIP3    H175581   5.696   5.519  13.748  0.2665 -1.3832 -1.3212
18030TIP3    H275582   5.567   5.578  13.802  1.5494 -0.9132  1.2878
18031TIP3   OH275583   1.297   1.473  12.808 -0.3027 -0.4578 -0.2388
18031TIP3    H175584   1.246   1.492  12.887  1.7706 -0.3287  1.1117
18031TIP3    H275585   1.341   1.390  12.827 -1.6277 -1.6715 -2.2283
18032TIP3   OH275586   0.288   3.371   5.016  0.3055 -0.1970 -0.3254
18032TIP3    H175587   0.280   3.340   5.107  1.8498  1.2423  0.3362
18032TIP3    H275588   0.201   3.359   4.979 -0.8539  0.8879  1.9201
18033TIP3   OH275589   2.792   4.152   1.552  0.0616 -0.5248 -0.5042
18033TIP3    H175590   2.869   4.095   1.556 -0.4547 -1.1721  0.3684
18033TIP3    H275591   2.819   4.232   1.597  0.0705 -0.9478  0.2602
18034TIP3   OH275592   6.252   1.017   6.337 -0.4750 -0.0782  0.1159
18034TIP3    H175593   6.269   0.924   6.351  1.3904  0.1683 -0.3074
18034TIP3    H275594   6.162   1.021   6.305 -0.2448 -1.8153 -0.7781
18035TIP3   OH275595   0.247   3.063  13.436 -0.5158  0.3994 -0.3121
18035TIP3    H175596   0.157   3.045  13.463 -0.4044  1.1465  0.5623
18035TIP3    H275597   0.302   3.021  13.502 -0.2333  1.2271 -0.0134
18036TIP3   OH275598   0.626   2.806   3.140  0.2656 -0.0696  0.3718
18036TIP3    H175599   0.604   2.868   3.208 -1.7304  1.9044 -1.9841
18036TIP3    H275600   0.703   2.844   3.097  0.3370 -0.3186  0.2776
18037TIP3   OH275601   6.015   5.713  15.240  0.8535 -0.9547 -0.8295
18037TIP3    H175602   6.026   5.772  15.314 -2.2545 -1.3041 -0.0267
18037TIP3    H275603   6.021   5.769  15.163  2.1349 -0.2969 -0.2716
18038TIP3   OH275604   3.374   3.453  14.957  0.1164  0.1657  0.2898
18038TIP3    H175605   3.378   3.358  14.957 -0.7567  0.0819 -2.7654
18038TIP3    H275606   3.306   3.475  15.021 -1.2953 -1.3748 -0.6524
18039TIP3   OH275607   0.425   5.071  16.621  0.4467  0.0175  0.2424
18039TIP3    H175608   0.469   5.030  16.696 -1.6896  0.5481  1.8286
18039TIP3    H275609   0.360   5.007  16.592 -0.3696  0.7846  0.3680
18040TIP3   OH275610   3.786   2.781   5.269 -0.3036  0.5137 -0.2130
18040TIP3    H175611   3.723   2.733   5.323  0.1419  0.2324  0.0472
18040TIP3    H275612   3.818   2.851   5.326  0.8097 -0.2989  0.1668
18041TIP3   OH275613   2.045   3.582   1.784  0.0052 -0.2349  0.1971
18041TIP3    H175614   2.080   3.543   1.703 -0.4093  0.3793 -0.2858
18041TIP3    H275615   1.986   3.516   1.819  1.3317 -1.1151  0.7967
18042TIP3   OH275616   6.743   1.402   6.012  0.0441 -0.3739 -0.0490
18042TIP3    H175617   6.768   1.389   5.921  1.0640  1.2571 -0.0205
18042TIP3    H275618   6.658   1.447   6.008  0.5006  0.4832 -0.2091
18043TIP3   OH275619   5.060   0.244   5.044 -0.2915  0.2033  0.1401
18043TIP3    H175620   5.093   0.287   4.966 -1.5931  0.1080 -0.4840
18043TIP3    H275621   5.123   0.174   5.062  0.8102  1.1611  0.0534
18044TIP3   OH275622   3.014   4.838  16.506  0.9888 -0.2185 -0.3350
18044TIP3    H175623   2.957   4.812  16.434  1.3960 -1.4062 -0.2443
18044TIP3    H275624   2.954   4.869  16.574  0.4323 -1.5819 -0.1956
18045TIP3   OH275625   2.102   3.619  10.667  0.1688 -0.2228 -0.3514
18045TIP3    H175626   2.066   3.581  10.587 -0.8478 -0.9456  0.4213
18045TIP3    H275627   2.160   3.689  10.638  0.4971 -1.0720 -1.7368
18046TIP3   OH275628   0.195   1.274  12.929 -0.1438 -0.3494  0.0474
18046TIP3    H175629   0.136   1.331  12.978 -0.5172  0.4761 -1.3309
18046TIP3    H275630   0.179   1.186  12.964 -0.3723  0.2247  1.4121
18047TIP3   OH275631   1.133   4.363   3.052 -0.2905 -0.3276  0.0385
18047TIP3    H175632   1.100   4.295   2.994  0.3059  0.7541 -1.6045
18047TIP3    H275633   1.088   4.443   3.022  0.8216  0.4290  0.3696
18048TIP3   OH275634   4.360   0.421  11.771 -0.5433  0.0881 -0.4178
18048TIP3    H175635   4.367   0.337  11.815 -0.2689  0.7584  0.8527
18048TIP3    H275636   4.437   0.470  11.800  0.4684  0.0016 -2.8781
18049TIP3   OH275637   6.176   1.904   4.871  0.1915 -0.1554 -0.2427
18049TIP3    H175638   6.132   1.850   4.806  0.1739  1.2858 -1.4509
18049TIP3    H275639   6.266   1.911   4.839  0.2911  0.2285  0.1204
18050TIP3   OH275640   6.575   3.539  11.337  0.0516 -0.4842  0.2126
18050TIP3    H175641   6.506   3.601  11.360 -2.6077 -1.3732 -4.6337
18050TIP3    H275642   6.644   3.592  11.298  0.5089  0.0195  1.6763
18051TIP3   OH275643   3.921   0.594  17.223 -0.6060  0.0956 -0.3201
18051TIP3    H175644   3.918   0.499  17.210 -1.8566 -0.0397  0.7532
18051TIP3    H275645   3.945   0.604  17.316  1.0279  0.8627 -0.8106
18052TIP3   OH275646   3.885   6.350  13.604  0.5715  0.1106 -0.1733
18052TIP3    H175647   3.798   6.337  13.642  0.4139  0.2851 -0.4743
18052TIP3    H275648   3.940   6.286  13.649  0.8664  1.7919  1.9091
18053TIP3   OH275649   6.377   2.006  15.713 -0.0647  0.3858 -0.2099
18053TIP3    H175650   6.468   2.013  15.743  1.2847  1.1455 -4.1168
18053TIP3    H275651   6.359   2.091  15.672 -1.0826 -1.1417 -3.0850
18054TIP3   OH275652   5.862   6.212  14.441  0.7717  0.5622  0.2494
18054TIP3    H175653   5.866   6.122  14.476 -0.1460  0.7550  0.8992
18054TIP3    H275654   5.933   6.258  14.485  1.5083  0.0569 -0.3941
18055TIP3   OH275655   2.805   1.987  13.684 -0.0571 -0.1043  0.4157
18055TIP3    H175656   2.893   1.956  13.703 -0.1956 -2.0971 -1.9031
18055TIP3    H275657   2.748   1.935  13.742 -0.0844 -2.6598 -1.7769
18056TIP3   OH275658   2.033   1.730  13.063 -0.0330 -0.6197 -0.1064
18056TIP3    H175659   2.086   1.697  13.136  1.7972  0.6980 -0.8004
18056TIP3    H275660   1.977   1.656  13.039 -0.1896 -1.3018  2.1653
18057TIP3   OH275661   3.972   6.107   2.506  0.0179 -0.4871 -0.1182
18057TIP3    H175662   4.060   6.071   2.498  0.1596 -0.3576  0.8423
18057TIP3    H275663   3.930   6.055   2.575 -0.3090  0.1326  0.1574
18058TIP3   OH275664   2.787   0.419   6.750  0.6589 -0.6801 -0.2214
18058TIP3    H175665   2.811   0.463   6.669  1.9251 -1.9302 -0.5512
18058TIP3    H275666   2.695   0.440   6.763  1.5072  3.0725  0.3010
18059TIP3   OH275667   0.290   1.945  16.064 -0.0238  0.4395  0.1654
18059TIP3    H175668   0.296   1.980  16.153 -0.1034  1.5909 -0.2653
18059TIP3    H275669   0.381   1.927  16.039  0.1530  1.6228 -0.0897
18060TIP3   OH275670   1.876   2.794   3.875 -0.4414 -0.7544  0.6121
18060TIP3    H175671   1.812   2.744   3.824 -0.7178 -0.2257  0.4330
18060TIP3    H275672   1.835   2.880   3.887  0.1979 -0.4396  0.5728
18061TIP3   OH275673   2.822   1.516   5.119  0.1675 -0.5375  0.4575
18061TIP3    H175674   2.862   1.430   5.129  0.8637 -0.1539  1.0425
18061TIP3    H275675   2.881   1.575   5.166 -1.1951  0.0083  1.4987
18062TIP3   OH275676   0.292   2.759   3.022  0.6315  0.7426 -0.3387
18062TIP3    H175677   0.295   2.763   2.926 -0.8011  0.4993 -0.4130
18062TIP3    H275678   0.212   2.808   3.044 -0.0204 -0.7260  0.6164
18063TIP3   OH275679   0.297   6.609  14.358 -0.0366  0.2074 -0.1962
18063TIP3    H175680   0.218   6.556  14.352 -1.0854  1.4482  2.1010
18063TIP3    H275681   0.365   6.548  14.387 -0.3110 -0.6916 -1.4020
18064TIP3   OH275682   1.417   1.762  16.164 -0.3421  0.2128 -0.0401
18064TIP3    H175683   1.403   1.753  16.258 -0.6232 -1.2557 -0.2180
18064TIP3    H275684   1.355   1.830  16.138  2.0810  3.1228  1.3730
18065TIP3   OH275685   5.360   3.667  13.395 -0.2499 -0.8201  0.4159
18065TIP3    H175686   5.371   3.579  13.433  1.2568 -0.7122  0.2702
18065TIP3    H275687   5.266   3.684  13.402 -0.6881 -2.7537 -0.2384
18066TIP3   OH275688   1.048   0.719  15.365 -0.2057  0.5301 -0.1331
18066TIP3    H175689   1.003   0.640  15.336  0.7243  0.3301 -1.0451
18066TIP3    H275690   1.136   0.712  15.328  0.4530  1.1284  1.2552
18067TIP3   OH275691   5.657   4.919   1.772 -0.0418  0.1073  0.1476
18067TIP3    H175692   5.606   4.966   1.707  0.6159  1.0256  0.2810
18067TIP3    H275693   5.709   4.856   1.722 -1.0207 -0.5685 -0.0213
18068TIP3   OH275694   3.412   5.235  16.521 -0.1507  0.7683  0.5049
18068TIP3    H175695   3.429   5.326  16.496  0.1340  0.6464  0.2603
18068TIP3    H275696   3.317   5.232  16.535 -0.0823  1.2563  1.1378
18069TIP3   OH275697   1.293   5.732  12.724 -0.2315 -0.3213 -0.6134
18069TIP3    H175698   1.350   5.682  12.782  0.1859 -0.3128 -1.0145
18069TIP3    H275699   1.229   5.773  12.782  0.2467 -0.2365 -0.1516
18070TIP3   OH275700   6.405   4.600  10.434  0.6229 -0.2904  0.3668
18070TIP3    H175701   6.476   4.537  10.444  0.6959 -0.2305  0.2222
18070TIP3    H275702   6.332   4.549  10.399  0.9021 -0.1516 -0.4261
18071TIP3   OH275703   1.230   3.224   3.522  0.0424 -0.0149  0.2103
18071TIP3    H175704   1.240   3.308   3.478  0.7644 -1.1614 -1.8954
18071TIP3    H275705   1.217   3.161   3.451  0.4620 -1.8300  1.6948
18072TIP3   OH275706   3.519   5.393  11.796 -0.3690 -0.2364  0.0401
18072TIP3    H175707   3.507   5.424  11.706 -0.2480  1.6253  0.6498
18072TIP3    H275708   3.445   5.334  11.811 -1.1062  0.4527 -0.8560
18073TIP3   OH275709   1.498   3.541   5.220  0.3218  0.5286 -0.0790
18073TIP3    H175710   1.409   3.528   5.189 -0.2267  0.1132  1.6342
18073TIP3    H275711   1.553   3.508   5.149 -0.8959 -0.4771 -0.5762
18074TIP3   OH275712   1.028   5.711   2.198 -0.2356  0.0582  0.5065
18074TIP3    H175713   0.968   5.672   2.134  0.9132  0.6180 -0.9366
18074TIP3    H275714   1.047   5.639   2.259 -2.0852 -0.2151  0.7838
18075TIP3   OH275715   3.679   3.284  16.653  0.0532 -0.3779  0.0738
18075TIP3    H175716   3.696   3.257  16.743 -0.8043 -1.0691  0.0448
18075TIP3    H275717   3.602   3.233  16.628  0.3751 -0.2945 -1.0981
18076TIP3   OH275718   2.055   6.211   3.096  0.2989  0.0964 -0.1070
18076TIP3    H175719   1.975   6.201   3.045 -0.5362  0.8253  1.0521
18076TIP3    H275720   2.056   6.303   3.122 -0.3219 -0.7360  2.9211
18077TIP3   OH275721   5.428   6.690   1.389 -0.3338 -0.1213  0.2373
18077TIP3    H175722   5.499   6.749   1.367  1.2236 -1.8978  0.3485
18077TIP3    H275723   5.359   6.710   1.325  0.0869  1.9096  0.4065
18078TIP3   OH275724   3.491   1.734   3.354  0.3925  0.0941  0.1755
18078TIP3    H175725   3.439   1.681   3.415 -0.4686  0.5338 -0.1524
18078TIP3    H275726   3.454   1.714   3.268  0.0725  1.1819  0.0500
18079TIP3   OH275727   3.780   3.325  11.185 -0.5868 -0.6594 -0.5716
18079TIP3    H175728   3.843   3.292  11.250 -1.0467  2.3609  1.5297
18079TIP3    H275729   3.828   3.324  11.102  1.5357 -0.3899  0.6096
18080TIP3   OH275730   5.886   5.966   5.103 -0.5248  0.2087  0.2620
18080TIP3    H175731   5.954   5.938   5.042  0.5564  2.5985  0.3014
18080TIP3    H275732   5.807   5.921   5.074  0.5354 -0.7017 -1.2861
18081TIP3   OH275733   1.925   5.670   6.340 -0.4683  0.4526  0.2768
18081TIP3    H175734   1.922   5.646   6.247 -0.7079 -1.5600  0.7724
18081TIP3    H275735   1.887   5.595   6.385 -2.5520  2.4117  1.8661
18082TIP3   OH275736   6.048   3.451  15.790 -0.5731 -0.0966  0.0440
18082TIP3    H175737   6.128   3.419  15.748  0.3883  0.5755  1.3234
18082TIP3    H275738   6.018   3.522  15.734 -0.1128 -0.1695 -0.2962
18083TIP3   OH275739   0.469   1.719   3.326 -0.0244  0.5272  0.2290
18083TIP3    H175740   0.457   1.808   3.360 -0.1016  0.9328 -0.8475
18083TIP3    H275741   0.424   1.663   3.390  0.1328  1.2393  0.9822
18084TIP3   OH275742   6.609   5.653   0.015  0.2563 -0.4453 -0.1582
18084TIP3    H175743   6.621   5.630   0.107  2.5148  0.9605 -0.0711
18084TIP3    H275744   6.693   5.634  -0.027  0.2013  1.6807 -1.3234
18085TIP3   OH275745   5.279   2.167   1.529  0.1784 -0.1717  0.0285
18085TIP3    H175746   5.356   2.129   1.486  0.3976 -1.4934  1.5844
18085TIP3    H275747   5.206   2.144   1.471  0.6201 -1.0366 -0.1977
18086TIP3   OH275748   3.465   4.513  11.412  0.5812 -0.1529 -0.7425
18086TIP3    H175749   3.370   4.508  11.398  0.4687 -0.6067  0.0963
18086TIP3    H275750   3.493   4.592  11.366 -0.2259  0.0460 -0.8944
18087TIP3   OH275751   6.080   2.094  15.650  0.0182 -0.0133  0.1655
18087TIP3    H175752   6.139   2.021  15.632  1.0954  0.8573  0.0464
18087TIP3    H275753   6.067   2.091  15.745  0.0099 -0.3944  0.1529
18088TIP3   OH275754   2.597   4.138   5.415 -0.2336  0.4467  0.0028
18088TIP3    H175755   2.688   4.110   5.428  0.0493  1.0951 -0.5470
18088TIP3    H275756   2.569   4.090   5.337 -0.3740  0.2320  0.1831
18089TIP3   OH275757   0.544   4.269   0.750  0.5004 -0.9425 -0.3701
18089TIP3    H175758   0.552   4.266   0.845 -1.9838  0.0541 -0.0883
18089TIP3    H275759   0.520   4.179   0.725  1.6668 -1.3293 -0.1367
18090TIP3   OH275760   0.317   5.307  13.154 -0.1365 -0.1531 -0.3791
18090TIP3    H175761   0.306   5.296  13.059 -1.0761  0.1250 -0.3079
18090TIP3    H275762   0.305   5.400  13.169  1.4097  0.0315 -0.1504
18091TIP3   OH275763   3.371   4.821  13.546 -0.7041 -0.8491  0.3477
18091TIP3    H175764   3.378   4.762  13.471  1.0848 -0.7370  0.3941
18091TIP3    H275765   3.303   4.783  13.601  0.1704 -2.6875  0.2104
18092TIP3   OH275766   2.558   2.163  12.054 -0.1209  0.4375  0.3388
18092TIP3    H175767   2.634   2.221  12.048  0.1374 -0.0197 -1.1492
18092TIP3    H275768   2.490   2.209  12.005 -0.2019 -0.0650 -0.0214
18093TIP3   OH275769   0.915   3.097  15.685 -0.2169  0.5881  0.0925
18093TIP3    H175770   0.955   3.137  15.763 -0.5319 -0.7696  0.9741
18093TIP3    H275771   0.894   3.171  15.628  2.1753  1.4380  0.2535
18094TIP3   OH275772   4.757   2.942   4.462 -0.2645  0.4778  0.3248
18094TIP3    H175773   4.844   2.939   4.504  0.0161 -1.2779 -0.3472
18094TIP3    H275774   4.733   2.850   4.450 -0.8027  0.9376 -2.4155
18095TIP3   OH275775   4.658   1.130  12.334  0.0367 -0.0385  0.2850
18095TIP3    H175776   4.572   1.100  12.303  0.2669 -0.1817 -0.2250
18095TIP3    H275777   4.646   1.224  12.350 -0.4312 -0.2158  0.9993
18096TIP3   OH275778   1.424   0.554  14.284 -0.1720  0.2979 -0.6050
18096TIP3    H175779   1.426   0.650  14.278 -2.7736  0.3280 -1.7618
18096TIP3    H275780   1.511   0.526  14.257  0.2853  2.2919 -1.2606
18097TIP3   OH275781   0.007   6.060   0.594  0.2956 -0.1075 -0.3276
18097TIP3    H175782   0.004   6.086   0.686  1.1836 -0.0335 -0.3154
18097TIP3    H275783  -0.025   6.136   0.546 -2.2280 -0.8769  0.0386
18098TIP3   OH275784   4.699   4.897  12.912  0.5513 -0.0467 -0.4356
18098TIP3    H175785   4.711   4.928  13.001  2.4684  2.3795 -1.4873
18098TIP3    H275786   4.669   4.807  12.922  0.5299  0.2476  2.6414
18099TIP3   OH275787   6.076   6.609   2.958  0.1808 -0.2072  0.2024
18099TIP3    H175788   5.991   6.563   2.956 -1.0160  1.8422  1.7975
18099TIP3    H275789   6.135   6.548   3.002 -0.9879 -0.8439  0.9094
18100TIP3   OH275790   2.803   3.463   4.127 -0.1586 -0.3112 -0.1146
18100TIP3    H175791   2.863   3.396   4.093 -0.8353 -0.0824 -1.7950
18100TIP3    H275792   2.753   3.417   4.195 -0.9517 -1.6852 -1.5760
18101TIP3   OH275793   1.217   3.858  11.780  0.1098 -0.7664  0.4053
18101TIP3    H175794   1.289   3.822  11.832  0.6207  0.7407  0.7422
18101TIP3    H275795   1.193   3.939  11.824 -0.2071 -0.0546 -1.0649
18102TIP3   OH275796   4.100   4.878   4.078 -0.0705  0.3842  0.5539
18102TIP3    H175797   4.150   4.856   4.157  0.6441 -0.0756 -0.0174
18102TIP3    H275798   4.009   4.869   4.104  0.1193  1.7316  1.7714
18103TIP3   OH275799   6.723   4.228  17.001  0.0285  1.2577  0.0316
18103TIP3    H175800   6.779   4.269  17.067 -1.2884 -0.0826  2.0131
18103TIP3    H275801   6.637   4.224  17.041 -0.3382 -1.4712 -0.9265
18104TIP3   OH275802   2.235   5.229   5.036  0.4680  0.5644  0.4810
18104TIP3    H175803   2.215   5.146   4.992  0.4359  0.8102  0.0327
18104TIP3    H275804   2.195   5.220   5.123 -0.1646  0.3948  0.1788
18105TIP3   OH275805   2.786   1.759   1.159  0.1731  0.2587  0.1170
18105TIP3    H175806   2.740   1.759   1.075 -0.5132 -1.3008  0.4826
18105TIP3    H275807   2.847   1.685   1.154 -0.3257 -0.2392  1.2314
18106TIP3   OH275808   6.560   5.751   3.274 -0.4950  0.7228  0.6736
18106TIP3    H175809   6.497   5.803   3.225 -1.1493 -1.4229 -0.8576
18106TIP3    H275810   6.512   5.723   3.353 -1.1312 -0.0412  0.0212
18107TIP3   OH275811   3.339   3.710  16.706 -0.1734  0.0918  0.3623
18107TIP3    H175812   3.313   3.646  16.771  0.5622  1.7647  2.3455
18107TIP3    H275813   3.256   3.743  16.670 -0.6002 -0.2062  1.0722
18108TIP3   OH275814   0.157   2.189  16.404  0.1550 -0.3040  0.1490
18108TIP3    H175815   0.110   2.190  16.321 -0.3481 -0.5030  0.4328
18108TIP3    H275816   0.094   2.158  16.468  0.7221 -0.7393  0.5054
18109TIP3   OH275817   3.956   3.323   2.181 -0.5326  0.3265  0.0009
18109TIP3    H175818   3.996   3.244   2.144 -2.5495 -0.1728 -1.2443
18109TIP3    H275819   3.959   3.386   2.109 -0.7419  0.7128  0.3337
18110TIP3   OH275820   0.455   5.458   2.430  0.2398 -0.3104 -0.0343
18110TIP3    H175821   0.491   5.386   2.483  2.0077  0.7911  0.2799
18110TIP3    H275822   0.361   5.456   2.450  0.3905 -1.9763  0.6405
18111TIP3   OH275823   5.273   4.516   0.147  0.6728 -0.3131 -0.4168
18111TIP3    H175824   5.199   4.577   0.149  1.4540  0.6529 -0.3446
18111TIP3    H275825   5.288   4.493   0.238  0.0879 -0.9935 -0.4809
18112TIP3   OH275826   2.151   6.266  17.167 -0.4108  0.2257 -0.2707
18112TIP3    H175827   2.072   6.298  17.211  0.5846  1.8965  0.3551
18112TIP3    H275828   2.126   6.260  17.075 -1.4759  0.0815  0.0226
18113TIP3   OH275829   3.084   1.519   6.165 -0.0890  0.0226 -0.5885
18113TIP3    H175830   3.023   1.473   6.221 -0.6100  0.1240 -1.0716
18113TIP3    H275831   3.131   1.578   6.224 -0.1345 -0.3832 -0.1448
18114TIP3   OH275832   2.026   3.976  12.800 -0.0245  0.2041  0.4658
18114TIP3    H175833   2.041   4.061  12.842 -3.0161  0.5403  0.9880
18114TIP3    H275834   2.025   3.913  12.871  1.5122 -0.1905  0.1513
18115TIP3   OH275835   1.484   0.282  16.122 -0.3592  0.1240 -0.5484
18115TIP3    H175836   1.443   0.357  16.164 -2.8205 -2.7843  2.5083
18115TIP3    H275837   1.575   0.308  16.109 -0.8143  3.1027  1.6967
18116TIP3   OH275838   4.592   2.891  13.277  0.2332 -0.6911  0.5473
18116TIP3    H175839   4.648   2.917  13.350  1.7950  0.1082 -0.8903
18116TIP3    H275840   4.638   2.817  13.237 -1.1632 -1.8338  1.0042
18117TIP3   OH275841   3.788   2.664  10.939 -0.4242 -0.1808  0.4357
18117TIP3    H175842   3.819   2.678  11.029 -0.6720  0.4531  0.4279
18117TIP3    H275843   3.756   2.750  10.912  0.0628 -0.2649 -0.4224
18118TIP3   OH275844   6.102   1.817   3.285 -0.4982 -0.5626  0.3906
18118TIP3    H175845   6.159   1.834   3.210  0.2277  1.1840  1.3165
18118TIP3    H275846   6.117   1.725   3.307  2.0417 -0.1002  0.6879
18119TIP3   OH275847   3.878   1.919  14.321  0.3403  0.2300 -0.1330
18119TIP3    H175848   3.812   1.901  14.254  0.7171 -0.3870 -0.3451
18119TIP3    H275849   3.869   2.013  14.339 -0.2583  0.2507 -0.5144
18120TIP3   OH275850   0.481   5.066  14.975  0.3242  0.1201  0.5529
18120TIP3    H175851   0.535   5.057  14.896  0.7284  1.0307  0.7214
18120TIP3    H275852   0.419   5.137  14.954  1.3292  1.3131  1.5432
18121TIP3   OH275853   5.017   2.964   3.039 -0.2949 -0.1341  0.0120
18121TIP3    H175854   4.960   2.957   3.116 -3.1908  0.8404 -1.9418
18121TIP3    H275855   5.046   3.055   3.039 -0.3626 -0.1134 -0.1160
18122TIP3   OH275856   1.178   4.154  10.268  0.4576 -0.3970 -0.1039
18122TIP3    H175857   1.233   4.232  10.268  0.8925 -0.6785 -2.0426
18122TIP3    H275858   1.228   4.089  10.317 -0.5759  0.9559  2.8482
18123TIP3   OH275859   3.172   6.212  15.541 -0.2330 -0.1895 -0.3034
18123TIP3    H175860   3.133   6.146  15.598  0.1927 -0.3261 -0.1653
18123TIP3    H275861   3.253   6.238  15.586 -0.6932  0.8611 -0.0581
18124TIP3   OH275862   2.925   0.129   0.649  0.0712  0.1377 -0.1268
18124TIP3    H175863   2.849   0.184   0.630  0.4184  0.8449  0.4843
18124TIP3    H275864   2.957   0.161   0.734  0.3495 -0.9365  0.1737
18125TIP3   OH275865   5.997   0.220   3.946 -0.4022  0.4249 -0.0160
18125TIP3    H175866   6.064   0.285   3.926 -0.1488  0.2111  0.1292
18125TIP3    H275867   6.044   0.137   3.949 -0.0975  0.6315  3.0814
18126TIP3   OH275868   2.166   6.802   3.237  0.6520  0.4600  0.2902
18126TIP3    H175869   2.119   6.740   3.182  0.0442  1.8031 -0.7524
18126TIP3    H275870   2.175   6.758   3.321 -0.2531 -0.8053 -0.2569
18127TIP3   OH275871   3.126   3.967  17.253  0.6742 -0.0974  0.0850
18127TIP3    H175872   3.215   3.971  17.220  0.1044 -0.0013 -1.4917
18127TIP3    H275873   3.132   4.000  17.343  2.1708  0.1853 -0.1063
18128TIP3   OH275874   3.900   4.990   3.655 -0.1554 -0.4611 -0.4548
18128TIP3    H175875   3.892   4.901   3.688 -1.2532 -0.2598 -0.1387
18128TIP3    H275876   3.823   5.001   3.599  0.4937 -0.0392 -1.2714
18129TIP3   OH275877   4.437   1.903   3.538 -0.3160  0.5613  0.2428
18129TIP3    H175878   4.353   1.943   3.558 -0.7306 -0.1478 -0.0617
18129TIP3    H275879   4.474   1.881   3.624 -0.8813 -0.0245  0.3373
18130TIP3   OH275880   4.135   3.621   3.258  0.4165  0.0192  0.0499
18130TIP3    H175881   4.228   3.602   3.272  0.2587 -0.3622  0.5720
18130TIP3    H275882   4.109   3.564   3.186  1.0952  1.6029 -1.5019
18131TIP3   OH275883   0.363   3.927   3.235  0.0930  0.4451  0.3728
18131TIP3    H175884   0.290   3.865   3.224  0.0913  0.4654  0.2727
18131TIP3    H275885   0.441   3.871   3.235  0.1895  0.5580 -0.9854
18132TIP3   OH275886   3.197   1.201   0.062  0.0906  0.7932  0.6930
18132TIP3    H175887   3.104   1.221   0.076 -1.0804 -3.1862 -0.5384
18132TIP3    H275888   3.205   1.108   0.086  3.2316  0.4186 -1.5108
18133TIP3   OH275889   3.803   0.624   0.986  0.2170 -0.2170 -0.4208
18133TIP3    H175890   3.710   0.623   0.960  0.9497 -0.3063 -3.2621
18133TIP3    H275891   3.801   0.614   1.081 -2.7440  1.1623 -0.2530
18134TIP3   OH275892   2.692   2.120   0.844  0.2348 -0.7770 -0.9957
18134TIP3    H175893   2.745   2.170   0.781  1.5412 -0.4130  0.3818
18134TIP3    H275894   2.689   2.175   0.922  2.2705 -3.1131  0.7981
18135TIP3   OH275895   0.977   5.427   2.290 -0.2288 -0.1933  0.3084
18135TIP3    H175896   1.015   5.374   2.360 -0.5255  0.2292  0.8004
18135TIP3    H275897   0.891   5.388   2.274  0.3944 -1.1273 -0.7770
18136TIP3   OH275898   0.271   4.743   3.802 -0.0558  0.5656  0.1682
18136TIP3    H175899   0.287   4.729   3.709  1.1244 -1.8016  0.6867
18136TIP3    H275900   0.178   4.725   3.814 -0.1119  0.4322 -0.4607
18137TIP3   OH275901   1.254   1.585   5.354 -0.1833 -0.4313 -0.2024
18137TIP3    H175902   1.301   1.614   5.275  0.6689 -0.7065  0.2010
18137TIP3    H275903   1.200   1.512   5.324 -2.1242  1.3296 -1.1677
18138TIP3   OH275904   1.791   2.069   3.550  0.2041 -0.2468  0.4049
18138TIP3    H175905   1.852   2.002   3.521  1.5085  0.2986  1.8154
18138TIP3    H275906   1.711   2.021   3.572 -0.2965 -0.8432 -2.4570
18139TIP3   OH275907   6.724   1.742  15.458  0.2693  0.2519  0.0081
18139TIP3    H175908   6.691   1.658  15.490 -2.8556  1.6019  0.6245
18139TIP3    H275909   6.699   1.805  15.526  2.4027  1.7271 -0.5088
18140TIP3   OH275910   2.290   0.040   4.260 -0.8981  0.3950  0.5801
18140TIP3    H175911   2.308  -0.010   4.180 -0.3873  0.3173  0.7370
18140TIP3    H275912   2.356   0.110   4.259 -0.7644  0.2782  1.0286
18141TIP3   OH275913   4.810   2.604  12.235 -0.1199 -0.2860 -0.1020
18141TIP3    H175914   4.884   2.545  12.250  0.6942  0.0859 -2.5491
18141TIP3    H275915   4.835   2.685  12.279  0.9133 -0.1625 -0.9148
18142TIP3   OH275916   1.706   1.325   1.595  0.0311  0.0121 -0.3041
18142TIP3    H175917   1.750   1.318   1.680 -0.4675  1.6640  0.0969
18142TIP3    H275918   1.675   1.236   1.577  0.7945 -0.5076  0.8803
18143TIP3   OH275919   0.431   6.063   5.194  0.4913 -0.4001  0.4223
18143TIP3    H175920   0.525   6.042   5.187  0.5166 -0.2247  0.2415
18143TIP3    H275921   0.398   6.001   5.258  1.2511  1.2508  2.4500
18144TIP3   OH275922   2.836   2.621  16.431 -0.0364 -0.5406 -0.0081
18144TIP3    H175923   2.931   2.610  16.428 -0.0904 -0.8894 -0.5415
18144TIP3    H275924   2.817   2.687  16.366 -0.2717 -1.3101 -0.7349
18145TIP3   OH275925   0.492   4.775  15.436 -0.2878  0.2019 -0.3309
18145TIP3    H175926   0.466   4.867  15.431  1.6500  0.6809 -2.3166
18145TIP3    H275927   0.455   4.735  15.357 -0.9943 -0.6929  0.4492
18146TIP3   OH275928   6.497   5.142  16.419 -0.1604 -0.6758  0.0831
18146TIP3    H175929   6.542   5.195  16.354  1.4693 -0.0213  1.6937
18146TIP3    H275930   6.561   5.132  16.490 -1.2003 -3.0130  0.7240
18147TIP3   OH275931   0.914   5.127   3.932  0.2501  0.5496 -0.0027
18147TIP3    H175932   0.840   5.067   3.924  0.9887 -0.3198 -0.2921
18147TIP3    H275933   0.874   5.209   3.963 -0.7522 -0.0813  0.4097
18148TIP3   OH275934   0.024   3.617  14.198  0.2301 -0.1869  0.4693
18148TIP3    H175935   0.096   3.679  14.187  1.0616 -1.3133 -0.6903
18148TIP3    H275936  -0.055   3.669  14.190  0.9132  0.8788  0.5739
18149TIP3   OH275937   1.317   1.418  16.092 -0.2378 -0.1943  0.0550
18149TIP3    H175938   1.355   1.495  16.049 -0.4855 -0.7076 -1.1136
18149TIP3    H275939   1.280   1.367  16.020  1.8732 -2.5066  0.5573
18150TIP3   OH275940   4.579   5.862   2.277 -0.3681 -0.5923 -0.0458
18150TIP3    H175941   4.569   5.872   2.183  1.5993 -0.4698 -0.2563
18150TIP3    H275942   4.515   5.923   2.315  0.3241  0.9220 -1.2937
18151TIP3   OH275943   4.717   3.507   2.038 -0.4388  0.4149 -0.4741
18151TIP3    H175944   4.642   3.498   1.979 -0.6820 -0.5717 -0.0082
18151TIP3    H275945   4.789   3.463   1.992 -1.3497 -3.0764  1.2796
18152TIP3   OH275946   0.655   5.374  11.026  0.6002 -0.1225 -0.0334
18152TIP3    H175947   0.721   5.405  11.089 -0.8777 -1.0057  1.9853
18152TIP3    H275948   0.705   5.321  10.964  1.8833 -0.3698  1.1832
18153TIP3   OH275949   6.045   3.122   1.791 -0.1300  0.0596  0.0967
18153TIP3    H175950   5.963   3.074   1.793  0.1291 -0.3574  2.4143
18153TIP3    H275951   6.071   3.122   1.699 -1.2115 -2.3983 -0.2497
18154TIP3   OH275952   6.733   3.148  10.894  0.7635  0.3793 -0.6227
18154TIP3    H175953   6.681   3.086  10.843  2.7424 -0.3359 -1.8173
18154TIP3    H275954   6.792   3.188  10.830  1.6022  1.2752  0.6867
18155TIP3   OH275955   2.037   0.341   2.348  0.5651  0.2669 -0.2843
18155TIP3    H175956   2.017   0.250   2.371 -0.7833  1.1691  2.2619
18155TIP3    H275957   1.974   0.363   2.279 -0.0591 -0.2766  0.1095
18156TIP3   OH275958   4.460   5.459   0.076 -0.2970 -0.1409 -0.0929
18156TIP3    H175959   4.479   5.530   0.137 -1.1701 -0.7194  0.8696
18156TIP3    H275960   4.371   5.476   0.047 -0.0942 -0.2041 -0.7653
18157TIP3   OH275961   4.727   5.631  10.814 -0.4268  0.4681 -0.0578
18157TIP3    H175962   4.661   5.697  10.836 -0.9559  0.0090 -0.2602
18157TIP3    H275963   4.761   5.659  10.728  0.1817  1.1193  0.3868
18158TIP3   OH275964   1.034   2.596  15.132 -0.8946  0.2786  0.2954
18158TIP3    H175965   1.071   2.598  15.220  0.1176  1.3551 -0.1428
18158TIP3    H275966   1.087   2.532  15.085 -1.1585  0.0232  0.3430
18159TIP3   OH275967   0.855   4.754   5.267 -0.4052  0.0536 -0.2462
18159TIP3    H175968   0.830   4.664   5.247 -1.7352  0.3553 -0.0312
18159TIP3    H275969   0.776   4.793   5.304 -0.2545  1.6970 -1.5690
18160TIP3   OH275970   1.493   2.824   4.550 -0.4774 -0.1021  0.0122
18160TIP3    H175971   1.408   2.827   4.594  0.5381  1.7341  1.8834
18160TIP3    H275972   1.527   2.913   4.557  1.2673 -0.6292 -1.4436
18161TIP3   OH275973   5.453   6.806  15.310  0.3224  0.3632 -0.0125
18161TIP3    H175974   5.470   6.875  15.375 -0.8748  2.2164 -1.6138
18161TIP3    H275975   5.540   6.784  15.276  0.7477  0.8432  0.7301
18162TIP3   OH275976   1.150   5.860   0.800  0.0029  0.2858  0.2143
18162TIP3    H175977   1.225   5.918   0.786  0.9607 -0.7952  0.7826
18162TIP3    H275978   1.102   5.900   0.873  0.8164  0.2189  0.7953
18163TIP3   OH275979   2.985   1.447   0.351  0.3102 -0.1599  0.1244
18163TIP3    H175980   2.957   1.516   0.290  1.1913 -0.8930 -1.1285
18163TIP3    H275981   3.021   1.494   0.426 -2.2792  0.7837  0.8435
18164TIP3   OH275982   0.493   6.336   0.402  0.0847 -0.2957  0.0387
18164TIP3    H175983   0.561   6.269   0.399  0.3287 -0.0052 -1.0168
18164TIP3    H275984   0.427   6.300   0.461 -0.6860 -2.3221 -1.9711
18165TIP3   OH275985   4.237   2.243  14.493  0.0891 -0.3234 -0.2936
18165TIP3    H175986   4.222   2.247  14.587 -0.4317 -1.8781 -0.2921
18165TIP3    H275987   4.223   2.332  14.462 -0.3189  0.0735  1.0237
18166TIP3   OH275988   5.077   1.016  10.975 -0.2869  0.2919 -0.5300
18166TIP3    H175989   5.142   0.958  10.935 -2.4550 -1.3108 -1.9081
18166TIP3    H275990   5.127   1.074  11.031  1.8500 -4.2876  2.5968
18167TIP3   OH275991   6.517   4.872   6.044  0.6884 -0.2702  0.5078
18167TIP3    H175992   6.446   4.909   6.096  0.4320 -0.6113  0.3987
18167TIP3    H275993   6.581   4.843   6.108  0.7668  0.1120  0.6035
18168TIP3   OH275994   0.236   6.184   2.844  0.1323 -0.0366  0.1689
18168TIP3    H175995   0.230   6.252   2.911 -0.1628 -0.0012  0.1062
18168TIP3    H275996   0.295   6.221   2.778  1.2284 -0.4775  0.8885
18169TIP3   OH275997   1.087   4.670   5.054 -0.0983  0.2576 -0.1584
18169TIP3    H175998   1.032   4.720   5.115 -1.3013 -1.2665  0.0251
18169TIP3    H275999   1.089   4.582   5.091  1.9913  0.1509 -0.4929
18170TIP3   OH276000   2.351   2.924  16.363  0.2478  0.2564 -0.0624
18170TIP3    H176001   2.405   2.870  16.420  0.2127  0.9337  0.6234
18170TIP3    H276002   2.292   2.971  16.422 -0.9647 -0.3194 -0.7765
18171TIP3   OH276003   4.356   4.091   4.886  1.1045 -0.3610 -0.0467
18171TIP3    H176004   4.409   4.131   4.817  1.6081 -1.2173 -0.1534
18171TIP3    H276005   4.409   4.019   4.919 -0.2708 -1.6521 -0.6198
18172TIP3   OH276006   3.871   4.718   1.146  0.3759 -0.2687  0.6213
18172TIP3    H176007   3.919   4.773   1.084 -0.0761  0.8291  1.2348
18172TIP3    H276008   3.926   4.717   1.224  0.9526 -1.6655  0.2261
18173TIP3   OH276009   2.969   5.602   5.515  0.4591 -0.5431 -0.6772
18173TIP3    H176010   2.893   5.660   5.504  0.9756  0.7512  2.0598
18173TIP3    H276011   3.045   5.661   5.506  1.0080 -0.9432  1.0571
18174TIP3   OH276012   6.609   4.954  15.163 -0.1470 -0.4403  0.2547
18174TIP3    H176013   6.543   4.951  15.231 -0.8721  2.3194 -0.2513
18174TIP3    H276014   6.560   4.945  15.081  0.3904 -0.9058 -0.0219
18175TIP3   OH276015   6.585   4.098   4.572  0.2233 -0.2096  0.1051
18175TIP3    H176016   6.561   4.176   4.622 -1.0997 -0.7978  0.4216
18175TIP3    H276017   6.680   4.104   4.561  0.3061  0.7771  1.2531
18176TIP3   OH276018   3.389   6.680   4.087 -0.0092 -0.4944 -0.0807
18176TIP3    H176019   3.351   6.592   4.084 -1.1663 -0.0061 -0.0843
18176TIP3    H276020   3.411   6.694   4.179  0.8780 -1.0756 -0.2005
18177TIP3   OH276021   2.542   4.389  17.118 -0.1730 -0.5038  0.1421
18177TIP3    H176022   2.635   4.401  17.138 -0.0845  0.4163 -0.7841
18177TIP3    H276023   2.507   4.344  17.195  0.7212  0.5098  1.1612
18178TIP3   OH276024   5.422   4.605  15.137 -0.2840  0.0039 -0.1361
18178TIP3    H176025   5.373   4.565  15.065 -1.7904 -0.4243  1.1076
18178TIP3    H276026   5.465   4.532  15.181 -0.2703  0.1451  0.0860
18179TIP3   OH276027   5.354   3.921  16.310  0.1570 -0.3593 -0.0686
18179TIP3    H176028   5.418   3.932  16.240 -1.1451 -0.3945 -1.2832
18179TIP3    H276029   5.287   3.986  16.292 -0.8834 -1.2986  0.3573
18180TIP3   OH276030   4.346   2.028   4.987 -0.1480 -0.0424 -0.5069
18180TIP3    H176031   4.285   2.046   4.915 -0.2333 -2.9772 -1.2159
18180TIP3    H276032   4.289   2.015   5.063 -0.0711  2.7614  0.0906
18181TIP3   OH276033   3.287   6.000  11.234 -0.1397 -0.3347  0.0303
18181TIP3    H176034   3.243   5.915  11.234  0.0426 -0.4418 -1.0620
18181TIP3    H276035   3.236   6.053  11.172  0.5918 -0.1071 -0.3811
18182TIP3   OH276036   5.851   2.111   5.583  0.8901 -0.0684 -0.8970
18182TIP3    H176037   5.840   2.120   5.489 -1.3760 -0.0117 -0.6633
18182TIP3    H276038   5.893   2.026   5.594 -0.3504 -0.8287 -1.8978
18183TIP3   OH276039   6.686   5.618  12.492  0.5777 -0.0262  0.1654
18183TIP3    H176040   6.667   5.693  12.435 -0.4913  0.0221  0.5739
18183TIP3    H276041   6.781   5.622  12.506  0.5456  1.1994  0.1101
18184TIP3   OH276042   6.199   0.911  16.504 -0.4933  0.1182  0.3273
18184TIP3    H176043   6.283   0.948  16.477 -0.3725  1.0635  1.9059
18184TIP3    H276044   6.134   0.956  16.450 -0.1710  1.1704  0.7994
18185TIP3   OH276045   3.410   5.921   5.321 -0.0460  0.3276  0.3595
18185TIP3    H176046   3.388   5.848   5.379 -0.2625  0.4175  0.3921
18185TIP3    H276047   3.365   5.901   5.239 -1.1458  1.0519  0.7729
18186TIP3   OH276048   3.334   5.748   5.824 -0.1920  0.1796  0.5482
18186TIP3    H176049   3.360   5.754   5.916  1.6725 -1.8027  0.1724
18186TIP3    H276050   3.414   5.765   5.774 -1.1015  0.8583 -0.7306
18187TIP3   OH276051   4.975   2.255   5.843  0.7174 -0.1941  0.2374
18187TIP3    H176052   4.894   2.295   5.871 -0.1991 -1.0672 -1.0905
18187TIP3    H276053   4.963   2.161   5.859  2.1682 -0.1614  1.7128
18188TIP3   OH276054   5.062   5.695   2.266  0.1969  0.7743  0.0751
18188TIP3    H176055   5.011   5.771   2.240  1.0460  1.0325 -0.8659
18188TIP3    H276056   5.135   5.692   2.203  0.7024 -0.2437  0.6936
18189TIP3   OH276057   5.467   3.477  15.768 -0.0579  0.1925 -0.1576
18189TIP3    H176058   5.484   3.531  15.845  1.2691  0.1004 -0.3752
18189TIP3    H276059   5.549   3.480  15.717  0.0992 -2.0791 -0.1262
18190TIP3   OH276060   0.365   1.895   0.802  0.0026  0.4907  0.0192
18190TIP3    H176061   0.412   1.875   0.883 -1.0692 -1.1815  0.2342
18190TIP3    H276062   0.310   1.819   0.786  0.5250  0.6147 -2.5334
18191TIP3   OH276063   3.797   0.638  14.384  0.7934 -0.8590 -0.5448
18191TIP3    H176064   3.816   0.716  14.332  2.9338 -1.9297 -1.4494
18191TIP3    H276065   3.839   0.655  14.469  1.1412 -0.9694 -0.6944
18192TIP3   OH276066   1.336   0.440  11.568  0.6480  0.5743 -0.4169
18192TIP3    H176067   1.306   0.357  11.606  0.2956  0.9481  0.1227
18192TIP3    H276068   1.351   0.419  11.475 -0.9591  0.2830 -0.6309
18193TIP3   OH276069   2.571   4.819  16.209  0.5158  1.0790 -0.0996
18193TIP3    H176070   2.625   4.881  16.160  1.2062  1.4326  1.0978
18193TIP3    H276071   2.632   4.776  16.268 -0.0416 -0.4192 -0.5859
18194TIP3   OH276072   4.036   3.790   4.751  0.2291 -0.3397 -0.5031
18194TIP3    H176073   4.083   3.827   4.826  0.5361 -1.0119 -0.3694
18194TIP3    H276074   4.064   3.699   4.746  0.2378 -0.2939 -1.4620
18195TIP3   OH276075   1.944   3.396  12.053  0.3439 -0.1934 -0.5389
18195TIP3    H176076   1.878   3.375  12.119  0.1385  1.9678 -0.0160
18195TIP3    H276077   1.894   3.410  11.972  0.2008  0.7243 -0.3059
18196TIP3   OH276078   1.897   3.778   2.572  0.3683  0.1963  0.0529
18196TIP3    H176079   1.814   3.798   2.615 -0.5776 -0.5144 -1.3951
18196TIP3    H276080   1.959   3.768   2.643 -0.7283  1.0086  1.1443
18197TIP3   OH276081   0.756   5.833   2.105 -0.4936  0.5520  0.2560
18197TIP3    H176082   0.777   5.842   2.198  0.6398  1.4842 -0.0765
18197TIP3    H276083   0.755   5.922   2.072  0.0488  0.1707 -0.8198
18198TIP3   OH276084   0.043   0.382  10.683  0.0894 -0.0721  0.1428
18198TIP3    H176085   0.106   0.410  10.749 -1.1910  0.8239  1.0007
18198TIP3    H276086   0.096   0.335  10.618  1.2532 -1.7052  2.2051
18199TIP3   OH276087   6.501   2.022  11.755  0.1968  0.2948  0.8265
18199TIP3    H176088   6.535   1.943  11.797 -1.3525 -0.1877  1.1798
18199TIP3    H276089   6.568   2.044  11.690  0.8461 -1.0628  1.0100
18200TIP3   OH276090   4.853   2.577   3.925  0.1657 -0.2038 -0.3620
18200TIP3    H176091   4.896   2.500   3.963 -0.1016  0.3158  1.0244
18200TIP3    H276092   4.880   2.577   3.833 -0.5838 -2.5005 -0.6201
18201TIP3   OH276093   6.798   4.695  12.345  0.1568 -0.4317  0.1406
18201TIP3    H176094   6.784   4.601  12.345 -1.8641 -0.1926 -2.8196
18201TIP3    H276095   6.710   4.732  12.343  0.8781  1.5869  2.6324
18202TIP3   OH276096   2.095   5.849  11.723  0.3230  0.1188  0.1990
18202TIP3    H176097   2.158   5.777  11.719 -0.7378 -0.8308  0.4280
18202TIP3    H276098   2.071   5.855  11.815  0.2648  0.6438  0.1509
18203TIP3   OH276099   6.517   0.809  13.289 -0.4083  0.3069 -0.2274
18203TIP3    H176100   6.437   0.860  13.276 -0.1179  0.4923 -1.3499
18203TIP3    H276101   6.510   0.737  13.227 -0.4965 -0.6423  0.8839
18204TIP3   OH276102   2.918   5.086  15.724  0.6266  0.1713  0.1894
18204TIP3    H176103   2.896   5.026  15.652 -0.8626 -0.6206  1.2666
18204TIP3    H276104   2.969   5.032  15.784  2.4395  1.0139 -0.5578
18205TIP3   OH276105   1.129   2.647   2.182 -0.4026  0.0414 -0.0600
18205TIP3    H176106   1.221   2.670   2.165 -0.2249 -0.9700 -0.4976
18205TIP3    H276107   1.080   2.693   2.114 -0.1067 -0.4383 -0.5908
18206TIP3   OH276108   0.437   1.383   0.959 -0.1456  0.4262  0.0673
18206TIP3    H176109   0.394   1.399   1.044 -0.3852 -0.3918  0.1079
18206TIP3    H276110   0.497   1.456   0.948  2.3564 -1.1353  2.5264
18207TIP3   OH276111   1.426   1.237  10.843 -0.4871 -0.4192 -0.0762
18207TIP3    H176112   1.332   1.221  10.836 -0.3939 -0.4855 -1.3486
18207TIP3    H276113   1.442   1.313  10.788 -0.0560  0.6760  1.5373
18208TIP3   OH276114   3.397   1.940  13.828  0.0985 -0.9837  0.4764
18208TIP3    H176115   3.357   1.861  13.792 -2.7920  0.2684  0.7759
18208TIP3    H276116   3.344   1.960  13.905  0.1314  1.8017 -0.1888
18209TIP3   OH276117   5.858   4.093  14.224 -0.0836  0.5638 -0.0807
18209TIP3    H176118   5.813   4.083  14.308 -0.7898 -3.2039 -0.8089
18209TIP3    H276119   5.950   4.074  14.244  0.4514  3.4978  0.4964
18210TIP3   OH276120   4.320   2.475   3.855 -0.4739  0.1685  0.3648
18210TIP3    H176121   4.409   2.504   3.875  0.0630  0.6110 -2.3763
18210TIP3    H276122   4.278   2.553   3.817 -1.5972 -0.4340  0.3472
18211TIP3   OH276123   6.547   4.301  14.148 -0.4738  0.3207 -0.5609
18211TIP3    H176124   6.519   4.294  14.056  0.1172  1.6180 -0.8411
18211TIP3    H276125   6.629   4.351  14.145  1.6964 -3.0003  0.2981
18212TIP3   OH276126   5.984   5.132   0.803  0.1001  0.2781  0.6865
18212TIP3    H176127   6.047   5.204   0.812  1.1627 -0.4752 -0.4939
18212TIP3    H276128   5.911   5.157   0.860  1.1862  1.4774  1.6053
18213TIP3   OH276129   5.818   6.116  15.113  0.5317 -0.3802  0.7307
18213TIP3    H176130   5.797   6.175  15.040 -0.1263 -0.7699  0.6129
18213TIP3    H276131   5.802   6.028  15.079 -0.6508 -0.5241  1.6309
18214TIP3   OH276132   4.133   2.728  14.308 -0.1836  0.0599 -0.5107
18214TIP3    H176133   4.152   2.809  14.354 -0.0577 -0.6095  0.6198
18214TIP3    H276134   4.119   2.755  14.217  1.2311  1.1651 -0.4083
18215TIP3   OH276135   6.063   2.194  12.140 -0.0096  0.1987 -0.1005
18215TIP3    H176136   6.121   2.130  12.182  1.0714  1.4012  0.2794
18215TIP3    H276137   6.089   2.278  12.177 -1.6859  0.8269 -0.3015
18216TIP3   OH276138   4.459   4.031  11.032 -0.3412  1.0715 -0.6061
18216TIP3    H176139   4.410   4.066  11.107  0.9340 -1.5657  1.5807
18216TIP3    H276140   4.395   3.979  10.984 -0.1732 -0.9783  1.2892
18217TIP3   OH276141   6.247   2.254  11.454  0.1246 -0.1724  0.5505
18217TIP3    H176142   6.156   2.270  11.479  0.3925  0.1064  1.3487
18217TIP3    H276143   6.255   2.159  11.451 -0.1100 -0.1993  0.8060
18218TIP3   OH276144   4.412   0.767   3.477  0.1534 -0.1890 -0.3907
18218TIP3    H176145   4.433   0.674   3.483 -0.0863 -0.2331 -0.2711
18218TIP3    H276146   4.460   0.807   3.550  0.5463 -0.1671 -0.6553
18219TIP3   OH276147   3.839   2.558   1.113  0.4344  0.0813  0.2788
18219TIP3    H176148   3.900   2.627   1.139 -0.8987  1.7657 -0.9512
18219TIP3    H276149   3.768   2.564   1.178 -1.7226  2.7032 -2.1735
18220TIP3   OH276150   3.519   5.477   0.186 -0.8916 -0.3620 -0.6670
18220TIP3    H176151   3.435   5.501   0.224 -0.0298  3.5703 -0.9708
18220TIP3    H276152   3.578   5.549   0.212  1.5489 -1.3792 -3.1481
18221TIP3   OH276153   5.556   5.872   4.134 -0.2759 -0.0972 -0.0689
18221TIP3    H176154   5.588   5.871   4.225  0.9927  1.2011 -0.4832
18221TIP3    H276155   5.633   5.891   4.081 -1.6005  2.6804 -1.1293
18222TIP3   OH276156   0.487   4.416  11.473  0.1858 -0.0464 -0.3295
18222TIP3    H176157   0.545   4.343  11.451 -0.4678 -0.3700 -0.9708
18222TIP3    H276158   0.404   4.375  11.496  0.4432  0.3636  1.4017
18223TIP3   OH276159   4.910   5.832  14.912  0.1015  0.4645 -0.0203
18223TIP3    H176160   4.832   5.784  14.886 -0.2608  1.5203 -0.9119
18223TIP3    H276161   4.966   5.766  14.953 -1.3193 -0.2696  0.7805
18224TIP3   OH276162   6.182   6.810  11.561  0.3742 -0.0237  0.1797
18224TIP3    H176163   6.245   6.805  11.633  1.0703  0.9618 -0.3546
18224TIP3    H276164   6.187   6.900  11.530  0.1824 -0.4677 -1.1963
18225TIP3   OH276165   6.375   3.012  10.897  0.2446  0.0616 -0.7731
18225TIP3    H176166   6.441   3.005  10.828  0.3908  2.3762 -0.9144
18225TIP3    H276167   6.334   3.097  10.882 -1.2087 -0.3619  0.6919
18226TIP3   OH276168   4.688   3.291   5.236  0.6237 -0.2623 -0.3893
18226TIP3    H176169   4.659   3.241   5.312 -0.0671 -0.4281 -0.7560
18226TIP3    H276170   4.668   3.236   5.161  0.0908  0.4430 -0.7782
18227TIP3   OH276171   0.804   0.522  12.339  0.5086  0.2778 -0.1047
18227TIP3    H176172   0.856   0.549  12.264 -0.0937 -3.3556 -1.9827
18227TIP3    H276173   0.717   0.558  12.323  0.9090  1.2445 -0.0996
18228TIP3   OH276174   1.353   1.262   2.022  0.1662 -0.0167  0.2115
18228TIP3    H176175   1.428   1.245   2.079  0.3784  1.0850  0.2630
18228TIP3    H276176   1.389   1.312   1.949 -0.3297 -0.3728 -0.2836
18229TIP3   OH276177   4.642   3.261  16.926  0.1497  0.4427 -0.7247
18229TIP3    H176178   4.586   3.332  16.893  0.5816  0.8831 -0.5165
18229TIP3    H276179   4.631   3.190  16.863 -0.4592  0.6158 -0.8150
18230TIP3   OH276180   4.535   3.509  17.198 -0.2161 -0.0207 -0.3741
18230TIP3    H176181   4.606   3.453  17.167 -0.3383 -0.5934  0.3602
18230TIP3    H276182   4.484   3.453  17.256 -1.4009  0.3210 -1.0637
18231TIP3   OH276183   2.731   3.819   5.594  0.1935  0.1067 -0.1627
18231TIP3    H176184   2.724   3.746   5.656 -0.7768 -0.5157 -0.9921
18231TIP3    H276185   2.824   3.824   5.574  0.6642  0.9665  2.1168
18232TIP3   OH276186   0.466   1.050   3.423 -0.1579  0.2547  0.0867
18232TIP3    H176187   0.557   1.021   3.411 -0.4324 -0.0426 -1.4083
18232TIP3    H276188   0.470   1.112   3.496  1.0661 -0.5899  0.7549
18233TIP3   OH276189   4.847   4.429   5.552 -0.0707  0.1461  0.3964
18233TIP3    H176190   4.772   4.442   5.610  0.8332  3.4504  0.9596
18233TIP3    H276191   4.921   4.418   5.612  0.7318  2.6964 -0.0617
18234TIP3   OH276192   6.573   5.591  13.525  0.4415 -0.2285  0.5276
18234TIP3    H176193   6.602   5.581  13.434 -0.7372  0.6973  0.0284
18234TIP3    H276194   6.506   5.523  13.535  0.4369 -0.2053  0.6489
18235TIP3   OH276195   0.353   6.189  16.843  0.7902 -0.2273  0.1917
18235TIP3    H176196   0.404   6.270  16.842  1.4765 -0.5350  4.2840
18235TIP3    H276197   0.405   6.128  16.895 -2.0534 -1.7169  1.4083
18236TIP3   OH276198   2.808   0.083   5.092 -0.7181 -0.2550  0.2832
18236TIP3    H176199   2.816   0.110   5.000 -0.4379 -2.2987 -0.3205
18236TIP3    H276200   2.716   0.061   5.103 -0.7860  0.1532  0.5494
18237TIP3   OH276201   2.326   4.993   2.713 -0.2268  0.1097  0.0313
18237TIP3    H176202   2.353   4.908   2.748  0.9931  0.9677  1.2345
18237TIP3    H276203   2.243   5.010   2.756 -0.9296 -0.8769 -0.9040
18238TIP3   OH276204   6.542   4.630  13.074  0.2419  0.4014  0.1316
18238TIP3    H176205   6.541   4.535  13.063  0.1328  0.4226 -0.0574
18238TIP3    H276206   6.615   4.647  13.133 -2.5557 -0.2298  3.9467
18239TIP3   OH276207   6.297   6.281   6.485  0.3695 -0.0737  0.3047
18239TIP3    H176208   6.209   6.247   6.466  1.0595 -0.6346 -2.0931
18239TIP3    H276209   6.300   6.288   6.580 -2.2220 -0.1987  0.4350
18240TIP3   OH276210   1.189   6.250   6.208  0.3720  0.5869 -0.0461
18240TIP3    H176211   1.277   6.285   6.194  0.8563 -0.6245 -0.0487
18240TIP3    H276212   1.131   6.315   6.168  1.3314  0.8077 -1.0845
18241TIP3   OH276213   4.639   5.866  16.676  0.0387 -0.1364 -0.6473
18241TIP3    H176214   4.629   5.813  16.597 -1.9648 -1.3339  0.3465
18241TIP3    H276215   4.694   5.812  16.734 -0.7272 -0.4678 -0.2217
18242TIP3   OH276216   5.726   6.076  16.265  0.2730  0.2923 -0.3893
18242TIP3    H176217   5.656   6.032  16.216  0.9683  0.8389 -1.9180
18242TIP3    H276218   5.721   6.167  16.236  1.4776  0.3794 -0.3315
18243TIP3   OH276219   2.357   0.645  16.390 -0.1077 -0.3589 -0.1998
18243TIP3    H176220   2.431   0.584  16.397 -0.8980 -1.2593  0.4376
18243TIP3    H276221   2.392   0.720  16.342  1.1414 -0.9058 -0.1580
18244TIP3   OH276222   4.432   0.689   5.638  0.2437 -0.3920  0.2324
18244TIP3    H176223   4.515   0.641   5.630  0.6033  0.1136  0.9153
18244TIP3    H276224   4.459   0.780   5.646 -0.3823 -0.2370  0.5381
18245TIP3   OH276225   2.514   3.693  11.921  0.7800  0.0770 -0.1784
18245TIP3    H176226   2.550   3.626  11.863  1.7534  0.1842  0.2950
18245TIP3    H276227   2.583   3.710  11.985  0.0218  0.5452  0.5341
18246TIP3   OH276228   0.957   2.397  11.199  0.3942 -0.0211  0.1283
18246TIP3    H176229   0.958   2.374  11.292  1.2384  1.0326  0.3844
18246TIP3    H276230   0.905   2.328  11.158  0.7350 -0.9575  1.2557
18247TIP3   OH276231   3.782   0.528   5.400  0.3443  0.3336 -1.0890
18247TIP3    H176232   3.712   0.463   5.404  0.3771  0.3089 -0.9221
18247TIP3    H276233   3.758   0.584   5.326  0.0481  0.4417 -0.9103
18248TIP3   OH276234   2.063   5.413   4.882  0.0744  0.4431 -0.3096
18248TIP3    H176235   2.129   5.457   4.829  0.5125 -0.6698 -0.7005
18248TIP3    H276236   2.113   5.363   4.946 -0.4039 -0.1135 -0.3676
18249TIP3   OH276237   6.765   0.754   4.053  0.1784 -0.4666  0.3819
18249TIP3    H176238   6.670   0.763   4.047  0.2837 -0.2938 -1.0572
18249TIP3    H276239   6.780   0.733   4.146 -1.2543 -0.5200  0.6261
18250TIP3   OH276240   0.415   3.706  13.087 -0.3046 -0.2649 -0.0349
18250TIP3    H176241   0.380   3.719  13.175 -0.8190 -1.2016 -0.0954
18250TIP3    H276242   0.460   3.788  13.067  0.5518 -0.3525  1.4303
18251TIP3   OH276243   0.765   1.190   2.945 -0.0422  0.1868  0.1356
18251TIP3    H176244   0.748   1.196   3.039  0.3255  0.0702  0.2086
18251TIP3    H276245   0.717   1.112   2.917  0.5735 -0.2817  0.3884
18252TIP3   OH276246   2.600   5.174  15.604 -0.7090  0.5454  0.4560
18252TIP3    H176247   2.616   5.116  15.679 -0.6119  0.3886  0.3175
18252TIP3    H276248   2.551   5.120  15.543 -1.3914  0.8922  0.6980
18253TIP3   OH276249   4.547   2.758   2.916 -0.3984  0.3074  0.3599
18253TIP3    H176250   4.516   2.758   2.826 -1.2488  0.4427  0.6463
18253TIP3    H276251   4.544   2.666   2.943 -0.6544  0.3352  0.4242
18254TIP3   OH276252   5.778   0.487   4.241  0.4598 -0.6212  0.5531
18254TIP3    H176253   5.816   0.508   4.326  0.0561  2.5866  0.0280
18254TIP3    H276254   5.695   0.534   4.240  0.7280 -0.1271 -1.8237
18255TIP3   OH276255   5.875   2.083   4.245 -0.4070  0.3115 -0.0467
18255TIP3    H176256   5.934   2.063   4.317 -2.2235  1.2562  1.7345
18255TIP3    H276257   5.795   2.035   4.265 -0.8202  0.3067 -1.6324
18256TIP3   OH276258   4.000   5.705   1.247  0.1854  0.1610 -0.3430
18256TIP3    H176259   4.033   5.786   1.285 -0.2643  0.4270 -0.5183
18256TIP3    H276260   3.961   5.658   1.321  2.0889 -0.7473  0.1226
18257TIP3   OH276261   2.236   2.027   2.672 -0.2389 -0.2333 -0.0002
18257TIP3    H176262   2.230   2.091   2.602  0.3196  0.0537  0.2181
18257TIP3    H276263   2.160   2.045   2.728 -1.8745 -1.7801 -1.6291
18258TIP3   OH276264   5.821   3.840  13.125  0.6401 -0.4671  0.3923
18258TIP3    H176265   5.728   3.857  13.141  0.1498 -1.0297 -1.6983
18258TIP3    H276266   5.853   3.920  13.084  0.7969 -0.7031  0.0512
18259TIP3   OH276267   6.564   3.812   1.026 -0.6506 -0.5542  0.3281
18259TIP3    H176268   6.611   3.754   1.087 -0.7794 -1.4338 -0.4008
18259TIP3    H276269   6.619   3.814   0.948 -1.2668 -0.6901 -0.1132
18260TIP3   OH276270   2.113   3.228   5.468 -0.0140  0.0046 -0.0829
18260TIP3    H176271   2.145   3.317   5.481  1.4649 -0.3761 -1.0188
18260TIP3    H276272   2.093   3.223   5.374  1.6724 -1.2117 -0.3905
18261TIP3   OH276273   0.260   2.623   3.509  0.0882  0.3208  0.0088
18261TIP3    H176274   0.297   2.608   3.422 -1.2312 -2.5723 -0.1117
18261TIP3    H276275   0.173   2.659   3.492  1.0864  2.9445  0.2282
18262TIP3   OH276276   4.467   4.861  16.206 -0.1254 -0.4201 -0.1767
18262TIP3    H176277   4.440   4.814  16.285 -0.7097 -1.1036 -0.7710
18262TIP3    H276278   4.385   4.875  16.158  0.2023  0.1580 -0.5730
18263TIP3   OH276279   5.812   2.601  12.390  0.2094 -0.5184 -0.4945
18263TIP3    H176280   5.858   2.617  12.308  0.2831 -2.1503 -0.7938
18263TIP3    H276281   5.740   2.663  12.390  3.3581  3.3471  0.8059
18264TIP3   OH276282   6.661   1.494  16.285 -0.1674 -0.0785  0.0365
18264TIP3    H176283   6.640   1.403  16.305 -0.3573  0.3029  1.6732
18264TIP3    H276284   6.738   1.514  16.340 -1.3140  1.3025  1.2063
18265TIP3   OH276285   5.325   4.220  16.265  0.0259 -0.7335 -1.0994
18265TIP3    H176286   5.386   4.200  16.336 -0.1103 -1.1691 -1.1094
18265TIP3    H276287   5.247   4.252  16.309  0.7515  1.1655 -1.1278
18266TIP3   OH276288   0.398   3.892  16.488 -0.2450  0.0392 -0.6563
18266TIP3    H176289   0.386   3.972  16.437  0.1313 -0.3992 -1.4554
18266TIP3    H276290   0.386   3.919  16.579 -0.4331  0.9373 -0.9400
18267TIP3   OH276291   5.995   0.706  12.913  0.2526  0.6800  0.0656
18267TIP3    H176292   6.076   0.700  12.964  0.8844  1.2822 -0.8701
18267TIP3    H276293   5.929   0.668  12.971  1.6663 -2.2967 -0.1909
18268TIP3   OH276294   2.731   5.844  16.859 -0.0352  0.6754 -0.2770
18268TIP3    H176295   2.725   5.852  16.764  1.4633  0.7480 -0.3810
18268TIP3    H276296   2.820   5.874  16.880  0.0302 -0.3777  1.0293
18269TIP3   OH276297   3.052   4.569   4.848 -0.0763 -0.4012 -0.2924
18269TIP3    H176298   3.005   4.498   4.805 -0.5752  0.4738 -1.2198
18269TIP3    H276299   3.140   4.534   4.864  0.5231 -0.3206 -3.2193
18270TIP3   OH276300   6.557   4.558   1.193 -0.2437 -0.0467 -0.4134
18270TIP3    H176301   6.609   4.627   1.152  0.1478  0.3150  0.6772
18270TIP3    H276302   6.477   4.554   1.141 -0.8216  2.1018  0.2873
18271TIP3   OH276303   4.513   0.499   3.467 -0.2137 -0.8387  0.0185
18271TIP3    H176304   4.492   0.411   3.497 -0.9108 -0.5370  0.4150
18271TIP3    H276305   4.477   0.504   3.378 -1.4380 -0.4804  0.5227
18272TIP3   OH276306   6.420   1.794  16.061 -0.4074  0.1211  0.0319
18272TIP3    H176307   6.494   1.775  16.118 -1.6767  0.7299  1.9195
18272TIP3    H276308   6.359   1.842  16.116 -1.8643  0.3324 -1.7223
18273TIP3   OH276309   5.063   4.557  15.552 -0.2157 -0.0265  0.2145
18273TIP3    H176310   5.147   4.597  15.575  0.7328 -0.4275 -2.3533
18273TIP3    H276311   4.998   4.606  15.602  1.2206  2.5967 -0.4304
18274TIP3   OH276312   0.101   2.629   4.854  0.2428  0.4262 -0.1196
18274TIP3    H176313   0.194   2.634   4.834  0.1971 -0.9043 -0.7018
18274TIP3    H276314   0.094   2.563   4.923 -0.3618 -0.1096 -0.6870
18275TIP3   OH276315   1.869   0.385   2.141 -1.1248 -0.3992  0.2147
18275TIP3    H176316   1.865   0.317   2.074 -0.0462  0.5486 -0.8386
18275TIP3    H276317   1.812   0.455   2.108 -0.1242  0.3216 -0.0413
18276TIP3   OH276318   6.757   0.633   5.648 -0.4786 -0.1088  0.1301
18276TIP3    H176319   6.820   0.690   5.692  0.4244  0.0965 -1.3936
18276TIP3    H276320   6.672   0.674   5.664 -0.1235  0.1686  1.3417
18277TIP3   OH276321   2.232   4.512  11.524 -0.3352 -0.8622 -0.2291
18277TIP3    H176322   2.165   4.554  11.469 -0.4036 -1.0022 -0.2547
18277TIP3    H276323   2.221   4.552  11.610  0.6829  0.3448 -0.6568
18278TIP3   OH276324   1.801   3.368   1.452 -0.4076 -0.0493 -0.0369
18278TIP3    H176325   1.840   3.357   1.538  1.6030 -1.8831 -1.1199
18278TIP3    H276326   1.747   3.447   1.459  0.2269  0.1768  2.6838
18279TIP3   OH276327   4.462   6.538  12.067 -0.0764 -0.1078  0.0536
18279TIP3    H176328   4.447   6.550  11.973  0.7229 -0.3207 -0.1056
18279TIP3    H276329   4.481   6.445  12.076 -1.3345 -0.3247  0.5997
18280TIP3   OH276330   2.020   3.304  12.599  0.1998 -0.1113 -0.2306
18280TIP3    H176331   1.928   3.286  12.618  0.2710  0.4260  0.6470
18280TIP3    H276332   2.019   3.340  12.511 -0.0335 -3.5442 -1.7198
18281TIP3   OH276333   3.272   0.015   2.608 -0.5000  0.2272 -0.2558
18281TIP3    H176334   3.271  -0.062   2.551 -1.5587  0.6762 -0.8587
18281TIP3    H276335   3.322  -0.013   2.684 -0.5791 -0.9545 -0.6175
18282TIP3   OH276336   4.844   3.838  17.086  0.6426 -0.6027  0.1424
18282TIP3    H176337   4.872   3.829  16.995  0.2682 -0.3960  0.0016
18282TIP3    H276338   4.917   3.881  17.130 -0.4659  2.4812 -0.8286
18283TIP3   OH276339   2.502   4.258  16.240  0.0121 -0.1150  0.2980
18283TIP3    H176340   2.430   4.283  16.181  1.2646 -0.6642 -1.4978
18283TIP3    H276341   2.488   4.164  16.255 -0.3885  0.0539  1.0224
18284TIP3   OH276342   1.425   2.719   1.856  0.3866 -0.1957 -0.1260
18284TIP3    H176343   1.470   2.710   1.772 -2.0512 -0.0601 -1.5016
18284TIP3    H276344   1.338   2.754   1.833 -0.0987  0.4422  2.5113
18285TIP3   OH276345   3.733   3.706  15.795 -0.3262 -0.5376 -0.3955
18285TIP3    H176346   3.685   3.732  15.873 -2.1043 -0.7276 -1.3776
18285TIP3    H276347   3.778   3.625  15.819  1.0967  0.6783  1.1230
18286TIP3   OH276348   4.719   6.233   5.379  0.1363 -0.5650 -0.1114
18286TIP3    H176349   4.797   6.208   5.429 -0.1430 -0.0784  0.5758
18286TIP3    H276350   4.741   6.210   5.289  0.4076 -2.0102  0.3106
18287TIP3   OH276351   0.366   3.774  14.686  0.3251  0.2892 -0.0331
18287TIP3    H176352   0.420   3.844  14.723 -0.9319  1.4441 -0.3746
18287TIP3    H276353   0.302   3.818  14.632 -0.6880 -1.1083 -0.0049
18288TIP3   OH276354   1.263   4.685  17.001  0.6985 -0.5764 -0.2111
18288TIP3    H176355   1.236   4.761  17.052  3.6206 -0.9997  2.0730
18288TIP3    H276356   1.287   4.721  16.915 -2.2512  0.4170 -0.6790
18289TIP3   OH276357   4.256   3.206  14.849  0.0831 -0.2134 -0.1338
18289TIP3    H176358   4.216   3.241  14.769  0.7021  0.1796 -0.2732
18289TIP3    H276359   4.214   3.255  14.920 -1.2072 -1.2667 -0.1432
18290TIP3   OH276360   5.330   0.749   2.253  0.0977 -0.1676 -0.2568
18290TIP3    H176361   5.296   0.797   2.178 -0.1312  1.2756  0.7387
18290TIP3    H276362   5.348   0.662   2.220  1.2934  0.8288 -2.3128
18291TIP3   OH276363   4.820   0.126   3.041  0.8419  0.0851 -0.3175
18291TIP3    H176364   4.886   0.057   3.037  0.1474 -0.5808 -0.3344
18291TIP3    H276365   4.862   0.196   3.091  1.4818 -0.4178 -0.1435
18292TIP3   OH276366   6.755   5.612  11.523 -0.2296  0.2662  0.6401
18292TIP3    H176367   6.749   5.678  11.591  0.8942  0.0572  0.9432
18292TIP3    H276368   6.743   5.660  11.441 -1.2764  0.5603  0.9607
18293TIP3   OH276369   2.255   5.924   2.250  0.2687 -0.3456  0.0416
18293TIP3    H176370   2.162   5.907   2.266  0.1888 -0.0192 -0.0816
18293TIP3    H276371   2.300   5.858   2.303 -0.0535 -1.5241 -1.1434
18294TIP3   OH276372   5.768   2.274   3.591  0.4417 -0.5716  0.1439
18294TIP3    H176373   5.761   2.315   3.505  1.4413  0.8569  0.7323
18294TIP3    H276374   5.679   2.246   3.612  0.1382 -0.6306 -1.2062
18295TIP3   OH276375   4.738   5.308  15.463 -0.6518 -0.1142  0.0548
18295TIP3    H176376   4.654   5.322  15.418  0.2888 -2.2240 -2.5412
18295TIP3    H276377   4.720   5.236  15.524 -0.7958 -0.4659 -0.3918
18296TIP3   OH276378   3.793   1.548  16.634  0.2015 -0.0623 -0.2289
18296TIP3    H176379   3.849   1.553  16.712  0.5702  4.2997 -0.6428
18296TIP3    H276380   3.839   1.600  16.568 -3.3606  2.0524 -1.1755
18297TIP3   OH276381   0.414   0.926  17.145  0.3040 -0.0042 -0.0902
18297TIP3    H176382   0.467   0.963  17.074  1.8497 -0.6482  0.7019
18297TIP3    H276383   0.445   0.970  17.224 -1.1871  0.4750  0.2527
18298TIP3   OH276384   1.311   4.523   2.790 -0.6408 -0.7096 -0.0573
18298TIP3    H176385   1.334   4.489   2.876  1.2699 -1.3499 -0.7870
18298TIP3    H276386   1.218   4.542   2.795 -1.0184 -2.8462  1.4418
18299TIP3   OH276387   0.635   6.809  12.518  0.2993  0.0487  0.5274
18299TIP3    H176388   0.657   6.902  12.512  1.7302 -0.1577  2.0047
18299TIP3    H276389   0.718   6.763  12.503 -0.3346 -0.9852  0.0941
18300TIP3   OH276390   1.861   4.600  14.933 -0.5583  0.1427 -0.3587
18300TIP3    H176391   1.954   4.620  14.931 -0.3606 -0.5455  1.1068
18300TIP3    H276392   1.856   4.504  14.924 -1.0525  0.0760  0.4766
18301TIP3   OH276393   2.914   6.046  16.456 -0.1266  0.6046 -0.7676
18301TIP3    H176394   2.941   6.043  16.364 -0.4563  0.0190 -0.8441
18301TIP3    H276395   2.995   6.065  16.504  0.1921  0.1340 -1.1119
18302TIP3   OH276396   0.868   5.078  12.562 -0.6077 -0.5849  0.0876
18302TIP3    H176397   0.930   5.129  12.510 -1.1887 -0.4917 -0.5295
18302TIP3    H276398   0.918   5.049  12.638  0.2314 -0.6343 -0.4741
18303TIP3   OH276399   1.369   2.262   4.152  0.1964 -0.1062 -0.0056
18303TIP3    H176400   1.376   2.173   4.187  1.2562  0.1463  0.4433
18303TIP3    H276401   1.390   2.252   4.058  1.5955 -0.1569  0.2914
18304TIP3   OH276402   4.146   4.278   5.308 -0.0460 -0.2675  0.8234
18304TIP3    H176403   4.095   4.237   5.378 -1.3061 -1.1123 -0.5422
18304TIP3    H276404   4.082   4.290   5.237  1.4520 -0.5225 -0.5984
18305TIP3   OH276405   1.389   5.815  11.616  0.2943  0.3428 -0.2183
18305TIP3    H176406   1.427   5.897  11.586  0.7049  0.1460 -0.2393
18305TIP3    H276407   1.452   5.748  11.589  0.2072  0.0719  0.2405
18306TIP3   OH276408   3.191   6.430  13.192 -0.4575  0.0499  0.0780
18306TIP3    H176409   3.250   6.389  13.129 -1.3956  0.1718 -0.9142
18306TIP3    H276410   3.106   6.390  13.174 -0.5425 -0.6410  1.9611
18307TIP3   OH276411   2.807   5.643  17.177  0.7442  0.1241 -0.7164
18307TIP3    H176412   2.820   5.726  17.223 -1.2670 -0.0583  0.2352
18307TIP3    H276413   2.819   5.576  17.243  1.0821 -0.2875 -1.1932
18308TIP3   OH276414   4.574   2.827  13.624  0.8364  0.3491 -0.6393
18308TIP3    H176415   4.625   2.893  13.578 -0.6857  1.0084 -1.4397
18308TIP3    H276416   4.623   2.746  13.612  2.0367  1.0851 -0.7967
18309TIP3   OH276417   1.860   2.224  16.684  0.3672 -0.5721  0.0155
18309TIP3    H176418   1.949   2.244  16.712 -0.4538 -0.8326  2.9765
18309TIP3    H276419   1.860   2.130  16.668  0.9330 -0.3660 -1.2293
18310TIP3   OH276420   6.528   1.881  12.751  0.0288  0.0373 -0.8189
18310TIP3    H176421   6.624   1.872  12.744  0.3791  1.6206  1.3459
18310TIP3    H276422   6.512   1.890  12.845 -2.1442  0.9844 -1.2660
18311TIP3   OH276423   3.030   3.191   1.568  0.3730  0.3384 -0.0701
18311TIP3    H176424   3.056   3.106   1.605 -0.9719 -0.4622 -0.9220
18311TIP3    H276425   3.030   3.177   1.473 -1.6402  0.7550 -0.1437
18312TIP3   OH276426   1.121   2.163  14.959 -0.8849 -0.1187 -0.2033
18312TIP3    H176427   1.198   2.105  14.963  0.1959  1.3180  0.1367
18312TIP3    H276428   1.050   2.110  14.996  0.1535 -1.1181  0.4066
18313TIP3   OH276429   3.530   0.119   0.473 -0.0642  0.5522  0.5224
18313TIP3    H176430   3.531   0.124   0.377  0.2408  0.7364  0.5327
18313TIP3    H276431   3.621   0.099   0.496 -0.2508 -0.0370  0.7452
18314TIP3   OH276432   6.711   4.273   1.253  0.1587  0.1127  0.4281
18314TIP3    H176433   6.634   4.309   1.209  0.7505  4.0677  2.4147
18314TIP3    H276434   6.681   4.252   1.341  1.0157  0.3399  0.7776
18315TIP3   OH276435   5.805   3.821   1.486 -0.2779  0.1688 -0.3785
18315TIP3    H176436   5.719   3.855   1.514  0.6316  1.8080  0.4822
18315TIP3    H276437   5.823   3.866   1.404  0.6443  1.3349  0.4442
18316TIP3   OH276438   2.131   3.482  12.829 -0.0919 -0.2196  0.5936
18316TIP3    H176439   2.048   3.512  12.866  0.3425  1.9047 -0.1196
18316TIP3    H276440   2.194   3.493  12.899  0.5777  3.0833 -0.4265
18317TIP3   OH276441   5.597   5.163  15.372 -0.3871 -0.2917 -0.0718
18317TIP3    H176442   5.631   5.210  15.448  1.3024 -0.9226 -0.4055
18317TIP3    H276443   5.585   5.231  15.306  1.5847 -0.2123 -0.3924
18318TIP3   OH276444   5.155   1.405   2.333 -0.7817 -0.4288 -0.1123
18318TIP3    H176445   5.073   1.361   2.312 -0.2193 -1.1706 -0.7748
18318TIP3    H276446   5.144   1.494   2.299 -1.8767 -0.0779  1.1258
18319TIP3   OH276447   3.768   3.633   2.160  0.1353  0.5941  0.4058
18319TIP3    H176448   3.676   3.628   2.132  0.5021  0.5005 -0.8264
18319TIP3    H276449   3.815   3.583   2.094  1.2292  1.7740  0.2854
18320TIP3   OH276450   5.794   5.871   4.745  0.2411  0.0379  0.3591
18320TIP3    H176451   5.877   5.876   4.698  0.3519  0.8339  0.6412
18320TIP3    H276452   5.802   5.793   4.800  1.9835  1.8198  2.6606
18321TIP3   OH276453   4.076   6.189   6.616 -0.1100 -0.2808 -0.3359
18321TIP3    H176454   4.104   6.254   6.680 -1.5915  0.2519 -0.2020
18321TIP3    H276455   4.133   6.202   6.541  0.5099  0.2421  0.2280
18322TIP3   OH276456   5.567   1.893   4.046  0.4237  0.4022 -0.2824
18322TIP3    H176457   5.496   1.829   4.055  0.1956  0.7995  0.7447
18322TIP3    H276458   5.530   1.961   3.989  0.2982  0.1639 -0.4922
18323TIP3   OH276459   0.490   2.145   4.427  0.5579 -0.4508  0.1839
18323TIP3    H176460   0.409   2.095   4.421 -1.0157  1.8234  1.3863
18323TIP3    H276461   0.466   2.233   4.399  2.7039  0.1877  0.2489
18324TIP3   OH276462   1.810   4.297   4.756  0.0224 -0.1646 -0.1914
18324TIP3    H176463   1.789   4.362   4.689  2.6830 -2.2978 -3.2654
18324TIP3    H276464   1.892   4.327   4.795  1.5948 -1.8760 -2.0527
18325TIP3   OH276465   4.918   3.487  13.619  0.8513 -0.2930 -0.0729
18325TIP3    H176466   4.998   3.533  13.641  0.8520  0.3934 -1.4354
18325TIP3    H276467   4.860   3.554  13.584  0.6683 -1.2169 -1.6063
18326TIP3   OH276468   6.282   1.351  13.056 -0.0725  0.1290  0.1268
18326TIP3    H176469   6.371   1.327  13.028  0.0384  0.1551  0.4633
18326TIP3    H276470   6.226   1.311  12.990  0.2926  1.9751 -1.3376
18327TIP3   OH276471   4.866   0.232  15.869 -0.0162 -0.4463 -0.3351
18327TIP3    H176472   4.905   0.165  15.813 -0.8471  0.4989 -2.0952
18327TIP3    H276473   4.772   0.213  15.866 -0.3641  1.4396 -1.7294
18328TIP3   OH276474   5.370   5.188  10.833  0.5520  0.3705 -0.0475
18328TIP3    H176475   5.290   5.190  10.885  2.0917 -0.8032  2.4598
18328TIP3    H276476   5.358   5.114  10.773 -0.0718 -0.0683  0.6054
18329TIP3   OH276477   1.751   0.239   3.469 -0.2049  0.7643  0.6533
18329TIP3    H176478   1.765   0.241   3.564  1.4436  1.4806  0.4106
18329TIP3    H276479   1.839   0.231   3.432 -0.7924  1.0455 -0.8233
18330TIP3   OH276480   2.184   0.553   2.266 -0.4858  0.3216  0.3557
18330TIP3    H176481   2.145   0.467   2.285  0.1231 -0.0193  0.1053
18330TIP3    H276482   2.220   0.544   2.178  0.5605  0.4677  0.7489
18331TIP3   OH276483   5.156   6.228   5.285 -0.0838 -0.0404 -0.4503
18331TIP3    H176484   5.150   6.145   5.332 -2.0019 -0.2944 -1.0723
18331TIP3    H276485   5.124   6.293   5.348  0.2104  0.0378 -0.3833
18332TIP3   OH276486   5.969   3.200  12.398 -0.7688  0.2308 -0.4687
18332TIP3    H176487   5.982   3.207  12.303 -2.4072 -0.7200 -0.7916
18332TIP3    H276488   6.054   3.221  12.436 -0.0378  0.4098 -2.1641
18333TIP3   OH276489   6.166   0.786  12.055 -0.2200 -0.0882  0.3645
18333TIP3    H176490   6.158   0.881  12.066  0.0701 -0.2651  2.3079
18333TIP3    H276491   6.238   0.775  11.992  0.8079  0.9569  1.3291
18334TIP3   OH276492   0.016   1.799  15.075  0.3651  0.6123 -0.5151
18334TIP3    H176493  -0.036   1.719  15.068  3.4671 -1.3489 -2.7285
18334TIP3    H276494   0.075   1.783  15.149  0.2342  1.3270 -0.2525
18335TIP3   OH276495   2.236   5.481   5.937 -0.3441  0.0831 -0.1522
18335TIP3    H176496   2.261   5.427   5.862  0.3503 -1.5570  1.2206
18335TIP3    H276497   2.288   5.447   6.010  0.2266  2.7216  0.7401
18336TIP3   OH276498   1.153   4.753   5.672 -0.3008 -0.0685 -0.4361
18336TIP3    H176499   1.070   4.709   5.692 -0.1950  0.5769  1.5640
18336TIP3    H276500   1.148   4.773   5.579 -1.9036 -1.0615 -0.5811
18337TIP3   OH276501   0.501   3.427   4.876  0.7761  0.2794  0.3654
18337TIP3    H176502   0.509   3.522   4.876  0.7248  0.2852  1.1457
18337TIP3    H276503   0.416   3.410   4.917  0.2740 -0.0621 -0.7986
18338TIP3   OH276504   4.651   0.402  12.250 -0.1150 -0.2459  0.0626
18338TIP3    H176505   4.594   0.404  12.173  1.5212 -0.2403 -1.1810
18338TIP3    H276506   4.592   0.413  12.324 -1.7213 -0.2344 -1.1916
18339TIP3   OH276507   3.631   2.382   0.944  0.2321  0.1328 -0.0398
18339TIP3    H176508   3.550   2.433   0.946 -1.0273 -1.6905 -2.6277
18339TIP3    H276509   3.689   2.428   1.005 -2.2620  2.2497  0.8412
18340TIP3   OH276510   5.407   6.407   4.223 -0.0819 -0.0174 -0.0785
18340TIP3    H176511   5.381   6.317   4.244 -0.6713  0.1056 -0.2843
18340TIP3    H276512   5.328   6.447   4.187  0.5993  0.1055 -1.4815
18341TIP3   OH276513   5.620   6.301  15.759  0.3689  0.1688  0.3289
18341TIP3    H176514   5.558   6.319  15.688 -0.5754  1.5524  1.4922
18341TIP3    H276515   5.698   6.351  15.736 -0.1724  1.1429  0.5848
18342TIP3   OH276516   6.363   1.240  17.076  0.8904  0.0591  0.3505
18342TIP3    H176517   6.303   1.166  17.087  0.9938 -0.2341 -0.9980
18342TIP3    H276518   6.450   1.201  17.081  0.9460  0.1192 -0.0892
18343TIP3   OH276519   6.592   2.307   0.746 -0.2960  0.1610  0.3633
18343TIP3    H176520   6.665   2.256   0.711  2.2852  1.5664  3.5017
18343TIP3    H276521   6.559   2.254   0.819 -2.6963 -0.5970 -1.1856
18344TIP3   OH276522   6.698   3.285   2.315  0.0572 -0.1095 -0.3420
18344TIP3    H176523   6.629   3.247   2.261  1.0892 -0.9431 -1.1214
18344TIP3    H276524   6.653   3.341   2.378 -1.3211 -0.7362 -0.7631
18345TIP3   OH276525   0.531   5.991   1.813 -0.4578 -0.3268 -0.0647
18345TIP3    H176526   0.591   5.947   1.753  1.7191  1.5913  0.6270
18345TIP3    H276527   0.506   6.072   1.768 -1.5920 -0.5559  0.1431
18346TIP3   OH276528   1.812   6.532   3.682  0.1158  0.4419  0.0871
18346TIP3    H176529   1.777   6.620   3.670 -1.5584 -0.4036 -1.4856
18346TIP3    H276530   1.737   6.478   3.704  1.0673 -0.6743  0.6947
18347TIP3   OH276531   3.742   1.748   3.858  0.2380  0.0415  0.0847
18347TIP3    H176532   3.662   1.794   3.831  0.1481  0.4711  1.0314
18347TIP3    H276533   3.812   1.793   3.811 -0.0738 -0.3205 -0.7329
18348TIP3   OH276534   1.035   1.858   1.994  0.3398 -0.0179  0.1205
18348TIP3    H176535   0.945   1.834   2.015 -0.0016 -1.2851 -2.6047
18348TIP3    H276536   1.087   1.816   2.063 -1.0026 -0.7398  0.7206
18349TIP3   OH276537   6.554   2.137  11.261 -0.3804  0.2248 -0.0150
18349TIP3    H176538   6.485   2.200  11.242 -0.6859  0.1879  0.9680
18349TIP3    H276539   6.635   2.184  11.240 -0.5004  1.6154  2.5137
18350TIP3   OH276540   6.347   3.645   2.697  0.1341 -0.2285 -0.0134
18350TIP3    H176541   6.378   3.732   2.724 -1.6881  0.5383 -0.3026
18350TIP3    H276542   6.263   3.635   2.741 -1.4785 -0.2270 -2.9577
18351TIP3   OH276543   5.483   6.185  10.535 -0.0707  0.1076 -0.3348
18351TIP3    H176544   5.482   6.154  10.626 -0.5548  0.9548 -0.0423
18351TIP3    H276545   5.541   6.261  10.537 -1.3981  1.1414 -0.3801
18352TIP3   OH276546   6.485   6.502  14.128  0.1347 -0.1989 -0.1702
18352TIP3    H176547   6.411   6.448  14.101  1.6436 -1.1602 -2.4935
18352TIP3    H276548   6.463   6.590  14.097 -0.3786 -0.3236 -0.1645
18353TIP3   OH276549   1.388   4.882  15.520  0.2123 -0.2357  0.5015
18353TIP3    H176550   1.463   4.840  15.563  0.4602 -0.5395 -0.2062
18353TIP3    H276551   1.381   4.837  15.435 -0.1695  0.4429  0.1656
18354TIP3   OH276552   5.617   3.826  15.933  0.6032  0.5293 -0.1498
18354TIP3    H176553   5.558   3.848  16.005  1.3759  1.3749  0.2424
18354TIP3    H276554   5.700   3.804  15.976 -0.0689 -3.0024 -0.5538
18355TIP3   OH276555   3.505   0.844   5.845  0.7622 -0.1611 -0.1220
18355TIP3    H176556   3.429   0.870   5.896  0.9960  0.0755  0.1083
18355TIP3    H276557   3.504   0.902   5.768  1.3329  0.5970  0.4347
18356TIP3   OH276558   1.846   0.218   2.705 -0.5818  0.4216  0.2580
18356TIP3    H176559   1.889   0.133   2.698 -0.5210  0.3728  1.1379
18356TIP3    H276560   1.754   0.197   2.722 -0.8409  0.5277 -0.9957
18357TIP3   OH276561   0.025   1.335   3.349 -0.7009 -0.3788  0.5033
18357TIP3    H176562   0.106   1.286   3.333  0.0289  0.1649  2.4908
18357TIP3    H276563   0.047   1.396   3.418 -1.7120  2.6041 -1.7241
18358TIP3   OH276564   3.311   4.865   0.475 -0.0411  0.0026 -0.0180
18358TIP3    H176565   3.267   4.824   0.549  0.3690 -0.6297 -0.1193
18358TIP3    H276566   3.384   4.913   0.514 -1.3441  1.8502  0.2551
18359TIP3   OH276567   3.970   1.009  11.947 -0.2100 -0.3226 -0.0312
18359TIP3    H176568   4.019   1.077  11.992  0.7155 -1.5790  0.9220
18359TIP3    H276569   3.962   1.039  11.857  2.6477 -0.2647 -0.2985
18360TIP3   OH276570   3.474   1.507   5.389  0.4995  0.1338  0.1884
18360TIP3    H176571   3.517   1.576   5.440  1.3793 -0.3514  0.1021
18360TIP3    H276572   3.529   1.495   5.313 -0.1329 -0.0478 -0.2449
18361TIP3   OH276573   5.049   3.340   2.770  0.1246 -0.3046 -0.5001
18361TIP3    H176574   5.015   3.302   2.851 -1.8172  1.1458 -0.6150
18361TIP3    H276575   5.093   3.420   2.798  0.2031 -0.2502 -0.7820
18362TIP3   OH276576   0.149   2.208   4.734 -0.4521  0.1599  0.5999
18362TIP3    H176577   0.068   2.227   4.780 -0.9567  0.5453 -0.4333
18362TIP3    H276578   0.165   2.285   4.680 -0.5997 -0.8408 -0.9011
18363TIP3   OH276579   2.906   2.255   0.702 -0.0060 -0.0002  0.1769
18363TIP3    H176580   2.951   2.185   0.654  0.1731  1.0094 -1.1948
18363TIP3    H276581   2.974   2.291   0.760  0.9206  1.3079 -1.6554
18364TIP3   OH276582   0.505   3.955   4.393  0.5869  0.5020 -0.0050
18364TIP3    H176583   0.428   4.002   4.424  0.1151 -0.1221 -0.2124
18364TIP3    H276584   0.528   3.896   4.464  0.1460 -0.1671 -0.4102
18365TIP3   OH276585   4.569   3.482   2.652  0.2190  0.0260  0.5384
18365TIP3    H176586   4.551   3.397   2.693  0.4334  0.1334  0.8663
18365TIP3    H276587   4.507   3.542   2.693 -0.4039 -0.1073 -0.2024
18366TIP3   OH276588   2.913   6.386   2.938  0.7652 -0.1398 -0.3902
18366TIP3    H176589   2.896   6.320   2.871  0.7731 -0.6016  0.0621
18366TIP3    H276590   2.975   6.447   2.897  0.2758 -0.0598 -1.0289
18367TIP3   OH276591   4.015   4.021  13.282  0.5409 -0.0988  0.0654
18367TIP3    H176592   4.030   4.080  13.207  2.0715  1.7194  1.7411
18367TIP3    H276593   3.931   3.980  13.263 -0.2317  2.0860 -1.5339
18368TIP3   OH276594   1.914   6.035   4.571 -0.0401 -0.6853 -0.0579
18368TIP3    H176595   1.853   6.004   4.638 -0.1906 -1.6205 -0.6197
18368TIP3    H276596   2.000   6.008   4.604 -0.0141 -0.1546  0.3049
18369TIP3   OH276597   4.388   0.483  11.477 -0.2939  0.3168 -0.8213
18369TIP3    H176598   4.452   0.413  11.492 -0.0557  0.4030 -1.4190
18369TIP3    H276599   4.440   0.563  11.471 -0.5801  0.5693 -0.0019
18370TIP3   OH276600   4.328   1.152   3.806 -0.5905 -0.6832  0.0021
18370TIP3    H176601   4.260   1.148   3.874 -0.9775  3.2499 -0.0505
18370TIP3    H276602   4.406   1.182   3.852 -0.0012 -1.0377 -0.7513
18371TIP3   OH276603   4.422   2.232   5.582 -0.1053  0.0009  0.7128
18371TIP3    H176604   4.344   2.183   5.611 -0.1865  0.3577  1.0961
18371TIP3    H276605   4.453   2.277   5.660  1.4005 -1.3662  0.9161
18372TIP3   OH276606   1.892   5.180   4.806  0.2512  0.0211 -0.1404
18372TIP3    H176607   1.880   5.136   4.890  1.9537  1.2709  0.7804
18372TIP3    H276608   1.954   5.251   4.824 -0.8305  1.5103 -2.0294
18373TIP3   OH276609   5.028   2.353  16.221 -0.0655 -0.3412  0.0145
18373TIP3    H176610   5.008   2.446  16.235  1.4334  0.1883 -1.1722
18373TIP3    H276611   4.959   2.322  16.163 -0.9971 -0.1556  1.0260
18374TIP3   OH276612   5.703   1.231  14.972 -0.2134  0.6500 -0.1240
18374TIP3    H176613   5.630   1.183  15.012 -0.8406  1.1354 -0.6810
18374TIP3    H276614   5.777   1.215  15.031 -0.8193  0.3239  0.5569
18375TIP3   OH276615   3.894   2.827  17.157 -0.1737  0.4454  0.1256
18375TIP3    H176616   3.805   2.835  17.190  0.4070  2.4891  1.3219
18375TIP3    H276617   3.885   2.831  17.061 -1.5099 -1.3761  0.1521
18376TIP3   OH276618   4.966   3.847   4.408  0.3541  0.2990 -0.1408
18376TIP3    H176619   4.944   3.914   4.344 -1.0635 -1.0945 -1.1688
18376TIP3    H276620   4.936   3.883   4.492  0.0345  1.1346 -0.6149
18377TIP3   OH276621   4.725   4.443   1.416  0.3226 -0.3167 -0.5159
18377TIP3    H176622   4.675   4.430   1.335  0.6367  1.1889 -0.9664
18377TIP3    H276623   4.702   4.532   1.444  1.7940 -0.0588 -0.0679
18378TIP3   OH276624   2.352   2.280   3.394  0.3042 -0.1860  0.3057
18378TIP3    H176625   2.293   2.206   3.385 -1.6084  1.2923  0.3044
18378TIP3    H276626   2.348   2.325   3.310 -0.4608  1.2661  1.0939
18379TIP3   OH276627   1.704   2.152  14.798  0.1789  0.5841  0.9920
18379TIP3    H176628   1.787   2.169  14.753 -0.2013  2.3232  0.9224
18379TIP3    H276629   1.665   2.080  14.748  0.9857  0.7134  0.1493
18380TIP3   OH276630   2.961   5.870   3.746 -0.8753  0.5173  0.4825
18380TIP3    H176631   2.950   5.931   3.673  2.0142 -0.0846 -0.5132
18380TIP3    H276632   2.959   5.783   3.706 -1.6876  0.0752  1.4549
18381TIP3   OH276633   5.717   2.413  13.173 -0.0169  0.4377  0.0950
18381TIP3    H176634   5.708   2.404  13.267 -0.6413  0.4774  0.0437
18381TIP3    H276635   5.771   2.339  13.146 -1.6203 -0.8032  0.2046
18382TIP3   OH276636   5.885   4.758   1.656 -0.4330 -0.1224 -0.2128
18382TIP3    H176637   5.915   4.788   1.570 -0.2268  0.3551  0.0262
18382TIP3    H276638   5.941   4.804   1.718  0.6643 -1.8432  0.1292
18383TIP3   OH276639   5.626   2.512   1.789  0.2189 -0.0556  0.0827
18383TIP3    H176640   5.588   2.463   1.863  2.9889 -1.7250  0.4643
18383TIP3    H276641   5.598   2.463   1.712  0.2491 -0.3492  0.2563
18384TIP3   OH276642   0.381   4.395   1.019 -0.6139 -0.0780  0.7339
18384TIP3    H176643   0.446   4.326   1.020  0.2298  0.6978 -0.4159
18384TIP3    H276644   0.419   4.465   0.966 -2.0266  0.7189  0.7231
18385TIP3   OH276645   4.127   0.378   1.856  0.0439 -0.1355 -0.9558
18385TIP3    H176646   4.150   0.287   1.876 -1.5301 -0.4788 -0.6738
18385TIP3    H276647   4.195   0.429   1.898  0.5723 -1.1553 -0.5465
18386TIP3   OH276648   0.505   3.907  11.436 -0.5059 -0.4438  0.1343
18386TIP3    H176649   0.599   3.896  11.421 -0.4853 -0.4006  0.2307
18386TIP3    H276650   0.464   3.864  11.361 -0.4191 -0.8650  0.3272
18387TIP3   OH276651   1.835   1.205   6.556  0.1477  0.4076  0.4515
18387TIP3    H176652   1.879   1.190   6.640  0.9150 -1.5708 -0.2775
18387TIP3    H276653   1.745   1.228   6.580  0.2643 -0.4922  1.8080
18388TIP3   OH276654   5.222   4.654  12.223 -0.3073 -0.1202 -0.0232
18388TIP3    H176655   5.247   4.567  12.253 -0.0765 -0.7419 -1.9534
18388TIP3    H276656   5.155   4.682  12.285  0.1614 -1.3622  1.0613
18389TIP3   OH276657   5.017   3.541  14.213 -0.3111 -0.0482 -0.4067
18389TIP3    H176658   5.049   3.520  14.301  1.9008  1.6254 -0.7745
18389TIP3    H276659   4.926   3.566  14.227  0.8168  3.1280  1.8860
18390TIP3   OH276660   1.080   5.559  14.274 -0.4380  0.0988  0.4053
18390TIP3    H176661   1.098   5.490  14.337  0.0364 -0.3994 -0.2701
18390TIP3    H276662   1.046   5.513  14.197 -0.6362  0.6674  0.1457
18391TIP3   OH276663   3.990   2.492   1.406 -0.4544  0.8966  0.2259
18391TIP3    H176664   3.969   2.585   1.399  0.2213  1.1493  1.5185
18391TIP3    H276665   4.024   2.481   1.494 -3.6617 -1.1774  1.3055
18392TIP3   OH276666   3.944   5.457  15.600 -0.3024  0.1481  0.5296
18392TIP3    H176667   3.920   5.441  15.692 -2.7473 -2.0848 -0.4214
18392TIP3    H276668   3.860   5.473  15.557  1.1116  4.8976 -0.7224
18393TIP3   OH276669   1.719   0.690  12.213 -0.3353  0.0577 -0.1815
18393TIP3    H176670   1.757   0.623  12.271  0.7412 -0.1554 -1.1281
18393TIP3    H276671   1.643   0.648  12.175  0.3125 -0.6230 -0.7368
18394TIP3   OH276672   1.033   5.764   4.599  0.4381 -0.4874 -0.1276
18394TIP3    H176673   1.070   5.752   4.511  1.7195 -0.1799  0.3544
18394TIP3    H276674   1.105   5.743   4.658  0.3775  1.8556  0.8300
18395TIP3   OH276675   0.179   4.027   5.115  0.3940 -0.7964 -0.1332
18395TIP3    H176676   0.136   4.031   5.200 -1.1414  0.7953 -0.9344
18395TIP3    H276677   0.106   4.028   5.052  1.5702  1.5804 -1.5245
18396TIP3   OH276678   1.250   5.433   5.302  0.1451 -0.2860 -0.0839
18396TIP3    H176679   1.183   5.417   5.368  1.0212 -0.2761  0.8217
18396TIP3    H276680   1.302   5.353   5.301  1.8588  0.7854  1.2847
18397TIP3   OH276681   0.434   1.945  13.625  0.3412  0.1723  0.0880
18397TIP3    H176682   0.440   2.033  13.662 -0.1881  0.5546 -0.7161
18397TIP3    H276683   0.440   1.958  13.531  3.2635 -0.9481  0.0697
18398TIP3   OH276684   4.015   5.272  12.191 -0.2854  0.3879 -0.2825
18398TIP3    H176685   3.983   5.254  12.280  0.0371  1.4730  0.0570
18398TIP3    H276686   4.075   5.346  12.202  0.5706 -0.1477 -1.2501
18399TIP3   OH276687   5.423   2.612  11.235  0.1680 -0.0054  0.0963
18399TIP3    H176688   5.415   2.565  11.152  1.3757 -0.1010  0.0231
18399TIP3    H276689   5.446   2.544  11.299  0.4956  0.2544  0.2598
18400TIP3   OH276690   3.393   5.985   3.426  0.1633  0.0887 -0.3022
18400TIP3    H176691   3.384   6.041   3.503 -1.5440  0.1310 -0.5093
18400TIP3    H276692   3.394   5.896   3.461  0.0237  0.1350 -0.1780
18401TIP3   OH276693   5.141   5.014   1.742 -0.2278  0.2616 -0.4048
18401TIP3    H176694   5.227   4.976   1.723  0.7547  0.9619  2.3477
18401TIP3    H276695   5.124   5.072   1.668  1.5404 -0.1271 -1.1444
18402TIP3   OH276696   4.539   0.816   1.549  0.4291  0.2514 -0.3611
18402TIP3    H176697   4.567   0.813   1.457 -1.0145 -0.0764 -0.8149
18402TIP3    H276698   4.511   0.727   1.568  0.4459  0.3884  0.3024
18403TIP3   OH276699   2.003   4.746  15.781  0.6439  0.1006  0.0989
18403TIP3    H176700   1.933   4.791  15.735  1.4048  1.8930  0.6763
18403TIP3    H276701   1.967   4.728  15.868  0.7708  0.6682  0.2665
18404TIP3   OH276702   1.774   5.918   3.581 -0.3012  0.4174 -0.5846
18404TIP3    H176703   1.719   5.876   3.648 -1.0072  0.6714 -1.0058
18404TIP3    H276704   1.768   5.861   3.505  1.3076 -0.4036 -0.1186
18405TIP3   OH276705   6.018   1.052   0.711  0.0091 -0.0941  0.6577
18405TIP3    H176706   6.096   0.998   0.719  0.4984  0.8161  2.1192
18405TIP3    H276707   5.978   1.024   0.628 -0.7303 -3.9464  2.2457
18406TIP3   OH276708   0.497   2.962   5.194  0.0787  0.1217 -0.4707
18406TIP3    H176709   0.590   2.947   5.210 -0.2466 -0.9704  0.4188
18406TIP3    H276710   0.471   3.025   5.260 -0.1174 -0.6091  0.1592
18407TIP3   OH276711   6.290   6.719  15.403  0.3194  0.3429 -0.2185
18407TIP3    H176712   6.326   6.700  15.490 -1.4719 -0.1941  0.4321
18407TIP3    H276713   6.246   6.803  15.413  0.0328  0.2376 -0.5615
18408TIP3   OH276714   2.446   6.779  13.795  0.2893 -0.5424 -0.1054
18408TIP3    H176715   2.370   6.792  13.851 -0.3910  2.6751 -1.6762
18408TIP3    H276716   2.421   6.815  13.710  2.4153 -2.4342 -1.5974
18409TIP3   OH276717   3.449   1.345   5.052 -0.4634  0.2722 -0.2081
18409TIP3    H176718   3.528   1.385   5.087  0.3839 -1.7546  0.2456
18409TIP3    H276719   3.480   1.287   4.982 -1.8167  1.5497 -1.9341
18410TIP3   OH276720   3.234   1.738   3.694  0.3666  0.0517 -0.2523
18410TIP3    H176721   3.148   1.734   3.736  0.1575 -0.7504 -0.7547
18410TIP3    H276722   3.215   1.732   3.601  1.0178 -0.7175 -0.3349
18411TIP3   OH276723   5.864   0.469  14.139 -0.3593 -0.5652 -0.4370
18411TIP3    H176724   5.838   0.493  14.228 -3.2224  0.3237 -1.4589
18411TIP3    H276725   5.923   0.539  14.112  0.0584 -0.5281  0.5330
18412TIP3   OH276726   0.504   1.368   4.920  0.7931  0.2106  0.4485
18412TIP3    H176727   0.443   1.337   4.987  1.5032 -1.2023  0.4418
18412TIP3    H276728   0.466   1.340   4.837  0.1753  1.5225  0.2661
18413TIP3   OH276729   0.698   4.096  15.048 -0.1377  0.1748  1.0839
18413TIP3    H176730   0.658   4.181  15.066  1.0856  1.2238 -1.0063
18413TIP3    H276731   0.781   4.099  15.097 -0.3502 -0.0535  1.4628
18414TIP3   OH276732   3.208   2.707  11.446 -0.2192 -0.2904 -0.2642
18414TIP3    H176733   3.225   2.793  11.407  1.6184 -1.1286 -1.3408
18414TIP3    H276734   3.278   2.695  11.509 -1.4005 -0.3160  1.0859
18415TIP3   OH276735   0.379   2.445  13.440  0.0380 -0.8635  0.0248
18415TIP3    H176736   0.353   2.528  13.402 -0.4834 -1.1973 -0.3429
18415TIP3    H276737   0.299   2.410  13.479  0.3059 -1.0857  0.3849
18416TIP3   OH276738   2.558   4.748   2.423 -0.9613  0.2513 -0.0475
18416TIP3    H176739   2.469   4.758   2.455 -0.0936 -1.6934  3.1405
18416TIP3    H276740   2.555   4.670   2.367 -1.0099 -0.6104  1.1385
18417TIP3   OH276741   2.466   2.186  16.760  0.5802  0.1966 -0.3986
18417TIP3    H176742   2.550   2.162  16.799  0.8227  2.7548  0.7418
18417TIP3    H276743   2.411   2.109  16.772  1.9175 -0.5066  1.3831
18418TIP3   OH276744   3.374   3.343  16.385 -0.1404  0.0165  0.6817
18418TIP3    H176745   3.401   3.323  16.296  0.8685  0.2808  0.9127
18418TIP3    H276746   3.358   3.438  16.384  0.3110  0.0968  0.8849
18419TIP3   OH276747   1.383   5.683  16.842  0.6626 -0.2710  0.9719
18419TIP3    H176748   1.313   5.652  16.783  0.6416 -0.3046  1.0147
18419TIP3    H276749   1.425   5.754  16.793  1.7767 -1.4469  0.1678
18420TIP3   OH276750   0.491   1.599   0.704 -0.0275 -0.3755 -0.9058
18420TIP3    H176751   0.490   1.521   0.647 -0.3646 -0.9592 -0.1147
18420TIP3    H276752   0.581   1.629   0.702 -0.3327  0.5049 -2.9495
18421TIP3   OH276753   4.654   2.672   0.535  0.1376  0.1839  0.0597
18421TIP3    H176754   4.634   2.628   0.453 -1.6748  0.8114  0.1514
18421TIP3    H276755   4.666   2.602   0.599 -1.8450 -0.2094  0.0062
18422TIP3   OH276756   2.496   4.819  13.734 -0.2842 -0.3654  0.0384
18422TIP3    H176757   2.478   4.896  13.681  0.5412  0.1148  0.4462
18422TIP3    H276758   2.464   4.746  13.682  0.8500  0.0715 -1.3010
18423TIP3   OH276759   0.616   5.547   0.116  0.7879 -0.5895 -0.7682
18423TIP3    H176760   0.562   5.477   0.080 -0.3051 -0.2488  0.1850
18423TIP3    H276761   0.556   5.620   0.131  1.7347  0.2304 -0.8581
18424TIP3   OH276762   6.055   1.265   5.311 -0.5998  0.6528 -0.1562
18424TIP3    H176763   6.079   1.358   5.309 -0.5151  0.6081 -1.4507
18424TIP3    H276764   6.087   1.230   5.228  3.3271 -1.5392  2.1409
18425TIP3   OH276765   0.553   6.622  16.966 -0.4522  0.3973 -0.2502
18425TIP3    H176766   0.592   6.702  16.929 -1.0413  1.1020  0.6244
18425TIP3    H276767   0.524   6.648  17.053 -1.5229 -0.5238 -0.3256
18426TIP3   OH276768   1.508   4.626  15.594  0.4657  0.1963 -0.2902
18426TIP3    H176769   1.521   4.543  15.640  1.2976  0.9283  0.8144
18426TIP3    H276770   1.534   4.608  15.504 -1.1723 -1.2472 -0.5079
18427TIP3   OH276771   6.464   0.410   5.860 -0.0771  0.4541  0.5991
18427TIP3    H176772   6.398   0.353   5.900  0.3213  0.6830  1.5988
18427TIP3    H276773   6.495   0.362   5.784 -1.0354  0.1228  0.4071
18428TIP3   OH276774   6.589   0.350   0.973 -0.3038 -0.2164  0.3181
18428TIP3    H176775   6.515   0.411   0.976  0.8628  1.2555 -0.4437
18428TIP3    H276776   6.565   0.286   0.906 -0.5874  0.6563 -0.4230
18429TIP3   OH276777   5.702   4.723   2.287 -0.3784  0.4920 -1.2272
18429TIP3    H176778   5.709   4.769   2.370 -1.8311 -1.4089 -0.0088
18429TIP3    H276779   5.672   4.790   2.225 -0.0892  1.7258 -0.0633
18430TIP3   OH276780   1.745   2.258  16.440 -0.3796  0.2692  0.2896
18430TIP3    H176781   1.714   2.347  16.456 -1.2523  0.3610 -1.7929
18430TIP3    H276782   1.779   2.229  16.525  0.4362  2.7669  0.8599
18431TIP3   OH276783   3.330   3.366  12.123  0.3918 -0.3384 -0.0254
18431TIP3    H176784   3.403   3.320  12.163  0.8256 -0.1289 -0.5795
18431TIP3    H276785   3.370   3.439  12.075  0.1147 -1.8736 -2.7308
18432TIP3   OH276786   4.547   5.283   5.927 -0.4113 -0.7137 -0.3043
18432TIP3    H176787   4.456   5.263   5.947 -0.4263 -1.5471 -1.2123
18432TIP3    H276788   4.582   5.202   5.889  0.4619 -0.1195 -0.7766
18433TIP3   OH276789   4.369   5.144  16.572 -0.2047  0.2166 -0.4959
18433TIP3    H176790   4.361   5.231  16.533  0.7242  0.2242 -0.6852
18433TIP3    H276791   4.462   5.123  16.565 -0.2833 -0.4346  0.3236
18434TIP3   OH276792   0.654   1.825   6.280  0.1861 -0.2279 -0.7817
18434TIP3    H176793   0.589   1.893   6.266  1.4272  1.1201 -0.1429
18434TIP3    H276794   0.674   1.829   6.374  3.7039  1.7556 -1.5359
18435TIP3   OH276795   1.382   4.376   4.182 -0.0675 -0.3676  0.2982
18435TIP3    H176796   1.341   4.317   4.245 -0.4006 -0.4234  0.0288
18435TIP3    H276797   1.341   4.355   4.099  0.1110 -0.0410  0.1252
18436TIP3   OH276798   2.506   3.189   5.611  0.0972  0.2016  0.1447
18436TIP3    H176799   2.455   3.268   5.595 -1.5099 -0.7140  0.6647
18436TIP3    H276800   2.442   3.123   5.635  1.3363 -1.4514 -0.9220
18437TIP3   OH276801   4.402   2.245   3.712 -0.3184 -0.2648 -0.0170
18437TIP3    H176802   4.378   2.324   3.760  0.0776 -0.2717  0.1988
18437TIP3    H276803   4.496   2.235   3.730 -0.0554  0.0232 -1.2081
18438TIP3   OH276804   3.937   6.351  11.703 -0.2455  0.7555 -0.1933
18438TIP3    H176805   3.864   6.302  11.741  0.9240 -0.2198  0.8357
18438TIP3    H276806   3.933   6.330  11.609 -0.4873 -0.3590  0.0573
18439TIP3   OH276807   4.510   4.952   5.050  0.3033  0.0789  0.1108
18439TIP3    H176808   4.567   4.999   5.111 -0.3127  2.6612 -1.2664
18439TIP3    H276809   4.517   5.000   4.968 -0.6909 -2.0060 -1.2473
18440TIP3   OH276810   1.721   0.329   3.020  0.3690  0.3431  0.0529
18440TIP3    H176811   1.702   0.399   3.083  1.5953  0.5165  0.2353
18440TIP3    H276812   1.700   0.367   2.934 -1.1011  0.1756  0.3233
18441TIP3   OH276813   6.258   3.678  14.694  0.0359  0.0014 -0.0056
18441TIP3    H176814   6.253   3.635  14.779  0.1173  0.6313  0.3166
18441TIP3    H276815   6.228   3.767  14.710 -0.9878 -0.1824 -0.8571
18442TIP3   OH276816   2.917   5.121   6.344  0.0677  0.0864  0.3668
18442TIP3    H176817   2.906   5.118   6.439 -0.3598 -1.8053  0.2935
18442TIP3    H276818   2.847   5.063   6.311 -0.2303  1.2735 -1.1347
18443TIP3   OH276819   2.812   5.942   3.983 -0.3182  0.0168  0.0582
18443TIP3    H176820   2.729   5.897   4.000  0.8093 -1.7143  1.0200
18443TIP3    H276821   2.845   5.901   3.903 -0.5329  0.9216 -0.4982
18444TIP3   OH276822   5.146   1.203  11.816 -0.3007 -0.4509  0.2638
18444TIP3    H176823   5.146   1.293  11.849 -1.8172  0.0028 -0.9215
18444TIP3    H276824   5.150   1.213  11.720  2.4483 -1.7135  0.1952
18445TIP3   OH276825   3.152   1.909  11.938  0.0033 -0.0616 -0.1719
18445TIP3    H176826   3.190   1.881  11.855  1.8346 -4.7921  2.0363
18445TIP3    H276827   3.224   1.948  11.986 -0.0383 -1.0768  0.7266
18446TIP3   OH276828   1.401   4.848   3.354  0.1859  0.0305  0.9254
18446TIP3    H176829   1.384   4.931   3.309 -0.0018 -1.0710 -1.0809
18446TIP3    H276830   1.319   4.799   3.347 -0.0114  0.0173  2.9324
18447TIP3   OH276831   1.647   4.212  15.870 -0.1116  0.4041  0.4049
18447TIP3    H176832   1.690   4.128  15.887  0.8676  0.8974  0.3846
18447TIP3    H276833   1.559   4.201  15.905  0.3074 -0.3119  1.2501
18448TIP3   OH276834   6.468   5.398   4.665  0.3980  0.0610  0.0159
18448TIP3    H176835   6.552   5.352   4.657 -0.8396 -2.0873 -1.1842
18448TIP3    H276836   6.467   5.459   4.592  0.8354 -0.0560 -0.0877
18449TIP3   OH276837   1.667   1.954   0.345 -0.4433  0.3303  0.4740
18449TIP3    H176838   1.669   1.887   0.278 -1.4648  1.5835 -0.8327
18449TIP3    H276839   1.574   1.972   0.359 -0.1455  3.3706 -1.1440
18450TIP3   OH276840   2.656   3.573  15.609  0.0744  0.4641 -0.1848
18450TIP3    H176841   2.726   3.619  15.656  1.6786 -2.3893  0.3687
18450TIP3    H276842   2.669   3.481  15.633 -2.9230 -0.2996 -1.3537
18451TIP3   OH276843   6.047   0.239   0.620  0.5905  0.0025 -0.1266
18451TIP3    H176844   6.045   0.188   0.538 -3.4790  1.9278 -1.3487
18451TIP3    H276845   5.987   0.193   0.678  4.5552 -2.1774  2.4351
18452TIP3   OH276846   2.073   2.118  15.099  0.1937  0.1007 -0.5851
18452TIP3    H176847   2.049   2.029  15.072 -0.4904 -0.0772  0.5972
18452TIP3    H276848   2.148   2.106  15.157  1.5832  0.4787 -2.2541
18453TIP3   OH276849   3.918   0.963  13.861 -0.5693  0.0620 -0.4804
18453TIP3    H176850   4.004   0.925  13.875  0.3594  2.1563 -0.3011
18453TIP3    H276851   3.923   1.051  13.899 -2.1781  0.9103 -2.0822
18454TIP3   OH276852   2.256   0.177   2.094  0.1201  0.3978 -0.1554
18454TIP3    H176853   2.242   0.261   2.138 -1.2213  0.0935  0.0180
18454TIP3    H276854   2.325   0.135   2.145  0.5808  1.2484 -0.0505
18455TIP3   OH276855   0.144   2.232  13.805  0.1319 -0.2170  0.3289
18455TIP3    H176856   0.144   2.323  13.834 -1.7820  0.2026 -0.9314
18455TIP3    H276857   0.234   2.216  13.775  0.6553  1.0249  1.2020
18456TIP3   OH276858   1.410   4.818  11.773 -0.3388  0.2803 -0.3921
18456TIP3    H176859   1.436   4.802  11.682  1.7469 -0.3416  0.2776
18456TIP3    H276860   1.438   4.739  11.820  2.0038  2.0894  1.4171
18457TIP3   OH276861   5.739   6.673   4.787 -0.1076 -0.1496 -0.1310
18457TIP3    H176862   5.749   6.763   4.818 -1.0878 -0.3395  0.7696
18457TIP3    H276863   5.646   6.652   4.802  0.2576 -1.5408  0.3141
18458TIP3   OH276864   0.955   4.983  16.155 -0.0073 -0.4418  0.0510
18458TIP3    H176865   0.924   4.963  16.066 -1.3550 -1.3629  0.7103
18458TIP3    H276866   0.993   5.071  16.147  0.5860 -0.8250 -1.6022
18459TIP3   OH276867   3.274   0.670  14.039 -0.0952 -0.1604  0.2822
18459TIP3    H176868   3.288   0.583  14.002 -1.1425 -0.4486  0.5271
18459TIP3    H276869   3.234   0.653  14.125 -0.1132  0.5565  0.4191
18460TIP3   OH276870   6.719   2.756  13.290 -0.3874  0.1246  0.1464
18460TIP3    H176871   6.757   2.825  13.235 -0.2837  0.0363  0.1080
18460TIP3    H276872   6.632   2.741  13.254  0.3208 -1.1565 -1.0699
18461TIP3   OH276873   5.207   3.035  14.683 -0.1812  0.0571  0.7431
18461TIP3    H176874   5.151   3.017  14.607 -0.7154  1.9867  0.6652
18461TIP3    H276875   5.145   3.055  14.753  0.3920  2.0485  0.6954
18462TIP3   OH276876   4.028   1.175  16.396  0.4977  0.3230  0.3415
18462TIP3    H176877   4.049   1.231  16.471  1.8024 -1.0233  1.0059
18462TIP3    H276878   3.960   1.116  16.429  0.2257  0.5074  0.1086
18463TIP3   OH276879   6.579   1.080  15.429 -0.1882  0.2369  0.3617
18463TIP3    H176880   6.583   1.119  15.516  0.3472 -1.3756  1.0830
18463TIP3    H276881   6.669   1.054  15.410 -0.5792 -0.9065  0.0355
18464TIP3   OH276882   5.416   4.982  11.688 -0.2447  0.5101  0.1154
18464TIP3    H176883   5.349   5.048  11.670  0.5429  0.8364 -1.8601
18464TIP3    H276884   5.425   4.934  11.605 -0.6804 -1.9840  1.4778
18465TIP3   OH276885   2.365   3.884   3.903 -0.1653  0.1634 -0.4027
18465TIP3    H176886   2.346   3.933   3.983  2.3731 -2.0719  1.6802
18465TIP3    H276887   2.453   3.913   3.878  0.0369 -0.9388 -0.9760
18466TIP3   OH276888   3.830   3.240  12.393 -0.0225 -0.5613 -0.4870
18466TIP3    H176889   3.831   3.328  12.357  0.6250  0.2024  1.3225
18466TIP3    H276890   3.850   3.252  12.486 -0.0171 -2.6034 -0.1986
18467TIP3   OH276891   2.582   6.809  15.579  0.2032 -0.5897 -0.3568
18467TIP3    H176892   2.585   6.729  15.632 -0.6955 -1.0653 -1.0146
18467TIP3    H276893   2.559   6.779  15.491  0.6795  0.3049 -0.7957
18468TIP3   OH276894   4.718   0.814  14.872 -0.3224 -0.2091  0.5942
18468TIP3    H176895   4.643   0.831  14.816  0.9800 -1.0894 -1.4414
18468TIP3    H276896   4.793   0.850  14.824  0.5225  1.2493  2.8801
18469TIP3   OH276897   5.116   0.945  14.381  0.0063  0.7480  0.2538
18469TIP3    H176898   5.028   0.978  14.400 -0.5126  0.1625 -1.0874
18469TIP3    H276899   5.155   1.012  14.324  0.0824  0.5437  0.0666
18470TIP3   OH276900   6.217   1.898   2.382 -0.3903 -0.0201  0.6598
18470TIP3    H176901   6.283   1.967   2.387  0.5130 -0.9002  1.2288
18470TIP3    H276902   6.140   1.934   2.426 -0.2563  0.9820  0.0743
18471TIP3   OH276903   2.749   4.938   3.435  0.1100  0.5348 -0.2125
18471TIP3    H176904   2.778   4.860   3.387 -0.1732  0.9004 -0.9997
18471TIP3    H276905   2.720   4.905   3.520 -0.4913 -0.2857 -0.7308
18472TIP3   OH276906   0.745   3.576  15.383 -0.3927 -0.6305 -0.4168
18472TIP3    H176907   0.737   3.570  15.288 -0.5022  0.1663 -0.4646
18472TIP3    H276908   0.664   3.538  15.416 -0.3514 -0.9182 -0.6446
18473TIP3   OH276909   1.834   3.578  11.133  0.2638 -0.2198  0.1208
18473TIP3    H176910   1.838   3.624  11.049 -0.9650 -1.4372 -0.6109
18473TIP3    H276911   1.913   3.523  11.134  1.4286  1.4235  0.7430
18474TIP3   OH276912   6.675   5.809  16.991  0.4483 -0.0534  0.1069
18474TIP3    H176913   6.672   5.715  17.009 -2.7327 -0.0421 -0.0851
18474TIP3    H276914   6.673   5.850  17.078  1.5963 -0.1674  0.1873
18475TIP3   OH276915   5.841   1.172  14.584 -0.8144 -0.4377 -0.0238
18475TIP3    H176916   5.796   1.181  14.500  1.5457  0.5124 -1.2194
18475TIP3    H276917   5.877   1.083  14.583 -0.6323 -0.3637 -0.1053
18476TIP3   OH276918   4.526   5.392   1.724  0.1252 -0.1648 -0.3787
18476TIP3    H176919   4.431   5.383   1.726  0.0872 -0.1072 -1.6183
18476TIP3    H276920   4.542   5.478   1.764 -0.3755  0.0455 -0.6201
18477TIP3   OH276921   2.069   5.094  15.125  0.5704  0.6800  0.3942
18477TIP3    H176922   2.070   5.049  15.040 -0.1779  0.6786  0.3843
18477TIP3    H276923   2.118   5.175  15.109  1.2988  0.2121  0.2251
18478TIP3   OH276924   3.380   6.572  11.595  0.2370 -0.3585  0.0007
18478TIP3    H176925   3.318   6.536  11.532 -0.5811  1.2313 -0.1258
18478TIP3    H276926   3.389   6.664  11.571  1.3517 -0.1658  1.0677
18479TIP3   OH276927   0.646   4.006  14.634  0.3467 -0.0939  0.4473
18479TIP3    H176928   0.719   4.027  14.693  2.2983  0.4086 -2.0634
18479TIP3    H276929   0.683   3.945  14.571 -1.0250  1.2251 -1.6743
18480TIP3   OH276930   3.100   0.446  12.923  0.6120  0.4136  0.0912
18480TIP3    H176931   3.145   0.373  12.881  0.8147  0.4384  0.2674
18480TIP3    H276932   3.009   0.439  12.892  0.7331  0.3627 -0.2563
18481TIP3   OH276933   2.841   6.527  11.698  0.3059 -0.4617 -0.0091
18481TIP3    H176934   2.828   6.432  11.697  0.6107 -0.5062 -2.3209
18481TIP3    H276935   2.909   6.543  11.633  0.3470  1.3501  0.4429
18482TIP3   OH276936   3.900   0.722  11.894 -0.2745 -0.0613  0.0080
18482TIP3    H176937   3.926   0.804  11.934  4.5193 -0.6693 -1.5698
18482TIP3    H276938   3.902   0.740  11.800 -1.0861 -1.4767 -0.2957
18483TIP3   OH276939   3.679   5.502  12.432  0.4947  0.2139 -0.5604
18483TIP3    H176940   3.678   5.503  12.527 -0.2357 -0.6705 -0.5551
18483TIP3    H276941   3.595   5.464  12.407  1.4945 -1.4026 -1.5275
18484TIP3   OH276942   5.925   2.600  10.678  0.4751 -0.1223  0.3223
18484TIP3    H176943   5.842   2.621  10.721  0.3324 -0.6016  0.2831
18484TIP3    H276944   5.948   2.679  10.629  0.4436  0.2901  0.9756
18485TIP3   OH276945   1.434   1.395  13.747  0.1323  0.4173  0.5386
18485TIP3    H176946   1.517   1.403  13.701 -0.2366  2.1194  0.1225
18485TIP3    H276947   1.436   1.465  13.812 -0.1954 -0.7159  1.7862
18486TIP3   OH276948   5.654   5.855  15.338  0.3841 -0.2878  0.6520
18486TIP3    H176949   5.717   5.926  15.327 -0.6193  0.7460  1.2911
18486TIP3    H276950   5.571   5.901  15.355 -0.7530 -1.5782 -1.2287
18487TIP3   OH276951   3.812   5.026   3.320  0.1014  0.1949 -0.2103
18487TIP3    H176952   3.904   5.046   3.340 -0.2088  1.3383  0.1309
18487TIP3    H276953   3.810   4.931   3.307  1.4320  0.2353 -0.7583
18488TIP3   OH276954   2.478   0.493   0.011  0.1859 -0.4424  0.4337
18488TIP3    H176955   2.569   0.505  -0.018  1.7367 -3.2749  3.6948
18488TIP3    H276956   2.448   0.416  -0.036 -1.4961  1.9854 -2.5873
18489TIP3   OH276957   0.387   3.357  13.150  0.4198 -0.0912  0.6299
18489TIP3    H176958   0.447   3.311  13.209  0.2920 -0.6603  0.3245
18489TIP3    H276959   0.439   3.377  13.073  0.0474 -1.1703  0.0927
18490TIP3   OH276960   0.966   4.972   6.427 -0.0341  0.1192 -0.2123
18490TIP3    H176961   1.029   5.038   6.399  1.0349 -1.2781 -1.2045
18490TIP3    H276962   1.000   4.890   6.390 -2.3129 -0.6900 -0.5742
18491TIP3   OH276963   0.308   2.828   5.025 -0.3590 -0.4786  0.4538
18491TIP3    H176964   0.333   2.912   4.986  0.1104 -1.2915 -1.0509
18491TIP3    H276965   0.365   2.818   5.101  2.9438 -1.5992 -2.0512
18492TIP3   OH276966   1.631   2.618   1.995 -0.0026  0.1592  0.8018
18492TIP3    H176967   1.556   2.652   1.946 -0.0165  1.7725  1.9267
18492TIP3    H276968   1.692   2.589   1.927 -1.1170 -0.0479 -0.1354
18493TIP3   OH276969   0.887   5.418   4.285 -0.0752  0.0665  0.1550
18493TIP3    H176970   0.955   5.431   4.351 -1.2551  0.8645  1.2509
18493TIP3    H276971   0.849   5.505   4.272  0.9945  0.1684 -2.5626
18494TIP3   OH276972   6.556   6.433   0.969  0.3112 -0.2883  0.5095
18494TIP3    H176973   6.484   6.486   0.932  0.2408  0.3426  1.5307
18494TIP3    H276974   6.520   6.345   0.975 -1.2842  0.5129  3.4100
18495TIP3   OH276975   1.095   0.132   4.177  0.5673 -0.2196  0.3333
18495TIP3    H176976   1.067   0.040   4.170  0.7524 -0.4078  1.8925
18495TIP3    H276977   1.083   0.167   4.089 -3.9945 -0.4404  0.7559
18496TIP3   OH276978   2.511   3.589  12.827 -0.2056  0.5285 -0.4615
18496TIP3    H176979   2.496   3.663  12.886  1.1272 -0.3355  0.9889
18496TIP3    H276980   2.571   3.623  12.761  1.3286  0.4287  0.8649
18497TIP3   OH276981   5.944   0.971  12.887  0.2162 -0.0258 -0.4088
18497TIP3    H176982   5.855   0.957  12.853 -0.3292 -0.9741  1.3840
18497TIP3    H276983   5.984   0.884  12.885  1.1875  0.4261 -1.3731
18498TIP3   OH276984   2.425   4.002  10.781  0.3542  0.4766  0.1455
18498TIP3    H176985   2.346   3.963  10.744  1.4180 -1.1913 -0.4258
18498TIP3    H276986   2.415   4.096  10.764 -0.5312  0.0670 -1.8415
18499TIP3   OH276987   3.643   0.708   3.887 -0.4299 -0.4277 -0.1002
18499TIP3    H176988   3.632   0.742   3.976  0.3693 -0.6881  0.1028
18499TIP3    H276989   3.604   0.774   3.831  0.0600  0.2760  0.3759
18500TIP3   OH276990   5.050   1.097  15.438 -0.6877 -0.1459  0.5008
18500TIP3    H176991   4.976   1.121  15.382  0.0786  1.3035  0.0815
18500TIP3    H276992   5.011   1.041  15.506 -2.0728  0.1756 -0.0029
18501TIP3   OH276993   0.313   1.904  15.539  0.0260  0.0134 -0.3913
18501TIP3    H176994   0.240   1.948  15.496 -0.5399  0.0787  0.6192
18501TIP3    H276995   0.387   1.963  15.528 -1.0256  1.9091  2.1250
18502TIP3   OH276996   0.284   5.677  16.232  0.5014  0.6878 -0.2410
18502TIP3    H176997   0.261   5.719  16.314  0.2352  0.0361  0.0173
18502TIP3    H276998   0.219   5.607  16.221  0.8792  0.4049 -0.7138
18503TIP3   OH276999   2.282   3.299   0.546 -0.2838 -0.5613 -0.2453
18503TIP3    H177000   2.200   3.331   0.508 -0.0734 -0.3704 -0.5463
18503TIP3    H277001   2.342   3.293   0.471  0.9266  2.2853  0.4346
18504TIP3   OH277002   5.701   1.447   0.067 -0.2362 -0.5441 -0.1176
18504TIP3    H177003   5.705   1.406   0.153  0.7094  0.7878  0.4837
18504TIP3    H277004   5.615   1.423   0.033 -0.4827 -1.3555  1.0475
18505TIP3   OH277005   3.495   5.242   4.013 -0.8939  0.2259 -0.3635
18505TIP3    H177006   3.468   5.150   4.016  2.3249 -0.7410 -0.1336
18505TIP3    H277007   3.567   5.244   3.951 -0.0406  2.3773  0.6638
18506TIP3   OH277008   5.186   4.098   5.112 -0.0462  0.6524  0.1805
18506TIP3    H177009   5.129   4.046   5.168 -1.5366  2.2051  0.1536
18506TIP3    H277010   5.247   4.035   5.074 -0.5719 -0.7683  1.6421
18507TIP3   OH277011   5.394   2.235   0.772 -0.0999 -0.4052 -0.6461
18507TIP3    H177012   5.469   2.285   0.805 -0.3191  0.4916 -1.5080
18507TIP3    H277013   5.409   2.229   0.678  1.7772 -5.0122 -0.2152
18508TIP3   OH277014   4.914   6.107  11.787  0.0837 -0.1555  0.0927
18508TIP3    H177015   4.869   6.040  11.839  0.4014  0.3106  0.9610
18508TIP3    H277016   4.886   6.190  11.825  0.3433  0.1851 -0.4613
18509TIP3   OH277017   6.550   1.840   4.409  0.6333 -0.0919  0.0753
18509TIP3    H177018   6.585   1.759   4.445 -1.9526 -0.8066  1.0769
18509TIP3    H277019   6.541   1.898   4.485 -0.4122  0.0544 -0.1540
18510TIP3   OH277020   2.140   2.774   0.227  0.5296 -0.9899 -0.3904
18510TIP3    H177021   2.157   2.832   0.301  2.6977  0.6748 -2.1132
18510TIP3    H277022   2.045   2.760   0.229  0.3752  0.0703  1.9132
18511TIP3   OH277023   1.789   0.819  13.886 -0.1986 -0.5993  0.5775
18511TIP3    H177024   1.708   0.769  13.894 -1.3720  1.0532 -0.6662
18511TIP3    H277025   1.831   0.784  13.808 -1.7408  1.2554 -1.1645
18512TIP3   OH277026   5.296   6.339  12.849  0.1300  0.3324 -0.5233
18512TIP3    H177027   5.267   6.273  12.786 -0.9509  1.4599 -1.2360
18512TIP3    H277028   5.391   6.330  12.851 -0.0797 -1.9463  0.1857
18513TIP3   OH277029   2.566   6.047   0.097  0.5568 -0.1043  1.1129
18513TIP3    H177030   2.514   6.124   0.076  1.1108  0.1105  0.5393
18513TIP3    H277031   2.657   6.075   0.087  0.7996 -0.4637  2.1571
18514TIP3   OH277032   5.577   2.315  15.112 -0.3761 -0.0921  0.1913
18514TIP3    H177033   5.510   2.381  15.131 -0.2184  0.7810 -2.1693
18514TIP3    H277034   5.532   2.248  15.061  0.2239 -0.1704 -0.2407
18515TIP3   OH277035   2.697   6.213  11.446 -0.3169  0.4257 -0.0394
18515TIP3    H177036   2.615   6.192  11.492 -1.0730 -0.6240 -1.7809
18515TIP3    H277037   2.763   6.162  11.492 -0.5688  1.5134  1.5788
18516TIP3   OH277038   2.342   4.311   0.424 -0.0202 -0.5618 -0.1627
18516TIP3    H177039   2.300   4.361   0.494 -0.6602 -2.2057  0.6504
18516TIP3    H277040   2.429   4.290   0.458 -0.5845 -1.9566  0.4243
18517TIP3   OH277041   1.048   3.873   3.301  0.0391  0.0983  0.1679
18517TIP3    H177042   1.078   3.806   3.363 -1.9059 -0.2661  0.7301
18517TIP3    H277043   1.128   3.900   3.254  1.0665 -1.5650  0.9404
18518TIP3   OH277044   3.057   2.032   6.724  0.1789  0.1227  0.6458
18518TIP3    H177045   2.984   2.091   6.704 -1.2815 -1.9188 -0.2238
18518TIP3    H277046   3.112   2.034   6.646  1.3137  2.0079  1.4754
18519TIP3   OH277047   2.861   5.569  14.761 -0.2005 -0.4738  0.4045
18519TIP3    H177048   2.836   5.660  14.774  1.1923  0.4451 -2.8608
18519TIP3    H277049   2.948   5.562  14.799  0.7506  0.2763 -1.5377
18520TIP3   OH277050   0.703   1.887  11.683  0.0082 -0.3846 -0.2092
18520TIP3    H177051   0.674   1.971  11.648  1.6703  0.1359 -0.3423
18520TIP3    H277052   0.730   1.906  11.773 -0.0479 -0.8706 -0.0835
18521TIP3   OH277053   1.143   6.488   0.565  0.3116 -0.3852 -0.0366
18521TIP3    H177054   1.162   6.579   0.588  0.1750 -0.1772 -0.7364
18521TIP3    H277055   1.223   6.457   0.523  0.6141 -0.8107  0.8365
18522TIP3   OH277056   6.095   4.540  15.169 -0.0952  0.0106 -0.3550
18522TIP3    H177057   6.002   4.525  15.180 -0.3837  0.8285 -1.5955
18522TIP3    H277058   6.107   4.634  15.185  0.6518 -0.2575  0.6988
18523TIP3   OH277059   5.848   3.916  13.481 -0.5262 -0.1651 -0.1005
18523TIP3    H177060   5.924   3.966  13.452 -0.9067  0.0761 -0.6874
18523TIP3    H277061   5.783   3.983  13.504 -0.8576 -0.3796 -0.4082
18524TIP3   OH277062   0.878   4.032  14.814  0.3964  0.3426  0.1479
18524TIP3    H177063   0.838   4.032  14.901  2.1299  1.3050  0.9660
18524TIP3    H277064   0.943   3.961  14.818  0.6184  0.5187 -0.2959
18525TIP3   OH277065   3.937   0.349  17.093  0.1835 -0.3555  0.3192
18525TIP3    H177066   3.890   0.266  17.098 -1.0764  0.2880 -0.5711
18525TIP3    H277067   3.910   0.387  17.009  1.6231  0.4329  0.1909
18526TIP3   OH277068   5.043   3.269  11.497 -0.4672  0.2070  0.9993
18526TIP3    H177069   5.032   3.304  11.585  2.5611 -0.1313  1.5517
18526TIP3    H277070   5.021   3.342  11.439 -1.9100  0.6025  2.0254
18527TIP3   OH277071   2.547   2.700   3.484  0.5401 -0.5625 -0.2444
18527TIP3    H177072   2.545   2.607   3.460 -2.3296 -0.3643 -0.9523
18527TIP3    H277073   2.468   2.713   3.535  0.1655  1.8169 -1.3705
18528TIP3   OH277074   5.198   4.115  13.974  0.2904 -0.1203  0.0745
18528TIP3    H177075   5.148   4.072  14.043  0.1904 -0.9777 -0.5176
18528TIP3    H277076   5.267   4.163  14.020  1.0960 -1.8374  0.6845
18529TIP3   OH277077   4.966   6.672  14.601 -0.4367  0.0482 -0.0476
18529TIP3    H177078   4.887   6.622  14.580 -0.7386  0.7289 -0.5315
18529TIP3    H277079   4.942   6.725  14.677  0.4979 -2.0278  1.7368
18530TIP3   OH277080   0.333   4.333  17.102 -0.2974 -0.0138  0.3388
18530TIP3    H177081   0.398   4.383  17.051 -0.1206 -0.1782  0.4026
18530TIP3    H277082   0.338   4.245  17.066 -1.0584  0.1540 -0.2045
18531TIP3   OH277083   4.899   0.704  13.046  0.1120  0.3594 -0.0688
18531TIP3    H177084   4.941   0.790  13.046  2.8907 -0.9268  1.9011
18531TIP3    H277085   4.888   0.683  12.953 -1.3048  3.0961 -0.5965
18532TIP3   OH277086   4.082   1.147   2.186 -0.1509 -0.4206 -0.3979
18532TIP3    H177087   4.026   1.115   2.115  0.1358  0.2600 -0.9309
18532TIP3    H277088   4.057   1.239   2.197 -1.9183 -1.1245  2.0441
18533TIP3   OH277089   1.121   0.636  14.127 -0.2386  0.2234 -0.1122
18533TIP3    H177090   1.070   0.641  14.045 -1.8362  1.0049  0.9125
18533TIP3    H277091   1.206   0.671  14.104  0.0212 -1.5327 -1.9924
18534TIP3   OH277092   5.391   0.097  12.781  0.4913 -0.0820  0.6312
18534TIP3    H177093   5.455   0.037  12.819  0.5886  0.6835  1.6939
18534TIP3    H277094   5.361   0.053  12.702  2.1475 -0.5633  0.2503
18535TIP3   OH277095   3.139   4.406   0.578 -0.0307  0.2470  0.1575
18535TIP3    H177096   3.100   4.319   0.589  0.0817  0.4861  2.7105
18535TIP3    H277097   3.077   4.454   0.524 -1.1302 -0.7741  0.5107
18536TIP3   OH277098   5.522   3.966  15.262 -0.3124  0.0702 -0.2981
18536TIP3    H177099   5.582   3.892  15.254 -0.3130  0.1180 -0.7458
18536TIP3    H277100   5.467   3.961  15.184 -1.9921 -0.9446  0.9117
18537TIP3   OH277101   2.808   2.961   1.556 -0.9802 -0.6417 -0.4936
18537TIP3    H177102   2.748   2.887   1.547 -2.0987 -0.0609  1.8833
18537TIP3    H277103   2.752   3.035   1.579  0.3976  0.4079 -0.4451
18538TIP3   OH277104   6.341   1.214   5.325  0.2358  0.1684  0.2057
18538TIP3    H177105   6.315   1.304   5.346 -1.1678 -0.5379  1.6613
18538TIP3    H277106   6.257   1.168   5.312  0.9533 -0.8009 -1.0793
18539TIP3   OH277107   4.114   5.978   0.227  0.6549  0.3364 -0.0556
18539TIP3    H177108   4.144   5.937   0.308 -0.9432 -2.1320 -0.6616
18539TIP3    H277109   4.050   6.042   0.254  1.2388  0.5936  0.7354
18540TIP3   OH277110   6.570   5.689   4.258  0.2894  0.1796  0.3042
18540TIP3    H177111   6.618   5.610   4.280  1.1439  0.6737  0.2069
18540TIP3    H277112   6.621   5.731   4.189  0.8429  1.7778  1.6547
18541TIP3   OH277113   5.536   2.337  13.718  0.4833  0.0064  0.1520
18541TIP3    H177114   5.595   2.358  13.790  1.0835  2.0977 -0.8890
18541TIP3    H277115   5.595   2.322  13.643 -0.2602  1.6270 -0.7811
18542TIP3   OH277116   3.663   1.842  14.800 -0.3683 -0.5288 -0.3749
18542TIP3    H177117   3.601   1.808  14.735  1.6679 -1.7654 -1.7244
18542TIP3    H277118   3.689   1.764  14.850  1.1765 -0.2880 -0.7738
18543TIP3   OH277119   2.146   5.363   5.282 -0.3989 -0.4146  0.3075
18543TIP3    H177120   2.053   5.384   5.285 -0.3193  0.0663 -0.4142
18543TIP3    H277121   2.189   5.449   5.283 -0.0310 -0.5555 -1.5513
18544TIP3   OH277122   6.460   2.083   0.112  0.1286  0.3431 -0.0705
18544TIP3    H177123   6.419   2.021   0.171  0.4962 -0.8801 -1.0761
18544TIP3    H277124   6.389   2.142   0.086  0.0575  1.1380  1.8776
18545TIP3   OH277125   1.203   4.814  14.028 -0.0748  0.6221 -0.1224
18545TIP3    H177126   1.285   4.815  13.979  0.4114  1.8220  0.7180
18545TIP3    H277127   1.214   4.743  14.092 -0.1869 -0.0410 -0.8255
18546TIP3   OH277128   3.845   1.647  11.357  0.5730 -0.4677  0.4580
18546TIP3    H177129   3.915   1.709  11.336 -0.0603 -0.2293 -1.0200
18546TIP3    H277130   3.883   1.561  11.341  1.1097 -0.4298  1.4685
18547TIP3   OH277131   0.040   5.187  14.374 -0.3680 -0.0938 -0.1575
18547TIP3    H177132   0.062   5.170  14.466 -2.2201  1.5051  0.6049
18547TIP3    H277133   0.101   5.256  14.347 -0.2760 -0.0893  0.0628
18548TIP3   OH277134   5.782   5.773  10.977 -0.6531 -0.6171 -0.3054
18548TIP3    H177135   5.704   5.727  11.009 -0.9404 -1.1430 -1.7457
18548TIP3    H277136   5.837   5.703  10.940  0.2054 -0.1584  0.0787
18549TIP3   OH277137   4.486   3.012  13.969 -0.1793  0.0073  0.3893
18549TIP3    H177138   4.460   3.024  13.878  0.9382 -1.0908 -0.0916
18549TIP3    H277139   4.404   3.012  14.018 -0.7133  1.7156 -0.4799
18550TIP3   OH277140   4.775   4.377   1.674  0.4306 -0.0048 -0.7040
18550TIP3    H177141   4.759   4.406   1.584  0.7508 -1.6880 -1.3297
18550TIP3    H277142   4.810   4.288   1.664 -1.1371 -0.8629  1.1429
18551TIP3   OH277143   4.688   0.080   5.084  0.4649  0.0573  0.0722
18551TIP3    H177144   4.751   0.011   5.106 -1.0866 -1.8180 -1.1550
18551TIP3    H277145   4.713   0.109   4.996  0.9239  0.8525  0.4603
18552TIP3   OH277146   1.655   4.979   5.530 -0.0027  0.7830 -0.0198
18552TIP3    H177147   1.625   4.969   5.620  0.7859 -1.1892  0.0494
18552TIP3    H277148   1.746   5.008   5.538  0.0477  0.6695 -0.1736
18553TIP3   OH277149   3.848   5.218  12.966 -0.9328 -0.2038 -0.0623
18553TIP3    H177150   3.826   5.251  13.053  0.3045  0.2853  0.0788
18553TIP3    H277151   3.938   5.186  12.974 -1.0634 -0.8533 -0.9746
18554TIP3   OH277152   0.122   2.697  15.686  0.0724  0.6023  0.2094
18554TIP3    H177153   0.169   2.615  15.671 -1.6841 -0.4454  0.3968
18554TIP3    H277154   0.187   2.754  15.727  1.6341 -0.3025 -0.9657
18555TIP3   OH277155   3.471   1.664  14.202 -0.0827  0.7175  0.9358
18555TIP3    H177156   3.455   1.757  14.186 -0.0515  0.5684 -0.0030
18555TIP3    H277157   3.384   1.628  14.221 -0.7483  0.1954 -2.6891
18556TIP3   OH277158   3.611   5.657   6.027  0.1004 -0.5192  0.0347
18556TIP3    H177159   3.691   5.694   6.064 -0.7109  0.6250  0.6834
18556TIP3    H277160   3.641   5.582   5.974  1.4396 -1.0314  1.4854
18557TIP3   OH277161   4.504   5.545  13.963 -0.1448  0.0770  0.0935
18557TIP3    H177162   4.484   5.465  14.011 -0.6468  0.9944  1.4488
18557TIP3    H277163   4.467   5.531  13.876 -0.5340 -1.0183  0.4242
18558TIP3   OH277164   4.290   3.671  10.575  0.8026 -0.0708 -0.2879
18558TIP3    H177165   4.265   3.716  10.494 -1.8828 -0.4435  0.2603
18558TIP3    H277166   4.274   3.735  10.644  2.2391 -0.0511  0.0416
18559TIP3   OH277167   1.747   2.183   1.631 -0.2865  0.1212  0.6046
18559TIP3    H177168   1.781   2.135   1.706 -2.1255 -0.2150  1.2534
18559TIP3    H277169   1.655   2.155   1.624 -0.0894  0.0008 -1.8820
18560TIP3   OH277170   3.017   6.249  14.321 -0.5241 -1.0353 -0.2473
18560TIP3    H177171   3.041   6.184  14.255 -0.4766 -1.6077  0.3266
18560TIP3    H277172   2.958   6.308  14.275 -1.3712 -2.0625 -0.5218
18561TIP3   OH277173   4.826   0.291  16.918  0.1512 -0.4406  0.3875
18561TIP3    H177174   4.814   0.385  16.925  0.7516 -0.3464  0.1517
18561TIP3    H277175   4.823   0.259  17.008  0.7626 -0.0936  0.5327
18562TIP3   OH277176   3.200   1.036  13.865 -0.2681 -0.3628 -0.9186
18562TIP3    H177177   3.153   0.969  13.914 -1.6743  0.1640 -1.5356
18562TIP3    H277178   3.257   1.078  13.930 -2.5911  0.7750  0.4366
18563TIP3   OH277179   3.520   3.944   4.828  0.2977  0.0409 -0.5055
18563TIP3    H177180   3.494   3.895   4.750  2.2336  0.1900 -1.2902
18563TIP3    H277181   3.606   3.908   4.851 -0.5298 -0.4194  1.9430
18564TIP3   OH277182   4.736   1.077   1.804 -0.0595  0.2579  0.4204
18564TIP3    H177183   4.715   1.016   1.874 -1.1998  2.4507  2.0667
18564TIP3    H277184   4.651   1.098   1.764  0.2053  1.3947  0.4345
18565TIP3   OH277185   4.599   0.559   4.776 -0.1482  0.0013 -0.1779
18565TIP3    H177186   4.660   0.627   4.803 -0.3330  0.7114 -1.5416
18565TIP3    H277187   4.643   0.514   4.703 -0.4636 -0.6868  0.0471
18566TIP3   OH277188   6.532   2.700   0.150  0.1458 -0.0599 -0.0118
18566TIP3    H177189   6.571   2.691   0.237 -0.0488 -0.8711  0.0008
18566TIP3    H277190   6.537   2.612   0.113 -0.5272  0.1035 -0.4986
18567TIP3   OH277191   5.575   1.017   2.257 -0.2488 -0.1185  0.0739
18567TIP3    H177192   5.531   1.038   2.175 -0.8758 -0.5077  0.3071
18567TIP3    H277193   5.641   1.086   2.267 -0.6325  0.3222 -0.4057
18568TIP3   OH277194   2.393   5.754  13.089 -0.3225 -0.2286  0.4381
18568TIP3    H177195   2.423   5.708  13.010  1.5831  0.0065  1.0219
18568TIP3    H277196   2.314   5.800  13.060  0.7085  0.3774 -1.5043
18569TIP3   OH277197   0.793   5.596  15.596  0.0303 -0.4560  0.7696
18569TIP3    H177198   0.711   5.567  15.636  1.0813 -0.9204  2.6204
18569TIP3    H277199   0.779   5.689  15.578  0.4380  0.4795  4.7219
18570TIP3   OH277200   4.726   5.176  16.347 -0.3760 -0.0544  0.2066
18570TIP3    H177201   4.658   5.160  16.282  0.0336 -0.7558 -0.0617
18570TIP3    H277202   4.722   5.270  16.364 -1.3382 -0.0835  0.1185
18571TIP3   OH277203   5.499   2.996  12.751  0.2421  0.1596 -0.5636
18571TIP3    H177204   5.473   2.908  12.724 -0.5758  0.4274 -0.6708
18571TIP3    H277205   5.428   3.052  12.719  1.2029  0.9647 -1.2749
18572TIP3   OH277206   1.230   4.535  14.204  0.2274  0.1383 -0.4534
18572TIP3    H177207   1.295   4.546  14.274 -0.9533 -0.5625  0.7880
18572TIP3    H277208   1.280   4.508  14.128  1.7545  2.4712 -0.3375
18573TIP3   OH277209   6.786   1.347   0.145  0.6392 -0.0593 -0.2010
18573TIP3    H177210   6.870   1.301   0.146  0.6626 -0.0299 -0.9082
18573TIP3    H277211   6.799   1.420   0.206  0.8162 -0.5952  0.4163
18574TIP3   OH277212   4.633   3.036  14.205  0.1797 -0.4552  1.0311
18574TIP3    H177213   4.584   3.021  14.124  0.7580 -2.4710  1.0264
18574TIP3    H277214   4.578   2.997  14.273 -0.1659  0.9805  1.5946
18575TIP3   OH277215   4.305   6.294   3.144  0.2264  0.3854 -0.3276
18575TIP3    H177216   4.298   6.243   3.225  1.3671  0.6592 -0.0362
18575TIP3    H277217   4.392   6.272   3.110 -0.3881 -0.0048 -1.6788
18576TIP3   OH277218   3.121   1.482  11.959  0.4527 -0.2073  0.3976
18576TIP3    H177219   3.147   1.549  12.022  2.0148 -0.7286  0.3322
18576TIP3    H277220   3.076   1.416  12.012  2.2959 -0.9432  1.1255
18577TIP3   OH277221   5.205   1.892  13.111  0.2654  0.5289  0.4067
18577TIP3    H177222   5.247   1.858  13.190 -1.2812 -0.5058  0.7962
18577TIP3    H277223   5.263   1.866  13.040  0.0295 -1.3174  0.8842
18578TIP3   OH277224   5.771   1.461  14.268 -0.1987  0.1965 -0.2852
18578TIP3    H177225   5.765   1.506  14.183  1.0584  2.2314  0.6473
18578TIP3    H277226   5.804   1.528  14.328  1.4569 -1.9263  1.2591
18579TIP3   OH277227   2.143   3.390  13.193  0.2226  0.0883  0.4758
18579TIP3    H177228   2.163   3.458  13.129  0.4546 -0.7598 -0.3700
18579TIP3    H277229   2.225   3.379  13.243  0.0869  0.6454  0.8190
18580TIP3   OH277230   1.445   0.054  13.189  0.3320  0.1343 -0.6865
18580TIP3    H177231   1.488  -0.020  13.234 -0.3537 -0.0331 -0.3031
18580TIP3    H277232   1.386   0.090  13.254  0.2441  0.6696 -1.0644
18581TIP3   OH277233   3.798   6.145   5.988 -0.3855 -0.3068 -0.2965
18581TIP3    H177234   3.810   6.060   5.946  2.8506 -0.5939  1.0636
18581TIP3    H277235   3.797   6.126   6.082 -0.6031  1.0734 -0.0041
18582TIP3   OH277236   2.906   0.363  11.478  0.0217  0.4912  0.4422
18582TIP3    H177237   2.994   0.392  11.502 -0.0738  0.8776  0.3361
18582TIP3    H277238   2.905   0.269  11.498  0.0449  0.7372  1.6345
18583TIP3   OH277239   4.007   5.118  16.159 -0.0856 -0.3357  0.5269
18583TIP3    H177240   4.078   5.094  16.218 -0.5534  0.2253  1.3315
18583TIP3    H277241   3.941   5.049  16.170 -0.6838  0.3916  1.5488
18584TIP3   OH277242   6.676   6.333  14.477  0.1577 -0.3999 -0.0241
18584TIP3    H177243   6.746   6.397  14.464 -0.7945  0.5522 -0.6013
18584TIP3    H277244   6.667   6.325  14.572 -0.6303  1.3760  0.0747
18585TIP3   OH277245   1.817   1.794   0.629  0.2718 -0.3316  0.0838
18585TIP3    H177246   1.828   1.841   0.546  1.4756  0.7515  0.8347
18585TIP3    H277247   1.905   1.785   0.664 -0.0184 -2.4940  0.3500
18586TIP3   OH277248   3.224   1.636  17.223 -0.1366 -0.7776 -0.0666
18586TIP3    H177249   3.228   1.573  17.151  0.4927 -0.0687 -0.6550
18586TIP3    H277250   3.314   1.643  17.254 -0.4449 -1.2782  0.9724
18587TIP3   OH277251   4.471   4.734  12.923  0.4376  0.0492  0.2291
18587TIP3    H177252   4.411   4.697  12.988 -1.0464  0.1409 -1.0489
18587TIP3    H277253   4.538   4.667  12.911  0.4491 -0.1706  1.4956
18588TIP3   OH277254   6.631   4.113   1.724 -0.2038  0.3785 -0.3442
18588TIP3    H177255   6.649   4.142   1.813 -1.1752 -0.9487  0.3087
18588TIP3    H277256   6.616   4.019   1.732 -0.3231  0.2485 -1.9072
18589TIP3   OH277257   3.832   1.954   4.702  0.2107 -0.8932 -0.2190
18589TIP3    H177258   3.753   1.927   4.749 -0.7356  1.4608 -0.3754
18589TIP3    H277259   3.903   1.942   4.765 -0.8152  0.6468  1.2838
18590TIP3   OH277260   3.804   2.004  17.178  0.3091  0.2405  0.2164
18590TIP3    H177261   3.841   2.054  17.105  1.9829 -0.6085  0.4579
18590TIP3    H277262   3.798   2.068  17.250  0.2614  0.6529 -0.1510
18591TIP3   OH277263   0.415   4.633   4.111 -0.2169 -0.0499  0.1720
18591TIP3    H177264   0.327   4.628   4.149 -1.2076 -1.7130 -2.2356
18591TIP3    H277265   0.400   4.638   4.017  2.2379  1.8955 -0.1816
18592TIP3   OH277266   4.691   6.785   3.296  0.4052 -0.1632 -0.0610
18592TIP3    H177267   4.596   6.782   3.312  0.6350 -1.2543  1.1305
18592TIP3    H277268   4.699   6.828   3.210 -1.1366  0.4136  0.0693
18593TIP3   OH277269   2.244   2.492   5.160 -0.3508  0.5157  0.6200
18593TIP3    H177270   2.205   2.554   5.222 -2.1803 -2.1196  2.1746
18593TIP3    H277271   2.172   2.467   5.102  0.6331  0.6431 -0.6809
18594TIP3   OH277272   6.703   6.666   2.034 -0.2009  0.1603  0.1794
18594TIP3    H177273   6.786   6.708   2.058 -0.0012 -0.5628  0.7939
18594TIP3    H277274   6.718   6.631   1.947  0.7822 -1.6021  1.0331
18595TIP3   OH277275   0.406   4.652  14.588  0.6961 -0.0325  0.8182
18595TIP3    H177276   0.493   4.657  14.627  0.9672 -2.0436  0.5486
18595TIP3    H277277   0.392   4.558  14.573 -1.3843  0.2906  0.5587
18596TIP3   OH277278   4.164   3.062   0.400 -0.2537  0.0420 -0.3322
18596TIP3    H177279   4.083   3.106   0.376 -0.9264  0.1111  2.0055
18596TIP3    H277280   4.146   2.969   0.385 -0.8934  0.0245  0.5028
18597TIP3   OH277281   0.082   6.301   0.754 -0.4116  0.0844 -0.1873
18597TIP3    H177282   0.155   6.342   0.800  0.1986 -0.1401 -0.9629
18597TIP3    H277283   0.010   6.364   0.763 -0.2922  0.0710  1.0326
18598TIP3   OH277284   3.026   5.023  11.573  0.1299 -0.3560  0.1248
18598TIP3    H177285   3.025   4.947  11.515  1.3478  0.8393 -1.4962
18598TIP3    H277286   3.052   5.096  11.517  0.9277  0.9002  2.0723
18599TIP3   OH277287   0.968   3.074   7.086 -0.3048 -0.1226 -0.2302
18599TIP3    H177288   0.902   3.036   7.144 -1.7924  1.1477 -1.0658
18599TIP3    H277289   0.955   3.029   7.003  0.4670 -0.4889 -0.1523
18600TIP3   OH277290   1.944   5.859   5.022  0.3016  0.3612 -0.1385
18600TIP3    H177291   2.032   5.822   5.011 -0.4267 -1.5548  0.3076
18600TIP3    H277292   1.937   5.875   5.116 -1.3775 -3.6152  0.5199
18601TIP3   OH277293   3.429   3.932   5.078  0.0991  0.3483 -1.0220
18601TIP3    H177294   3.458   3.926   4.987  1.0577 -2.3652 -0.5766
18601TIP3    H277295   3.377   3.853   5.092  1.5708 -0.2501  1.3316
18602TIP3   OH277296   5.610   4.344  12.227  0.1860  0.2856 -0.0193
18602TIP3    H177297   5.627   4.438  12.217  1.2573  0.0903 -0.0525
18602TIP3    H277298   5.564   4.338  12.311 -1.6138  1.0405 -0.9219
18603TIP3   OH277299   3.703   2.968   3.533  0.3531 -0.2736 -0.0604
18603TIP3    H177300   3.691   3.038   3.469  0.4423 -0.3436 -0.1540
18603TIP3    H277301   3.744   2.897   3.483  1.2540  0.0031  0.2851
18604TIP3   OH277302   1.240   5.400   6.403  0.3961 -0.0784 -0.1948
18604TIP3    H177303   1.252   5.476   6.346  0.3833  0.4081  0.4442
18604TIP3    H277304   1.309   5.408   6.469 -0.9375  0.5693  1.1521
18605TIP3   OH277305   6.549   1.417  16.678  0.0677  0.6043 -0.2731
18605TIP3    H177306   6.576   1.325  16.688  4.0570  1.7439  0.5317
18605TIP3    H277307   6.497   1.436  16.756  0.2251 -0.6459  0.1484
18606TIP3   OH277308   4.032   5.225   4.860  0.0994  0.1196 -0.5895
18606TIP3    H177309   4.033   5.310   4.817 -1.2224 -0.4850 -1.8255
18606TIP3    H277310   4.047   5.245   4.953 -1.5275  1.7984 -0.6802
18607TIP3   OH277311   5.557   2.792  15.755  0.7191  0.4515  0.1221
18607TIP3    H177312   5.575   2.859  15.689  1.7059  0.2543  0.1832
18607TIP3    H277313   5.536   2.714  15.704  1.2724  0.3556  0.0298
18608TIP3   OH277314   1.990   3.999  16.299 -0.9502 -1.0118  0.1600
18608TIP3    H177315   2.073   3.993  16.251 -0.1140 -3.5672  1.8187
18608TIP3    H277316   1.932   4.049  16.241  1.1737 -0.7711 -1.8265
18609TIP3   OH277317   4.300   0.268   0.060 -0.1814 -0.5155  0.4069
18609TIP3    H177318   4.379   0.251   0.008  0.5435  3.0135  0.1776
18609TIP3    H277319   4.333   0.311   0.139 -1.6309 -2.0313  1.8533
18610TIP3   OH277320   2.102   0.393  12.121 -0.1804  0.2731  0.1432
18610TIP3    H177321   2.156   0.394  12.200 -0.9980  1.0373  0.6973
18610TIP3    H277322   2.106   0.302  12.091  1.1754  0.2540  0.3333
18611TIP3   OH277323   2.257   1.992   0.603  0.1334  0.3069  0.5167
18611TIP3    H177324   2.317   2.025   0.671 -0.1421  0.4586  0.6876
18611TIP3    H277325   2.315   1.958   0.535  0.4223 -1.0447  1.4061
18612TIP3   OH277326   5.073   6.819  11.160 -0.1160 -0.5819  0.4161
18612TIP3    H177327   5.107   6.731  11.173  1.1499 -0.0680  0.6206
18612TIP3    H277328   5.149   6.876  11.171 -0.8832  0.5187  0.0567
18613TIP3   OH277329   5.527   0.762  13.364 -0.5863  0.1046  0.6161
18613TIP3    H177330   5.474   0.723  13.433 -0.1298 -0.2952  0.7432
18613TIP3    H277331   5.478   0.745  13.284  0.0267 -1.5456  0.5551
18614TIP3   OH277332   3.119   6.297   6.396 -0.5096  0.4008 -0.6914
18614TIP3    H177333   3.080   6.232   6.337 -1.3093 -0.1459  0.4135
18614TIP3    H277334   3.093   6.381   6.360 -3.2219  0.0380  0.3437
18615TIP3   OH277335   2.679   4.745  15.299  0.2389  0.0681  0.0925
18615TIP3    H177336   2.674   4.691  15.220  0.0732  0.1307  0.0599
18615TIP3    H277337   2.743   4.700  15.355 -1.1205 -1.0675  0.7667
18616TIP3   OH277338   0.792   2.689   1.980  0.3480  0.1084 -0.4962
18616TIP3    H177339   0.706   2.669   1.943  0.1349 -1.0956  0.6030
18616TIP3    H277340   0.775   2.755   2.047  0.3360  0.1667 -0.5569
18617TIP3   OH277341   1.725   2.458   1.556 -0.1100  0.0817  0.1402
18617TIP3    H177342   1.710   2.488   1.466  2.7761  1.8032  0.1850
18617TIP3    H277343   1.754   2.367   1.546  0.2858  0.2937 -0.7141
18618TIP3   OH277344   2.819   6.058  13.668  0.4723 -0.6261 -0.1710
18618TIP3    H177345   2.763   6.130  13.639 -1.0659 -1.3772  0.8775
18618TIP3    H277346   2.901   6.070  13.619  0.0020  1.4396 -0.4826
18619TIP3   OH277347   1.110   1.678   1.109  0.0891 -0.5020  0.4631
18619TIP3    H177348   1.024   1.712   1.081 -0.8293 -0.2410  3.4202
18619TIP3    H277349   1.158   1.756   1.136 -0.4823 -1.0459  3.2289
18620TIP3   OH277350   3.497   5.138   3.115  0.4403 -0.1056  0.1089
18620TIP3    H177351   3.432   5.084   3.160  2.8532 -0.5313  3.2242
18620TIP3    H277352   3.448   5.215   3.085 -2.6112 -2.9317 -2.5625
18621TIP3   OH277353   1.579   2.936   0.159 -0.3801 -0.2047  0.5864
18621TIP3    H177354   1.602   2.845   0.181  0.9244  0.1343  0.6771
18621TIP3    H277355   1.609   2.947   0.069  0.2841  0.3992  0.8757
18622TIP3   OH277356   3.600   0.864   5.406 -0.1766 -0.2972 -0.2035
18622TIP3    H177357   3.544   0.920   5.458  0.4052  0.6357 -0.5700
18622TIP3    H277358   3.548   0.785   5.391 -0.9367  0.0762  0.4449
18623TIP3   OH277359   0.916   4.504   5.486 -0.5219  0.3799 -0.0273
18623TIP3    H177360   0.875   4.427   5.446  0.4120 -1.0409  1.6852
18623TIP3    H277361   0.842   4.555   5.520 -1.1645  0.3560 -1.3470
18624TIP3   OH277362   3.443   1.877   2.351  0.1145  0.3928  0.0072
18624TIP3    H177363   3.509   1.943   2.372  0.0889  0.2008  0.6957
18624TIP3    H277364   3.359   1.922   2.360 -0.0390 -0.3653  2.9609
18625TIP3   OH277365   0.092   0.108   2.478 -0.7782  0.3014  0.5756
18625TIP3    H177366   0.049   0.175   2.425 -0.3649  0.1125 -0.0070
18625TIP3    H277367   0.021   0.052   2.508 -1.1379  1.0430  1.1351
18626TIP3   OH277368   2.176   2.759  14.048 -0.0110 -0.0895 -0.0060
18626TIP3    H177369   2.096   2.809  14.033 -0.2089 -0.4484 -0.1554
18626TIP3    H277370   2.206   2.734  13.960 -0.1984 -0.6759  0.0914
18627TIP3   OH277371   2.503   1.063   3.613  0.3832  0.3998 -0.1128
18627TIP3    H177372   2.560   1.045   3.539  0.3743  1.0481 -0.2759
18627TIP3    H277373   2.470   1.151   3.598  2.4879  1.6269  2.0102
18628TIP3   OH277374   5.542   1.195   4.645 -0.0356 -0.4118 -0.1513
18628TIP3    H177375   5.611   1.178   4.709  0.0518 -0.8330 -0.3600
18628TIP3    H277376   5.588   1.200   4.561 -0.5101 -2.6999 -0.5675
18629TIP3   OH277377   6.523   1.354   0.533 -0.1182  0.2123 -0.1014
18629TIP3    H177378   6.497   1.421   0.470 -1.4849 -1.4462 -1.3551
18629TIP3    H277379   6.447   1.296   0.539  1.1671 -1.4467  0.6358
18630TIP3   OH277380   0.936   2.815   4.653  0.1051  0.0765 -0.0109
18630TIP3    H177381   0.852   2.820   4.698 -0.0309 -1.8528 -0.0078
18630TIP3    H277382   0.976   2.901   4.667 -1.5224  0.7489  0.6386
18631TIP3   OH277383   3.869   3.109  15.045  0.5197 -0.5350  0.3306
18631TIP3    H177384   3.951   3.122  14.997  0.1277 -3.5548 -1.2949
18631TIP3    H277385   3.800   3.124  14.981 -0.0910 -1.7197  0.6864
18632TIP3   OH277386   5.594   2.482  11.477  0.0110 -0.0035 -0.2245
18632TIP3    H177387   5.596   2.418  11.407  1.7120  0.2443 -0.4263
18632TIP3    H277388   5.679   2.473  11.520 -0.2804  1.1436  0.6116
18633TIP3   OH277389   2.854   6.028  11.533  0.2471  0.4829 -0.1564
18633TIP3    H177390   2.812   5.993  11.612 -1.1755 -2.3110 -2.0373
18633TIP3    H277391   2.928   5.969  11.518  1.7312  2.2209  0.1758
18634TIP3   OH277392   3.573   0.934  13.031 -0.8549 -0.2198 -0.3733
18634TIP3    H177393   3.624   0.995  12.979 -0.4671 -0.9992 -0.9205
18634TIP3    H277394   3.586   0.849  12.988 -1.4047 -0.6804  0.3559
18635TIP3   OH277395   3.930   2.980   1.115  0.1475 -0.0739  0.1372
18635TIP3    H177396   3.993   2.970   1.044 -0.9521 -0.3772 -0.8030
18635TIP3    H277397   3.875   3.054   1.089 -0.3558 -0.2788  0.6092
18636TIP3   OH277398   3.459   4.797  11.475  0.1356 -0.3979  0.1600
18636TIP3    H177399   3.406   4.781  11.397  1.7877 -2.4739 -0.5861
18636TIP3    H277400   3.514   4.872  11.452 -1.3711  0.8019  0.3892
18637TIP3   OH277401   1.124   3.551   4.450  0.0196 -0.1214 -0.3465
18637TIP3    H177402   1.029   3.547   4.447 -0.0205  1.0222 -1.3264
18637TIP3    H277403   1.150   3.555   4.358  1.0218 -0.5136 -0.0860
18638TIP3   OH277404   6.538   4.015  13.391 -0.0028 -0.2621  0.1695
18638TIP3    H177405   6.561   3.922  13.391 -0.7387 -0.4442  0.3713
18638TIP3    H277406   6.623   4.060  13.387  0.4039 -0.9331  0.9439
18639TIP3   OH277407   3.166   5.416  11.065 -0.1256  0.1372 -0.0438
18639TIP3    H177408   3.170   5.359  10.988 -0.8901 -3.5944  2.5625
18639TIP3    H277409   3.074   5.419  11.088  0.3893 -1.0461  2.3091
18640TIP3   OH277410   1.524   6.239  15.584 -0.4571 -0.5430  0.1110
18640TIP3    H177411   1.439   6.280  15.598  0.1524  0.1145  2.1327
18640TIP3    H277412   1.584   6.289  15.640  1.2862 -0.9125 -1.3742
18641TIP3   OH277413   1.175   1.690   2.178  0.1755 -0.1794  0.0030
18641TIP3    H177414   1.238   1.698   2.106 -2.3120 -0.7541 -2.3062
18641TIP3    H277415   1.211   1.621   2.234  1.8295 -0.1680 -1.0126
18642TIP3   OH277416   5.257   5.247  11.959 -0.6597 -0.2718 -0.3983
18642TIP3    H177417   5.351   5.234  11.951 -0.4663  1.6475 -1.6414
18642TIP3    H277418   5.237   5.228  12.051  0.7923 -1.5137 -0.3403
18643TIP3   OH277419   6.275   0.197   2.151  0.0834  0.3676  0.0086
18643TIP3    H177420   6.196   0.250   2.157 -0.1434  0.1323 -0.9034
18643TIP3    H277421   6.280   0.151   2.235 -0.9285  0.1129 -0.0700
18644TIP3   OH277422   2.512   3.890   1.804  0.4493  0.0800  0.0212
18644TIP3    H177423   2.472   3.809   1.771  1.6522 -0.6996  0.4310
18644TIP3    H277424   2.461   3.960   1.764 -1.4559 -0.8878  0.6982
18645TIP3   OH277425   5.281   0.183  11.207  0.1813 -0.6271 -0.7181
18645TIP3    H177426   5.238   0.260  11.245 -1.4767 -1.6146 -0.5402
18645TIP3    H277427   5.361   0.218  11.168 -1.0863  1.4020 -1.6190
18646TIP3   OH277428   2.799   6.249  14.033 -0.4453  0.0140 -0.1475
18646TIP3    H177429   2.810   6.204  13.949  1.1260 -1.0835  0.6081
18646TIP3    H277430   2.868   6.315  14.033  1.7728 -2.1834  1.6238
18647TIP3   OH277431   3.306   2.307   4.208 -0.5644  0.1307  0.1537
18647TIP3    H177432   3.300   2.401   4.190  1.0554  0.2838  0.3352
18647TIP3    H277433   3.400   2.289   4.213 -0.8421 -0.8526  3.4883
18648TIP3   OH277434   1.316   1.659   0.918 -0.6135 -0.2278 -0.0672
18648TIP3    H177435   1.367   1.735   0.946  0.7056 -1.5482  1.1699
18648TIP3    H277436   1.268   1.632   0.996  0.6897 -2.0496  0.1261
18649TIP3   OH277437   5.985   6.221   0.660  0.2341 -0.5199 -0.0838
18649TIP3    H177438   5.893   6.195   0.660 -0.0865  0.5625 -0.9042
18649TIP3    H277439   6.030   6.150   0.705 -1.0498 -0.8967  0.6406
18650TIP3   OH277440   6.208   4.388   5.760  0.1515  0.1824 -0.1612
18650TIP3    H177441   6.267   4.414   5.689  0.5743  0.4276  0.2785
18650TIP3    H277442   6.258   4.323   5.810 -0.1647 -0.0312 -0.1185
18651TIP3   OH277443   2.586   1.936   0.668  0.3498  0.2611 -0.3116
18651TIP3    H177444   2.581   1.989   0.748  1.5124  2.1925 -1.4532
18651TIP3    H277445   2.553   1.994   0.600 -0.6678 -1.3805 -1.2432
18652TIP3   OH277446   3.111   0.795  15.901 -0.3553  0.1452  0.1251
18652TIP3    H177447   3.019   0.803  15.927 -0.1310 -1.4912  1.5379
18652TIP3    H277448   3.159   0.841  15.970 -0.1839  2.3050 -1.4040
18653TIP3   OH277449   2.683   1.954   0.157 -0.3060  0.0600 -0.5024
18653TIP3    H177450   2.681   1.981   0.065 -0.5138 -0.4396 -0.6451
18653TIP3    H277451   2.661   1.861   0.155 -1.2901  0.2782  0.1397
18654TIP3   OH277452   1.106   1.886  17.125 -0.0472  0.6291 -0.4531
18654TIP3    H177453   1.073   1.843  17.204  1.7488  1.8820  1.0282
18654TIP3    H277454   1.099   1.979  17.144  2.2152  0.9236 -0.9714
18655TIP3   OH277455   4.892   0.530   3.963 -0.4729 -0.3528 -0.8894
18655TIP3    H177456   4.898   0.572   3.877  0.4957  1.5549  0.0784
18655TIP3    H277457   4.849   0.595   4.018  1.1667 -0.5586  0.6750
18656TIP3   OH277458   1.114   1.505   3.424 -0.5398  0.0899 -0.5981
18656TIP3    H177459   1.132   1.581   3.479 -0.3991 -0.9612  0.8523
18656TIP3    H277460   1.193   1.451   3.430  0.0575  0.6474 -3.0427
18657TIP3   OH277461   3.192   2.068   4.347  0.2985  0.2129 -0.0984
18657TIP3    H177462   3.251   2.132   4.308  1.2290  0.0038  0.9292
18657TIP3    H277463   3.120   2.061   4.285  1.5147  0.2261 -1.5687
18658TIP3   OH277464   6.555   2.089  13.826  0.2206  0.0180 -0.0140
18658TIP3    H177465   6.617   2.142  13.878  0.5212  0.2701 -0.6202
18658TIP3    H277466   6.487   2.151  13.801 -1.5122 -0.7554  2.5725
18659TIP3   OH277467   3.532   6.814   6.216 -0.3242  0.1336  0.3814
18659TIP3    H177468   3.583   6.895   6.205  0.7936 -0.8829 -2.6439
18659TIP3    H277469   3.598   6.747   6.235 -0.7262 -0.7660 -1.2549
18660TIP3   OH277470   6.190   5.685   1.986  0.0145 -0.1939 -0.1412
18660TIP3    H177471   6.124   5.750   2.009  0.6469  0.4912 -0.2386
18660TIP3    H277472   6.210   5.701   1.894  0.8124  0.0547  0.0707
18661TIP3   OH277473   3.380   6.074  13.524  0.0048 -0.2471 -0.5058
18661TIP3    H177474   3.398   6.095  13.433 -1.4478  0.5471 -0.6144
18661TIP3    H277475   3.327   5.994  13.521 -1.3495  0.6482 -0.4187
18662TIP3   OH277476   4.690   5.247   1.899 -0.3825  0.6696 -0.0794
18662TIP3    H177477   4.628   5.297   1.846 -1.1231 -0.3243 -0.1540
18662TIP3    H277478   4.651   5.160   1.907  0.2381  0.4889  1.1926
18663TIP3   OH277479   3.946   2.185   0.303 -0.1479  0.0816  0.0696
18663TIP3    H177480   3.919   2.266   0.346  1.6611  0.0981  1.2627
18663TIP3    H277481   4.010   2.146   0.363 -0.9330 -2.2131 -0.5086
18664TIP3   OH277482   3.538   1.253   1.566  0.3383  0.6086  0.7546
18664TIP3    H177483   3.535   1.278   1.659  3.1324 -0.2211  1.1401
18664TIP3    H277484   3.576   1.329   1.522  0.4856  0.4170  0.5492
18665TIP3   OH277485   2.719   6.491  12.206 -0.0713  0.0604 -0.0094
18665TIP3    H177486   2.768   6.519  12.129 -1.8782 -0.2796 -1.3170
18665TIP3    H277487   2.682   6.572  12.241  0.3855  0.1585  0.2510
18666TIP3   OH277488   2.739   2.747  13.491 -0.0798 -0.1876  0.2250
18666TIP3    H177489   2.789   2.670  13.518 -0.8555 -1.0914 -0.9001
18666TIP3    H277490   2.656   2.739  13.538 -0.3163 -0.2422 -0.2064
18667TIP3   OH277491   2.617   2.138   5.252  0.0699  0.1801  0.1160
18667TIP3    H177492   2.633   2.231   5.235  0.9137 -0.0101 -0.1390
18667TIP3    H277493   2.522   2.129   5.247 -0.0323  1.0739  0.3745
18668TIP3   OH277494   1.244   2.826  14.512 -0.1460  0.7930 -0.5056
18668TIP3    H177495   1.311   2.762  14.486 -2.1358 -1.4094 -0.3105
18668TIP3    H277496   1.227   2.876  14.432  0.2013 -0.0233 -1.0977
18669TIP3   OH277497   5.415   2.249  12.880  0.9738 -0.2021  0.0981
18669TIP3    H177498   5.407   2.224  12.972 -2.0862  0.5160  0.0884
18669TIP3    H277499   5.450   2.337  12.882  2.9408 -0.9741  0.4742
18670TIP3   OH277500   1.389   3.126   1.512 -0.5003 -0.8570  0.3705
18670TIP3    H177501   1.434   3.186   1.453  0.3493  0.4539  2.2805
18670TIP3    H277502   1.407   3.039   1.476 -0.5750 -0.0638 -1.6468
18671TIP3   OH277503   5.124   6.545  15.103  0.1393 -0.3625 -0.3465
18671TIP3    H177504   5.192   6.612  15.097  0.0148 -0.2592 -0.6220
18671TIP3    H277505   5.165   6.466  15.068 -0.0468 -0.1727 -0.9985
18672TIP3   OH277506   2.527   0.865   0.363  0.3251 -0.0314  0.4200
18672TIP3    H177507   2.432   0.873   0.373  0.2199 -0.4234 -0.2462
18672TIP3    H277508   2.563   0.936   0.416 -0.3147 -0.3361  1.2611
18673TIP3   OH277509   4.422   6.065  16.533  0.0828 -0.4836 -0.2364
18673TIP3    H177510   4.340   6.021  16.556  0.0374 -0.6426 -0.6958
18673TIP3    H277511   4.439   6.039  16.442  0.2826  0.1028 -0.3726
18674TIP3   OH277512   2.922   1.493  13.510  0.2374  0.0407  0.0572
18674TIP3    H177513   2.976   1.416  13.527 -0.4457 -0.2856  0.8088
18674TIP3    H277514   2.858   1.493  13.582 -1.2488 -0.0248 -1.2530
18675TIP3   OH277515   3.742   2.401   4.542  0.2758 -0.1778  0.0866
18675TIP3    H177516   3.796   2.403   4.463 -1.3891 -0.3629 -1.0938
18675TIP3    H277517   3.703   2.314   4.542 -1.1347  0.4415  0.1365
18676TIP3   OH277518   5.978   2.976   5.952 -0.3476 -0.7676  0.1334
18676TIP3    H177519   5.884   2.988   5.965 -0.4698 -1.0459 -0.4448
18676TIP3    H277520   6.006   3.052   5.902  0.2514  0.6485  2.5653
18677TIP3   OH277521   4.645   6.462  10.741 -0.2252  0.3618  0.1380
18677TIP3    H177522   4.732   6.427  10.720  0.7842  1.9064  1.5910
18677TIP3    H277523   4.615   6.503  10.659  1.1212  1.2187  0.0610
18678TIP3   OH277524   0.986   0.476   3.259  0.3551  0.0692  0.5271
18678TIP3    H177525   0.997   0.541   3.328  1.9948  0.1139  0.2555
18678TIP3    H277526   1.058   0.494   3.198 -1.0085 -0.0308 -1.1347
18679TIP3   OH277527   3.240   6.554  17.116  0.1406  0.1539  0.1930
18679TIP3    H177528   3.234   6.524  17.206 -0.8807 -2.7001 -0.7934
18679TIP3    H277529   3.150   6.557  17.084  0.4685  1.3346 -0.7021
18680TIP3   OH277530   3.609   4.976   3.819 -0.0522 -0.5065  0.4567
18680TIP3    H177531   3.693   4.997   3.860  0.3190 -0.3557 -0.3623
18680TIP3    H277532   3.585   5.056   3.772 -1.3407 -0.0785  1.7976
18681TIP3   OH277533   5.491   0.308   6.062 -0.1399 -0.1502 -0.7395
18681TIP3    H177534   5.577   0.273   6.042  0.5398 -0.0799  1.9353
18681TIP3    H277535   5.499   0.402   6.047  0.5319 -0.0184  0.3924
18682TIP3   OH277536   2.541   3.075  14.313 -0.1834 -0.1899 -0.1390
18682TIP3    H177537   2.469   3.080  14.251  0.1441 -1.3164 -0.6337
18682TIP3    H277538   2.541   3.159  14.357 -1.6321 -0.0867 -0.3193
18683TIP3   OH277539   0.189   5.982   3.779 -0.0249  0.3673  0.0860
18683TIP3    H177540   0.215   5.916   3.715 -1.2422 -1.7773  1.7396
18683TIP3    H277541   0.266   5.993   3.835  0.2924  0.6042 -0.3947
18684TIP3   OH277542   6.157   3.498  12.811  0.1108 -0.9531 -0.2220
18684TIP3    H177543   6.107   3.434  12.862  0.5189 -1.2520 -0.1956
18684TIP3    H277544   6.248   3.471  12.821  0.2360 -0.7057 -0.6894
18685TIP3   OH277545   6.558   0.129  16.729 -0.4577  0.3260  0.2153
18685TIP3    H177546   6.596   0.057  16.778  0.2355 -0.4330 -1.4170
18685TIP3    H277547   6.466   0.131  16.756 -1.0418 -2.5760 -1.3061
18686TIP3   OH277548   0.922   3.234   2.239  0.3987 -0.0070  0.0057
18686TIP3    H177549   0.965   3.298   2.182 -1.2010 -0.2882 -1.5917
18686TIP3    H277550   0.989   3.207   2.301  2.4415 -0.2180 -2.2067
18687TIP3   OH277551   2.211   2.909   6.491  0.4807  0.3349 -0.4023
18687TIP3    H177552   2.131   2.910   6.439  0.2058  2.0836  0.0367
18687TIP3    H277553   2.282   2.906   6.426  0.0961 -0.0889 -0.8083
18688TIP3   OH277554   0.241   4.359   3.197  0.7007 -0.3667 -0.3730
18688TIP3    H177555   0.292   4.281   3.175  0.1510 -0.9835  0.4918
18688TIP3    H277556   0.207   4.341   3.285  0.7286  0.9295 -0.0900
18689TIP3   OH277557   6.492   0.190   4.022  0.0577  0.0924 -1.3276
18689TIP3    H177558   6.522   0.260   3.964 -0.3696 -0.2932 -2.0242
18689TIP3    H277559   6.516   0.219   4.109  0.5031  0.7904 -1.6785
18690TIP3   OH277560   0.280   4.666  14.131  0.1071 -0.3355  0.1959
18690TIP3    H177561   0.354   4.610  14.110  0.6019  0.7011 -0.8706
18690TIP3    H277562   0.310   4.721  14.204  0.7086  0.7044 -0.8235
18691TIP3   OH277563   6.301   3.958  12.994 -0.9852 -0.1336 -0.2555
18691TIP3    H177564   6.389   3.974  12.960 -1.0548  0.6803 -0.0418
18691TIP3    H277565   6.245   3.958  12.917 -0.8455 -0.3480 -0.3584
18692TIP3   OH277566   5.099   5.372   2.669  0.2830  0.6506 -0.1947
18692TIP3    H177567   5.147   5.430   2.609 -2.1728  2.1089 -0.8093
18692TIP3    H277568   5.051   5.431   2.726  0.7107 -0.7701  1.6831
18693TIP3   OH277569   0.736   1.929   3.141  0.0839 -0.2207  0.1083
18693TIP3    H177570   0.688   1.880   3.208 -0.4817 -1.1473 -0.9655
18693TIP3    H277571   0.822   1.887   3.139  0.3285  0.2347  0.7045
18694TIP3   OH277572   4.772   1.645   2.424 -0.6499  0.6833 -0.1379
18694TIP3    H177573   4.858   1.672   2.391 -0.6593 -0.4759 -1.1692
18694TIP3    H277574   4.730   1.603   2.349 -1.4937 -0.1621  0.7896
18695TIP3   OH277575   2.002   0.398  16.512 -0.9235  0.5210 -0.1795
18695TIP3    H177576   2.052   0.363  16.586  0.4200 -0.0875 -1.3394
18695TIP3    H277577   1.920   0.348  16.513 -1.3838  1.2737  1.5256
18696TIP3   OH277578   3.635   1.460  14.299 -0.5050 -0.1221 -0.1009
18696TIP3    H177579   3.600   1.537  14.254 -0.5089 -1.1566 -1.9313
18696TIP3    H277580   3.730   1.468  14.289 -0.3872  0.6623  1.4657
18697TIP3   OH277581   0.326   3.172  15.376 -0.3112  0.1233  0.4774
18697TIP3    H177582   0.261   3.102  15.383 -0.0455 -0.1593  0.1485
18697TIP3    H277583   0.371   3.173  15.460 -1.2557  0.8283  0.9830
18698TIP3   OH277584   6.671   2.094  11.549  0.0450  0.5479 -0.0831
18698TIP3    H177585   6.751   2.042  11.536  0.1057  0.6031  0.0663
18698TIP3    H277586   6.626   2.090  11.465 -1.0510 -1.6152  0.5754
18699TIP3   OH277587   4.497   4.038  11.354  0.2222  0.3714 -0.0336
18699TIP3    H177588   4.484   4.116  11.300  0.5469  0.4004 -0.0681
18699TIP3    H277589   4.410   4.017  11.387 -0.5580 -1.4166 -3.0352
18700TIP3   OH277590   1.808   1.252   3.259  0.1173 -0.6469 -0.5395
18700TIP3    H177591   1.792   1.163   3.289 -0.7986 -0.6329 -0.9688
18700TIP3    H277592   1.887   1.246   3.206  0.1591 -1.1638 -0.4219
18701TIP3   OH277593   3.753   3.273  15.248  0.4415 -0.0657  0.2332
18701TIP3    H177594   3.714   3.208  15.306 -1.0512 -0.0336 -0.7084
18701TIP3    H277595   3.779   3.224  15.171  1.7487  0.0156  0.6169
18702TIP3   OH277596   0.082   1.700   4.238  0.0202  0.3750  0.1073
18702TIP3    H177597   0.010   1.660   4.190  1.1949  0.9243 -2.1373
18702TIP3    H277598   0.081   1.792   4.213  1.2629  0.4699  0.3580
18703TIP3   OH277599   6.242   0.089  12.861 -0.6700 -0.1507 -0.3535
18703TIP3    H177600   6.198   0.062  12.780 -1.0076  0.1508 -0.2707
18703TIP3    H277601   6.328   0.045  12.857 -0.8845 -0.5479 -0.6281
18704TIP3   OH277602   6.723   5.228   5.786  0.2379  0.0908 -0.0739
18704TIP3    H177603   6.632   5.259   5.787  0.1421 -0.2059  0.9513
18704TIP3    H277604   6.715   5.133   5.795  0.6009 -0.0693 -1.3299
18705TIP3   OH277605   5.037   5.025   1.134 -0.1977  0.2000  0.5436
18705TIP3    H177606   5.102   5.069   1.080  0.6722 -0.0524  1.3686
18705TIP3    H277607   5.086   4.955   1.178 -1.4192 -1.1810 -0.2642
18706TIP3   OH277608   5.417   3.665   1.609 -0.0988 -0.1915 -0.1228
18706TIP3    H177609   5.470   3.744   1.611 -0.5095  0.0718  0.9072
18706TIP3    H277610   5.479   3.595   1.630  0.5614 -0.3504 -2.4194
18707TIP3   OH277611   6.566   0.864  15.774 -0.1937 -0.4656 -0.1390
18707TIP3    H177612   6.651   0.876  15.815 -0.0556 -1.6948 -0.0572
18707TIP3    H277613   6.540   0.952  15.746  1.0843 -0.0863 -0.1415
18708TIP3   OH277614   5.697   3.821   2.766 -0.5299  0.0198 -0.8811
18708TIP3    H177615   5.744   3.840   2.848 -0.8529 -1.6131 -0.3148
18708TIP3    H277616   5.694   3.726   2.761 -0.1054  0.1018 -3.0465
18709TIP3   OH277617   6.785   3.014   2.129 -0.1818  0.3172  0.4089
18709TIP3    H177618   6.740   2.980   2.206 -0.5664  1.3430  0.6352
18709TIP3    H277619   6.716   3.028   2.065  0.4371 -3.1462 -1.1298
18710TIP3   OH277620   0.570   5.648  14.279  0.4977 -0.1062  0.0370
18710TIP3    H177621   0.531   5.566  14.308  0.7938  0.2806  1.6108
18710TIP3    H277622   0.499   5.712  14.287  0.4806 -0.0660 -0.4408
18711TIP3   OH277623   3.117   4.010   4.586  0.3070 -0.9668  0.3285
18711TIP3    H177624   3.204   3.992   4.549 -0.2731  0.5113 -1.7883
18711TIP3    H277625   3.056   3.991   4.514 -0.9622  0.2804  1.0667
18712TIP3   OH277626   3.220   6.571  12.660 -0.1188 -0.1299  0.5367
18712TIP3    H177627   3.290   6.558  12.596 -0.1931  0.2610  0.3717
18712TIP3    H277628   3.161   6.497  12.647  0.3060 -0.5091  0.7334
18713TIP3   OH277629   4.223   3.999   4.164  0.7386 -0.4358  0.1355
18713TIP3    H177630   4.267   3.992   4.249 -0.6100  1.5811  1.0571
18713TIP3    H277631   4.285   4.046   4.109  1.0602 -0.5095  0.4329
18714TIP3   OH277632   5.569   1.540  15.137  0.0676  0.1942  0.0320
18714TIP3    H177633   5.613   1.586  15.065 -0.1332  0.5760  0.1516
18714TIP3    H277634   5.477   1.563  15.128 -0.1203 -0.6476 -0.2485
18715TIP3   OH277635   0.657   2.294   1.478  0.1038  0.6035  0.0741
18715TIP3    H177636   0.744   2.311   1.512  0.1964  1.4851 -0.5851
18715TIP3    H277637   0.599   2.344   1.535  0.2106  1.6515 -0.7447
18716TIP3   OH277638   4.404   3.048  13.714  0.2936  0.6555  0.3019
18716TIP3    H177639   4.432   3.113  13.649  0.3978  0.0106 -0.2999
18716TIP3    H277640   4.418   2.964  13.672  0.7810  0.2126  1.3331
18717TIP3   OH277641   4.163   5.322   0.884  0.6545  0.1837  0.2557
18717TIP3    H177642   4.254   5.303   0.861  0.2781  0.4996 -1.5354
18717TIP3    H277643   4.153   5.416   0.867  0.1307  0.2651  0.9715
18718TIP3   OH277644   4.034   4.572   2.453  0.2952  0.6064 -0.2662
18718TIP3    H177645   4.111   4.539   2.406 -0.1394 -0.3766 -0.3031
18718TIP3    H277646   4.011   4.502   2.514  0.0700  1.3371  0.5031
18719TIP3   OH277647   0.517   6.490  10.764 -0.5607  0.1428 -0.5672
18719TIP3    H177648   0.601   6.534  10.767 -0.6337  0.2593 -0.1165
18719TIP3    H277649   0.539   6.397  10.754 -0.3737  0.1565 -0.2917
18720TIP3   OH277650   6.610   6.625  15.489 -0.5729  0.2818  0.4919
18720TIP3    H177651   6.672   6.576  15.543 -0.0905  1.8240  1.3723
18720TIP3    H277652   6.626   6.594  15.400  1.6096  0.7609  0.6773
18721TIP3   OH277653   3.494   6.777   1.768  0.9894 -0.2009  0.1615
18721TIP3    H177654   3.587   6.783   1.791  1.1853  1.5400 -0.9859
18721TIP3    H277655   3.461   6.706   1.823  3.0174 -0.9488  0.5005
18722TIP3   OH277656   4.897   6.497   1.339  0.0248  0.4435 -1.3133
18722TIP3    H177657   4.993   6.494   1.334 -0.0427  0.3801 -3.0050
18722TIP3    H277658   4.868   6.432   1.275 -1.1415  0.7108 -1.0630
18723TIP3   OH277659   2.683   5.470  14.958  0.4738  0.2578  0.5540
18723TIP3    H177660   2.707   5.380  14.936 -0.7678  0.1674 -0.5426
18723TIP3    H277661   2.732   5.524  14.896  1.4745  0.3730  1.4273
18724TIP3   OH277662   0.768   2.124  14.429 -0.4127  0.5197 -0.2774
18724TIP3    H177663   0.699   2.065  14.459 -0.1319  0.6203  0.6102
18724TIP3    H277664   0.799   2.087  14.347 -2.0281  0.8778 -1.0787
18725TIP3   OH277665   6.553   3.462  14.253 -0.9055  0.5907 -0.8545
18725TIP3    H177666   6.569   3.503  14.168  0.1362  2.2538  0.1146
18725TIP3    H277667   6.488   3.519  14.295  1.1281  1.7684  0.8224
18726TIP3   OH277668   2.899   5.568  10.443 -0.0543 -0.3777 -0.2093
18726TIP3    H177669   2.816   5.577  10.491  0.0515  0.0795 -0.1171
18726TIP3    H277670   2.929   5.480  10.465 -0.2113 -0.3218  0.2405
18727TIP3   OH277671   1.844   3.871   3.549 -0.0231 -0.1858 -0.2709
18727TIP3    H177672   1.849   3.828   3.635 -0.1659 -0.8724 -0.6047
18727TIP3    H277673   1.924   3.923   3.544  0.0455 -0.2395  0.2338
18728TIP3   OH277674   0.579   6.460  14.462 -0.7773 -0.6669  0.2117
18728TIP3    H177675   0.533   6.485  14.543 -1.9955  2.0218 -1.2277
18728TIP3    H277676   0.667   6.497  14.473 -0.9165 -0.3706  0.3362
18729TIP3   OH277677   6.006   4.446  13.412  0.0859 -0.7415  0.1624
18729TIP3    H177678   6.072   4.377  13.422  0.7718 -0.1993 -0.5459
18729TIP3    H277679   6.052   4.516  13.366 -0.9937 -0.3585 -0.3463
18730TIP3   OH277680   4.963   4.465   3.639  0.2557  0.2491  0.8456
18730TIP3    H177681   5.010   4.383   3.623 -0.2198  0.0371  0.5271
18730TIP3    H277682   4.963   4.509   3.554 -1.1095 -0.2713  0.5682
18731TIP3   OH277683   4.603   5.944  13.266  0.0552  0.3339  0.4283
18731TIP3    H177684   4.682   5.996  13.276  0.3378 -0.1699  0.8191
18731TIP3    H277685   4.620   5.864  13.316  0.2245 -0.8086 -1.4219
18732TIP3   OH277686   3.975   1.097  14.751  0.5702 -0.2270 -0.4599
18732TIP3    H177687   3.892   1.115  14.707  1.5402  1.5719 -1.6372
18732TIP3    H277688   3.950   1.056  14.833 -1.4997  0.4466 -0.7137
18733TIP3   OH277689   3.650   5.644  12.177  0.0424  0.1381 -0.2501
18733TIP3    H177690   3.590   5.622  12.248  1.0720 -3.5839 -0.3983
18733TIP3    H277691   3.737   5.629  12.214  0.5979 -1.8567 -2.2266
18734TIP3   OH277692   0.286   5.205  13.393 -0.0419 -0.4779 -0.4146
18734TIP3    H177693   0.304   5.256  13.314 -1.8196 -1.0498 -1.2135
18734TIP3    H277694   0.271   5.116  13.361 -1.9489 -0.4778  0.4258
18735TIP3   OH277695   6.120   5.990   0.701 -0.5008 -0.3911 -0.1646
18735TIP3    H177696   6.129   6.019   0.610  1.4655 -0.0600  0.1045
18735TIP3    H277697   6.210   5.971   0.729 -0.7842  1.6458  2.3824
18736TIP3   OH277698   0.796   6.030   0.600  0.2407 -0.4569 -0.4063
18736TIP3    H177699   0.798   5.935   0.606 -0.2502 -0.3558  2.1998
18736TIP3    H277700   0.887   6.057   0.611  0.2461 -0.6102 -0.0492
18737TIP3   OH277701   5.959   6.646  14.713  0.8539 -0.0761 -0.4683
18737TIP3    H177702   5.970   6.569  14.657 -1.1154 -0.8649  0.1775
18737TIP3    H277703   6.010   6.626  14.791  0.1174 -0.8704 -0.1794
18738TIP3   OH277704   0.674   3.243   6.482 -0.0826  0.3233 -0.4584
18738TIP3    H177705   0.702   3.181   6.550 -0.7972 -0.1751 -0.6106
18738TIP3    H277706   0.756   3.275   6.443  0.3061 -0.0155  0.0804
18739TIP3   OH277707   6.423   1.178  15.892  0.1538  0.6102  0.1280
18739TIP3    H177708   6.327   1.170  15.891  0.1149  1.0683 -0.0206
18739TIP3    H277709   6.450   1.130  15.970 -0.2491  1.0313  0.5326
18740TIP3   OH277710   4.560   5.313   2.218  0.5807  0.2328  0.0876
18740TIP3    H177711   4.600   5.228   2.200  1.1470 -0.2188  3.2203
18740TIP3    H277712   4.576   5.328   2.311  0.3121  3.6835 -0.3439
18741TIP3   OH277713   6.280   0.143  16.784  0.4956 -0.8867  0.5257
18741TIP3    H177714   6.298   0.061  16.831 -0.5199 -1.4198 -0.0008
18741TIP3    H277715   6.206   0.182  16.832 -0.6132 -1.4834 -0.6870
18742TIP3   OH277716   2.641   4.234   0.180 -0.6014 -0.2822  0.3047
18742TIP3    H177717   2.702   4.222   0.107 -1.4981  0.3576 -0.5738
18742TIP3    H277718   2.690   4.207   0.257  1.2290  1.3785 -0.2187
18743TIP3   OH277719   0.605   4.785   0.181 -0.1467 -0.4325  0.2141
18743TIP3    H177720   0.693   4.821   0.164  0.3006 -0.9914  1.2948
18743TIP3    H277721   0.549   4.862   0.185  0.1204 -0.1372 -1.4775
18744TIP3   OH277722   1.124   2.125  17.267 -0.0626  0.4420  0.0030
18744TIP3    H177723   1.167   2.083  17.342 -2.1975 -1.9268 -0.0241
18744TIP3    H277724   1.196   2.163  17.217  1.6814 -0.5011  1.7010
18745TIP3   OH277725   0.935   2.813  16.639 -0.6332 -0.0444  0.8995
18745TIP3    H177726   0.873   2.832  16.709  1.7448 -0.2383  3.1648
18745TIP3    H277727   0.941   2.895  16.588  0.0811  1.2349  2.9672
18746TIP3   OH277728   3.815   2.806  14.127 -0.2929 -0.0620 -0.1642
18746TIP3    H177729   3.774   2.832  14.044 -1.5375  0.5963  0.6465
18746TIP3    H277730   3.770   2.725  14.151 -0.2242 -0.0273  0.0743
18747TIP3   OH277731   1.585   1.266  12.570 -0.2649 -0.5998 -0.2344
18747TIP3    H177732   1.505   1.259  12.624 -1.0520  0.0269 -1.3087
18747TIP3    H277733   1.656   1.251  12.632 -1.2015 -0.8286  0.8125
18748TIP3   OH277734   6.220   6.389   5.474 -0.1662 -0.2037  0.3016
18748TIP3    H177735   6.200   6.344   5.392 -1.1121  0.5060  0.1418
18748TIP3    H277736   6.230   6.318   5.538 -0.5904 -0.6929 -0.1695
18749TIP3   OH277737   6.748   2.349  14.765  0.1226 -0.1221 -0.2767
18749TIP3    H177738   6.714   2.297  14.838 -2.0928  0.4038 -0.8946
18749TIP3    H277739   6.829   2.388  14.799 -1.2665  0.7409  2.1772
18750TIP3   OH277740   1.360   1.087   4.358  0.2954 -0.7796  0.2145
18750TIP3    H177741   1.423   1.111   4.426  0.5228 -0.9223  0.0582
18750TIP3    H277742   1.354   0.991   4.364 -1.5555 -0.6108  1.6668
18751TIP3   OH277743   1.339   1.374   3.513 -0.6059 -0.0106  0.1394
18751TIP3    H177744   1.324   1.322   3.593  0.8272  1.7339  1.5905
18751TIP3    H277745   1.431   1.398   3.517 -1.3137  3.0432 -0.1986
18752TIP3   OH277746   5.179   1.607  12.111  0.3457  0.6981  0.0349
18752TIP3    H177747   5.175   1.599  12.206 -0.9126  4.6696  0.4236
18752TIP3    H277748   5.269   1.582  12.089  0.7939  0.2036  2.3089
18753TIP3   OH277749   4.446   0.594   4.213  0.1156 -0.1067  0.1147
18753TIP3    H177750   4.526   0.555   4.179 -0.8502 -0.0761 -2.3534
18753TIP3    H277751   4.437   0.677   4.164 -1.4611 -0.1804  0.2394
18754TIP3   OH277752   4.909   1.242   0.499 -0.0683 -0.2074 -0.2318
18754TIP3    H177753   4.831   1.276   0.542 -1.5795 -0.6906 -2.4908
18754TIP3    H277754   4.886   1.240   0.406  3.1482  1.0039 -1.1121
18755TIP3   OH277755   0.628   1.132   1.233  0.0253 -0.1418  0.1545
18755TIP3    H177756   0.547   1.141   1.184  0.7727  1.5202 -0.8073
18755TIP3    H277757   0.674   1.214   1.219  1.7253 -0.9300  0.9706
18756TIP3   OH277758   3.293   4.609   4.484 -0.2869 -0.4733 -0.6570
18756TIP3    H177759   3.317   4.578   4.571 -1.7713  0.4407  0.0899
18756TIP3    H277760   3.240   4.539   4.447  2.4303 -1.9904 -1.8659
18757TIP3   OH277761   3.168   3.282   0.057 -0.4011  0.4155  0.8445
18757TIP3    H177762   3.247   3.245   0.018 -0.4774  0.1652  0.9246
18757TIP3    H277763   3.103   3.277  -0.012 -0.4825  0.1556  0.9386
18758TIP3   OH277764   6.681   5.491   1.037 -0.2725  0.0779  0.3880
18758TIP3    H177765   6.614   5.546   0.996 -0.2125 -0.6493 -0.7266
18758TIP3    H277766   6.635   5.444   1.107 -1.1414 -1.0249 -0.8903
18759TIP3   OH277767   3.444   2.067  10.801  0.0451  0.1350 -0.5596
18759TIP3    H177768   3.514   2.099  10.743  0.5533  0.5126  0.2516
18759TIP3    H277769   3.401   2.146  10.833  1.9510  0.1225  2.2470
18760TIP3   OH277770   4.790   4.377   5.222 -0.2447 -0.2213 -0.5385
18760TIP3    H177771   4.731   4.398   5.150  1.5187  0.6443 -1.7516
18760TIP3    H277772   4.757   4.429   5.296  0.2984  2.0210 -1.8106
18761TIP3   OH277773   1.642   5.223  13.623 -0.0702  0.2234  0.2295
18761TIP3    H177774   1.650   5.309  13.582  0.9678 -0.5410 -1.1950
18761TIP3    H277775   1.625   5.242  13.716  0.3061  1.9537 -0.0474
18762TIP3   OH277776   3.487   0.872  12.127 -0.1461  0.2688 -0.4921
18762TIP3    H177777   3.410   0.926  12.113 -0.8371 -1.0924 -2.1647
18762TIP3    H277778   3.560   0.925  12.096 -0.7764  0.3836 -1.7989
18763TIP3   OH277779   5.576   1.893  15.690 -0.6157 -0.5286 -0.1066
18763TIP3    H177780   5.646   1.957  15.706 -0.5200 -0.9271  1.0914
18763TIP3    H277781   5.617   1.826  15.635  0.1425 -1.0930  1.1274
18764TIP3   OH277782   1.255   2.339  14.285  0.2449  0.0087 -0.2160
18764TIP3    H177783   1.292   2.311  14.368 -0.2269 -1.3690 -0.4562
18764TIP3    H277784   1.166   2.302  14.284 -0.0002  0.6009 -1.0180
18765TIP3   OH277785   3.368   5.809  12.388  0.7330 -0.0718  0.1144
18765TIP3    H177786   3.455   5.836  12.419  0.5651 -0.1264  0.6264
18765TIP3    H277787   3.373   5.714  12.382  0.6739 -0.0819  0.2345
18766TIP3   OH277788   0.255   5.121   2.660  0.0445 -0.5460  0.4555
18766TIP3    H177789   0.178   5.178   2.652  0.5722  0.1165  0.0546
18766TIP3    H277790   0.318   5.173   2.710  0.2299 -1.0912  0.7918
18767TIP3   OH277791   3.520   0.514   1.037 -0.2343  0.6563  0.2717
18767TIP3    H177792   3.546   0.460   1.111  0.8059  1.9725  0.8831
18767TIP3    H277793   3.485   0.594   1.076  0.1065  1.2642 -0.6413
18768TIP3   OH277794   1.120   5.806  11.676 -0.2051 -0.4045  0.5031
18768TIP3    H177795   1.048   5.866  11.693 -1.2546 -1.5819  0.2904
18768TIP3    H277796   1.191   5.862  11.645 -1.2809  0.6910 -0.0199
18769TIP3   OH277797   1.572   6.043  12.140 -0.2520 -0.1401 -0.3072
18769TIP3    H177798   1.588   5.951  12.158 -0.8279 -0.3174 -0.7190
18769TIP3    H277799   1.491   6.045  12.091 -0.4973  0.6223  0.1132
18770TIP3   OH277800   6.487   5.790  13.660  0.1638  0.0117 -0.0063
18770TIP3    H177801   6.492   5.717  13.598 -0.2129 -0.1340  0.1320
18770TIP3    H277802   6.399   5.826  13.648  0.4073  0.5375 -0.1820
18771TIP3   OH277803   0.143   5.717  13.413 -1.0026 -0.2861 -0.1606
18771TIP3    H177804   0.106   5.760  13.490 -0.2349 -0.4837  0.3283
18771TIP3    H277805   0.180   5.789  13.361 -0.6030 -0.2492  0.1688
18772TIP3   OH277806   5.059   1.852  11.848  0.1841  0.7067 -0.0443
18772TIP3    H177807   5.012   1.920  11.799  0.9652 -0.0442 -1.8562
18772TIP3    H277808   4.996   1.781  11.856 -0.0159  0.9135  0.2530
18773TIP3   OH277809   0.000   0.122   5.026 -0.4546 -0.3699  0.1874
18773TIP3    H177810   0.018   0.106   4.933 -0.7435  1.2391 -0.1655
18773TIP3    H277811   0.082   0.100   5.070 -0.1126 -0.5394 -0.5149
18774TIP3   OH277812   0.763   1.461   2.898  0.0178 -0.0715  0.1552
18774TIP3    H177813   0.760   1.366   2.904  0.8130 -0.2577 -2.0938
18774TIP3    H277814   0.847   1.480   2.856 -0.0374  1.6296  0.7741
18775TIP3   OH277815   6.081   6.260   3.866  0.0079 -0.4220  0.1762
18775TIP3    H177816   6.135   6.209   3.806  2.3253  2.8745 -0.7068
18775TIP3    H277817   6.120   6.244   3.952  0.7423 -0.1557 -0.1001
18776TIP3   OH277818   4.128   6.003  15.050 -0.3047 -0.1034  0.0396
18776TIP3    H177819   4.094   6.033  15.134 -0.5218 -0.5371  0.1110
18776TIP3    H277820   4.126   6.080  14.994  0.7052  0.4126  0.6949
18777TIP3   OH277821   1.751   1.894   1.415 -0.7679  0.1062 -0.0951
18777TIP3    H177822   1.725   1.875   1.324 -1.6867  0.8238  0.0140
18777TIP3    H277823   1.702   1.972   1.438  2.8506  2.6457 -0.4763
18778TIP3   OH277824   3.884   1.206   5.803 -0.0417  0.3202 -0.0085
18778TIP3    H177825   3.881   1.129   5.747 -2.6039 -1.1986  2.1169
18778TIP3    H277826   3.918   1.174   5.887  1.5123  2.0840  0.0842
18779TIP3   OH277827   4.460   4.246  13.185  0.2659 -0.0798 -0.4221
18779TIP3    H177828   4.555   4.255  13.189  0.3284 -0.7023 -0.4914
18779TIP3    H277829   4.442   4.212  13.098 -0.1831  1.9903 -1.1638
18780TIP3   OH277830   6.193   3.272  14.383  0.4797  0.2986 -1.1468
18780TIP3    H177831   6.181   3.363  14.409 -0.9242  0.6975 -3.0874
18780TIP3    H277832   6.249   3.235  14.451  1.4840  2.7332 -0.5902
18781TIP3   OH277833   1.462   0.683   1.096  0.0535 -0.2249  0.0712
18781TIP3    H177834   1.432   0.663   1.185 -2.0239 -0.5046 -0.6706
18781TIP3    H277835   1.382   0.697   1.046  1.2298  1.6457 -1.3817
18782TIP3   OH277836   5.296   2.644   2.165 -0.4715  0.0422  0.2518
18782TIP3    H177837   5.303   2.737   2.145  0.1544  0.2774  1.5170
18782TIP3    H277838   5.230   2.611   2.104 -0.5563  1.2724 -0.3298
18783TIP3   OH277839   6.593   5.559  15.465  0.4841 -0.3005  0.1739
18783TIP3    H177840   6.660   5.544  15.398 -0.7257 -1.1165 -0.8696
18783TIP3    H277841   6.537   5.627  15.427  1.0752  0.8271  1.3096
18784TIP3   OH277842   5.024   1.407   5.547 -0.4722  0.1152 -0.6346
18784TIP3    H177843   4.946   1.371   5.589 -1.2080  1.9348 -0.3961
18784TIP3    H277844   5.072   1.450   5.617  1.6197 -2.3915 -0.4674
18785TIP3   OH277845   2.972   0.482   1.089 -0.2355  0.0042 -0.1217
18785TIP3    H177846   3.022   0.484   1.007 -1.4069 -1.4511 -0.8818
18785TIP3    H277847   3.023   0.426   1.148  0.4053  0.7327  0.0236
18786TIP3   OH277848   2.609   0.497   3.220  0.3614 -0.1426  0.3262
18786TIP3    H177849   2.635   0.407   3.242 -0.7038 -0.1584  1.5869
18786TIP3    H277850   2.617   0.501   3.124  0.1559 -1.6746  0.2299
18787TIP3   OH277851   4.976   2.118   6.650 -0.2387 -0.1012  0.0851
18787TIP3    H177852   5.043   2.150   6.591 -1.4043  0.9203 -0.6923
18787TIP3    H277853   5.015   2.039   6.689  1.7467  0.9655  0.3263
18788TIP3   OH277854   3.481   0.475  16.116  0.8661 -0.6023  0.1635
18788TIP3    H177855   3.507   0.556  16.161  0.2216 -0.8921  1.0831
18788TIP3    H277856   3.495   0.494  16.023  0.4083  0.6882  0.3401
18789TIP3   OH277857   2.937   5.741  16.408 -0.2414 -0.5193 -0.3337
18789TIP3    H177858   2.944   5.742  16.503 -1.1685 -2.1277 -0.2138
18789TIP3    H277859   3.026   5.749  16.376 -0.0881  1.8124  0.6373
18790TIP3   OH277860   1.382   0.287  17.181 -0.0328  0.1909 -0.0816
18790TIP3    H177861   1.406   0.272  17.272 -0.0506  0.2266 -0.0707
18790TIP3    H277862   1.286   0.290  17.181 -0.1622 -2.4896 -0.5036
18791TIP3   OH277863   2.080   3.545   0.670  0.3429  0.1864  0.0110
18791TIP3    H177864   2.169   3.536   0.636  0.5150 -1.2166  0.8296
18791TIP3    H277865   2.075   3.637   0.698  1.8937  0.0109  0.9499
18792TIP3   OH277866   5.187   3.967  13.506 -0.1798 -0.3308  0.0263
18792TIP3    H177867   5.108   4.021  13.496  0.0637 -0.2736 -1.6312
18792TIP3    H277868   5.179   3.930  13.594 -0.5670  2.0823  1.0604
18793TIP3   OH277869   5.253   3.664  14.028 -0.1873  0.2543  0.3173
18793TIP3    H177870   5.166   3.642  14.060 -0.7647  0.3191 -1.1827
18793TIP3    H277871   5.297   3.703  14.103 -1.5933  0.6106  0.9692
18794TIP3   OH277872   5.258   1.893   3.696  0.4935 -0.5086  0.5574
18794TIP3    H177873   5.238   1.931   3.782  0.2884 -0.5916  0.5457
18794TIP3    H277874   5.184   1.918   3.641 -0.0116 -1.5630  0.7445
18795TIP3   OH277875   5.379   3.368   5.694  0.1938  0.6922  0.5859
18795TIP3    H177876   5.333   3.288   5.670 -0.8182  1.2250  0.7097
18795TIP3    H277877   5.316   3.438   5.677  0.6611  1.3681  1.5778
18796TIP3   OH277878   5.584   1.275   0.649  0.5290  0.3710  0.2356
18796TIP3    H177879   5.599   1.218   0.573  0.9617  0.7279  0.0537
18796TIP3    H277880   5.666   1.272   0.698  0.0458 -0.3385  1.0149
18797TIP3   OH277881   6.033   4.380  13.764 -0.0582  0.5723 -0.5746
18797TIP3    H177882   5.974   4.437  13.813  0.5649 -0.0723  0.9595
18797TIP3    H277883   5.996   4.292  13.775  0.9155  0.2229  0.0221
18798TIP3   OH277884   3.626   4.533   5.720 -0.1272 -0.1574  0.2436
18798TIP3    H177885   3.592   4.607   5.770  1.3389  0.2074  0.7225
18798TIP3    H277886   3.710   4.512   5.762  0.6673 -0.4736 -1.4730
18799TIP3   OH277887   6.743   3.192  11.681  0.3554  0.8517 -0.4448
18799TIP3    H177888   6.774   3.273  11.641  2.7276  0.6634  0.9213
18799TIP3    H277889   6.791   3.186  11.763 -0.7282 -1.3185  0.0714
18800TIP3   OH277890   5.412   2.457  14.170 -0.4434 -0.4368  0.4447
18800TIP3    H177891   5.474   2.530  14.172 -0.7140 -0.1898 -0.2222
18800TIP3    H277892   5.459   2.386  14.127 -0.4873 -0.3777  0.2994
18801TIP3   OH277893   1.608   0.081  11.609  0.3612  0.0631 -0.1559
18801TIP3    H177894   1.678   0.017  11.591  1.2901  0.9349  0.2806
18801TIP3    H277895   1.627   0.154  11.550  0.9468  1.1252  1.3101
18802TIP3   OH277896   3.420   0.264  14.957 -0.1796  0.2824 -0.4018
18802TIP3    H177897   3.483   0.269  15.029 -1.1668  0.4429  0.4624
18802TIP3    H277898   3.351   0.206  14.990 -0.5035  0.1379 -1.3261
18803TIP3   OH277899   2.718   5.852   0.664 -0.4518  0.7523  0.0868
18803TIP3    H177900   2.649   5.785   0.665  0.2960 -0.0462 -1.4902
18803TIP3    H277901   2.700   5.904   0.743  0.1338 -2.4896  2.4792
18804TIP3   OH277902   6.774   0.834   0.863 -0.3505 -0.4998 -0.1879
18804TIP3    H177903   6.703   0.855   0.924 -0.1099 -0.5835  0.1267
18804TIP3    H277904   6.814   0.919   0.843 -1.0627 -0.3553 -1.0249
18805TIP3   OH277905   0.537   3.735   1.240  0.0653 -0.0879 -0.4444
18805TIP3    H177906   0.516   3.707   1.151 -0.5948  0.7876 -0.5653
18805TIP3    H277907   0.486   3.676   1.296  0.7169 -0.8372 -0.6283
18806TIP3   OH277908   4.373   5.297   2.003  0.3622  0.1842  0.1733
18806TIP3    H177909   4.439   5.322   2.068  0.4382 -0.3459  0.3010
18806TIP3    H277910   4.422   5.250   1.936 -0.1113 -1.4775  0.9827
18807TIP3   OH277911   1.701   3.958  12.075 -0.0385 -0.3741  0.5068
18807TIP3    H177912   1.629   4.013  12.044 -0.1547 -1.3197 -0.9482
18807TIP3    H277913   1.660   3.897  12.136  0.2694  1.8010  2.9672
18808TIP3   OH277914   2.112   6.394  16.465  0.2461 -0.3208  0.5803
18808TIP3    H177915   2.066   6.361  16.388  0.2179 -2.1157  1.3455
18808TIP3    H277916   2.139   6.316  16.512  1.8190  0.7404  1.4884
18809TIP3   OH277917   6.197   6.663   2.737 -0.0881  0.4699 -0.5554
18809TIP3    H177918   6.137   6.644   2.809  0.0888 -1.5467 -0.9121
18809TIP3    H277919   6.240   6.579   2.719  0.9874  1.3097 -1.9862
18810TIP3   OH277920   4.268   5.016   5.345  0.0988  0.4040 -0.3368
18810TIP3    H177921   4.308   5.092   5.387  0.7100 -0.1143  0.0056
18810TIP3    H277922   4.177   5.017   5.377 -0.2671  1.7315 -1.3319
18811TIP3   OH277923   6.079   5.797  11.864 -0.5436 -0.4088  0.0451
18811TIP3    H177924   6.035   5.718  11.831 -2.6703  0.4480  0.7605
18811TIP3    H277925   6.020   5.869  11.841  1.5105  1.0276 -0.8343
18812TIP3   OH277926   3.584   3.614   6.095 -0.2889  0.1485  0.2444
18812TIP3    H177927   3.590   3.608   6.190  0.2072  3.0021  0.4409
18812TIP3    H277928   3.491   3.629   6.078  0.0389  2.6447  0.5210
18813TIP3   OH277929   5.346   1.649  15.801 -0.1949  0.1265 -0.0413
18813TIP3    H177930   5.411   1.719  15.791 -0.0677  0.3283  2.0234
18813TIP3    H277931   5.387   1.587  15.861 -1.3319 -0.4774  0.1137
18814TIP3   OH277932   4.474   2.671  16.338 -0.7374 -0.2980 -0.0161
18814TIP3    H177933   4.417   2.734  16.382  0.5163 -1.3475  3.2416
18814TIP3    H277934   4.435   2.586  16.357  0.2625 -0.8165 -0.2692
18815TIP3   OH277935   3.411   3.768   2.872 -0.7266 -0.2605  0.0840
18815TIP3    H177936   3.389   3.814   2.954 -0.0464 -0.7256  0.5345
18815TIP3    H277937   3.362   3.814   2.805 -3.1382 -1.2783  1.0630
18816TIP3   OH277938   0.327   3.257   5.303  0.0488  0.3286 -0.3930
18816TIP3    H177939   0.373   3.339   5.285  1.1966 -0.0650  0.7359
18816TIP3    H277940   0.267   3.279   5.374  0.2370  0.2327 -0.2042
18817TIP3   OH277941   6.009   6.230   6.426 -0.3856  0.2260  0.2791
18817TIP3    H177942   5.954   6.300   6.462 -0.9141 -0.4130  0.7294
18817TIP3    H277943   5.946   6.164   6.394  0.0902  0.3122 -0.8647
18818TIP3   OH277944   1.843   4.451  12.876  0.2874 -0.5232 -0.5966
18818TIP3    H177945   1.895   4.530  12.867  0.1939 -0.4956 -0.9133
18818TIP3    H277946   1.863   4.400  12.797  1.7032 -1.6166  0.4520
18819TIP3   OH277947   6.724   4.401  16.806 -0.2611  0.2928  0.1769
18819TIP3    H177948   6.756   4.359  16.726  1.4753  0.3290  0.8514
18819TIP3    H277949   6.741   4.337  16.875 -0.7761  0.6993  0.6831
18820TIP3   OH277950   1.961   6.101  13.009 -0.6561  0.0599 -0.5727
18820TIP3    H177951   1.946   6.084  12.916 -1.2285 -0.9366 -0.2987
18820TIP3    H277952   1.874   6.123  13.043 -0.4818  0.1957 -0.2196
18821TIP3   OH277953   6.483   6.533  14.982  0.1169  0.2445 -0.2151
18821TIP3    H177954   6.394   6.562  15.000  0.2457  0.1575  0.5568
18821TIP3    H277955   6.512   6.589  14.910 -0.4781  0.4227 -0.3234
18822TIP3   OH277956   2.713   5.425   4.786  0.2212 -0.2373  0.3547
18822TIP3    H177957   2.629   5.392   4.820  1.1034 -1.5886  1.2567
18822TIP3    H277958   2.763   5.448   4.864  0.9164 -0.0017 -0.1611
18823TIP3   OH277959   1.840   3.816   6.012 -0.2331 -0.4530  0.3579
18823TIP3    H177960   1.872   3.888   6.065 -1.0860 -2.0203  3.1211
18823TIP3    H277961   1.908   3.749   6.017 -0.2456 -0.5553 -0.6730
18824TIP3   OH277962   1.344   3.449  11.338 -0.0264  0.7570 -0.0469
18824TIP3    H177963   1.423   3.497  11.311  1.4118 -1.1416  0.6872
18824TIP3    H277964   1.331   3.383  11.270 -1.5096  1.6068 -0.6101
18825TIP3   OH277965   6.139   4.344  10.552 -0.2551  0.2995 -0.0288
18825TIP3    H177966   6.055   4.371  10.589  0.2798  2.0586 -0.0649
18825TIP3    H277967   6.195   4.329  10.628 -0.1278  0.7258 -0.0346
18826TIP3   OH277968   6.388   4.697  10.921 -0.7063 -0.1160 -0.9036
18826TIP3    H177969   6.335   4.773  10.945 -0.5589 -0.3873  0.3206
18826TIP3    H277970   6.471   4.710  10.966 -0.5100 -0.7565 -1.0722
18827TIP3   OH277971   3.411   3.279   3.708 -0.4428 -0.0664 -0.1088
18827TIP3    H177972   3.352   3.354   3.710 -0.9117 -0.4456  0.2841
18827TIP3    H277973   3.498   3.317   3.720 -0.1620  0.9203 -4.6326
18828TIP3   OH277974   4.820   3.166  12.956 -0.4809 -0.3217 -0.2239
18828TIP3    H177975   4.841   3.124  12.873 -2.2105 -0.6865 -0.4776
18828TIP3    H277976   4.783   3.251  12.932  0.3097  0.1588  0.2179
18829TIP3   OH277977   6.046   6.646  14.059  0.0263 -0.0327  0.4677
18829TIP3    H177978   5.988   6.713  14.094 -0.1340  0.3444 -0.5013
18829TIP3    H277979   5.989   6.570  14.044 -0.5221  0.7778 -1.7686
18830TIP3   OH277980   4.637   1.422   0.175  0.1307  0.3572 -0.4371
18830TIP3    H177981   4.577   1.357   0.213  0.9288 -0.8258 -1.1606
18830TIP3    H277982   4.629   1.498   0.232 -0.1423 -0.6983  0.9693
18831TIP3   OH277983   3.547   4.947   0.047  0.2447 -0.4287 -0.2356
18831TIP3    H177984   3.462   4.913   0.075 -0.9194 -0.0360 -3.1100
18831TIP3    H277985   3.564   5.020   0.106 -0.8628 -1.2541  1.1182
18832TIP3   OH277986   5.373   4.803  13.862 -0.0188  0.1282 -0.3222
18832TIP3    H177987   5.330   4.725  13.826 -0.5522  0.1426  0.2771
18832TIP3    H277988   5.465   4.791  13.839 -0.6128  1.1394 -3.4809
18833TIP3   OH277989   3.240   2.331  11.990 -0.3660  0.0977  0.1974
18833TIP3    H177990   3.224   2.242  11.959 -0.6932  0.4134 -0.5652
18833TIP3    H277991   3.331   2.331  12.018 -0.6375 -0.7275  1.0754
18834TIP3   OH277992   4.108   4.447   2.055 -0.2034 -0.4466 -0.7358
18834TIP3    H177993   4.062   4.365   2.034 -1.6997  0.7497 -2.2212
18834TIP3    H277994   4.144   4.476   1.971 -1.4390  1.4942 -0.5987
18835TIP3   OH277995   3.038   1.125  10.894 -0.7269 -0.3125  0.7002
18835TIP3    H177996   3.068   1.195  10.836  2.4279  1.0252  3.8034
18835TIP3    H277997   3.082   1.046  10.861 -2.5821 -0.5092 -1.4627
18836TIP3   OH277998   2.988   1.973   1.015  0.2067  0.0381  0.2311
18836TIP3    H177999   3.013   2.025   0.939  0.0813  0.4805  0.4928
18836TIP3    H278000   2.924   1.911   0.981  1.5872 -1.0630 -0.4312
18837TIP3   OH278001   0.258   3.195  12.569 -0.0265 -0.5544 -0.0197
18837TIP3    H178002   0.265   3.206  12.663  0.2148 -3.3710  0.3364
18837TIP3    H278003   0.165   3.179  12.553 -0.6225  3.0883 -0.7035
18838TIP3   OH278004   5.951   0.605  12.634  0.4075  0.7884 -0.1684
18838TIP3    H178005   5.904   0.528  12.666 -1.7732  1.8608 -0.7142
18838TIP3    H278006   5.987   0.645  12.713 -1.0959  0.9142  0.4694
18839TIP3   OH278007   1.432   3.928   1.751  0.4699  0.2692 -0.4063
18839TIP3    H178008   1.439   3.985   1.675  0.4687  0.6445 -0.1232
18839TIP3    H278009   1.422   3.987   1.826 -0.3932 -0.1237 -0.2059
18840TIP3   OH278010   1.536   3.179  17.200 -0.5822  0.2974  0.0403
18840TIP3    H178011   1.545   3.272  17.219  0.1746  0.7801 -2.5154
18840TIP3    H278012   1.614   3.139  17.238  0.5260  1.1333 -1.2840
18841TIP3   OH278013   0.832   3.822  12.547  0.4123 -0.1366  0.0114
18841TIP3    H178014   0.796   3.908  12.529  0.0036 -0.9685 -3.3677
18841TIP3    H278015   0.763   3.777  12.597  0.3331  1.2133  1.1308
18842TIP3   OH278016   1.324   5.730  15.213 -0.5948 -0.2033  0.3128
18842TIP3    H178017   1.371   5.743  15.296 -0.5242 -0.1819  0.2684
18842TIP3    H278018   1.263   5.659  15.232 -0.7401 -0.0430  0.4499
18843TIP3   OH278019   2.725   0.586  11.473 -0.3060 -0.4242  0.0942
18843TIP3    H178020   2.790   0.516  11.467  0.8863  0.5020  1.8371
18843TIP3    H278021   2.748   0.646  11.403  0.6995 -0.1503  0.6376
18844TIP3   OH278022   6.563   0.245   1.262  0.0910  0.1880  0.0480
18844TIP3    H178023   6.470   0.222   1.259  0.6737 -2.6048  2.0468
18844TIP3    H278024   6.587   0.261   1.171 -1.9637 -0.5667 -0.6434
18845TIP3   OH278025   6.266   2.385  13.212  0.3670  0.2036 -0.1275
18845TIP3    H178026   6.252   2.304  13.164 -1.3264  1.8403 -2.4908
18845TIP3    H278027   6.354   2.376  13.247  0.2557 -2.6058 -0.4087
18846TIP3   OH278028   3.817   6.673  15.225 -0.2889  0.1928 -0.1440
18846TIP3    H178029   3.729   6.711  15.215 -0.9870 -1.3303  0.0506
18846TIP3    H278030   3.863   6.698  15.145 -0.6715  1.5983  0.0652
18847TIP3   OH278031   2.456   0.678  14.841 -0.2878 -0.2882  0.0554
18847TIP3    H178032   2.444   0.598  14.790  0.3190  0.5882 -1.4952
18847TIP3    H278033   2.435   0.652  14.931 -2.8479 -1.4964 -0.8439
18848TIP3   OH278034   5.070   4.282  15.488 -0.1999 -0.1292 -0.0683
18848TIP3    H178035   5.065   4.375  15.511  0.6803 -0.4543  1.5985
18848TIP3    H278036   5.090   4.281  15.395 -0.5360  1.3417 -0.1749
18849TIP3   OH278037   4.156   3.527   0.269 -0.2815 -0.0680 -0.3473
18849TIP3    H178038   4.171   3.443   0.225  0.2177 -1.4367  2.3062
18849TIP3    H278039   4.224   3.532   0.336 -1.2275  1.7575  0.5321
18850TIP3   OH278040   4.773   5.248  14.710  0.6433  0.4248 -0.3403
18850TIP3    H178041   4.821   5.166  14.696  0.9755  0.1691  2.0079
18850TIP3    H278042   4.749   5.277  14.622  1.3719 -1.6807 -1.2806
18851TIP3   OH278043   2.552   1.274   5.906 -0.7145 -0.1477 -0.4731
18851TIP3    H178044   2.598   1.298   5.825 -0.6528 -0.1447 -0.4357
18851TIP3    H278045   2.470   1.235   5.875 -1.3636  1.2108 -0.5299
18852TIP3   OH278046   3.019   4.167  16.346  0.1139  0.2549 -0.4882
18852TIP3    H178047   2.989   4.170  16.255  0.9189  1.5538 -0.7266
18852TIP3    H278048   3.017   4.258  16.375 -2.0651 -0.3718  1.4628
18853TIP3   OH278049   2.745   4.859   1.459 -0.0379 -0.0395 -0.1545
18853TIP3    H178050   2.811   4.887   1.522  1.5167  1.2072 -2.2686
18853TIP3    H278051   2.710   4.940   1.423 -1.1245 -0.7292 -0.6835
18854TIP3   OH278052   2.136   5.394  11.910  0.3330  0.4470  0.0385
18854TIP3    H178053   2.068   5.446  11.866  0.9284 -0.3567 -1.9090
18854TIP3    H278054   2.090   5.319  11.946  0.2467 -0.5083 -1.9573
18855TIP3   OH278055   3.033   0.366  16.128  0.1086  0.2058  0.4155
18855TIP3    H178056   3.120   0.350  16.092 -0.7063 -1.4359 -0.8839
18855TIP3    H278057   3.023   0.301  16.198  0.3434  1.1289  1.3247
18856TIP3   OH278058   1.704   1.669   4.415 -0.3521 -0.7611 -0.2023
18856TIP3    H178059   1.678   1.578   4.429 -0.1492 -0.7197  0.4991
18856TIP3    H278060   1.688   1.711   4.500  1.0544 -0.5090 -0.0572
18857TIP3   OH278061   0.193   1.577   2.425  0.3254  0.5099  0.3969
18857TIP3    H178062   0.123   1.626   2.382 -0.4650 -1.0719 -0.1393
18857TIP3    H278063   0.181   1.487   2.397  2.4073  0.1578  0.5432
18858TIP3   OH278064   5.826   0.104   2.371  0.2614  0.1360 -0.3497
18858TIP3    H178065   5.863   0.102   2.282  0.5588 -0.1641 -0.2192
18858TIP3    H278066   5.901   0.093   2.429 -0.2419 -2.4711 -0.1347
18859TIP3   OH278067   3.679   2.112  11.248  0.2230  0.1189  0.2523
18859TIP3    H178068   3.584   2.106  11.242  0.3353 -1.0255 -0.5879
18859TIP3    H278069   3.700   2.081  11.336 -0.0901 -0.9004 -0.0262
18860TIP3   OH278070   6.686   5.891   5.423  0.4863 -0.8101  0.1856
18860TIP3    H178071   6.644   5.835   5.487  1.4667 -1.2103  0.4899
18860TIP3    H278072   6.703   5.973   5.469 -2.1534  0.2657 -0.6346
18861TIP3   OH278073   4.878   3.216  16.149 -0.1304 -0.1557 -0.2049
18861TIP3    H178074   4.817   3.275  16.192 -0.3676  0.6373 -1.5960
18861TIP3    H278075   4.958   3.268  16.139 -0.7393  0.4159 -2.5674
18862TIP3   OH278076   4.506   5.165  17.208  0.3001  0.5368  0.2699
18862TIP3    H178077   4.413   5.145  17.212  0.0826  1.3704 -0.4000
18862TIP3    H278078   4.544   5.095  17.155  0.1414 -0.0754  0.9580
18863TIP3   OH278079   3.451   1.743  12.006 -0.4490 -0.4925 -0.1854
18863TIP3    H178080   3.417   1.789  11.929  1.0077  0.2917 -0.3862
18863TIP3    H278081   3.389   1.764  12.076 -0.9527  0.0488 -0.7859
18864TIP3   OH278082   1.939   5.387   2.279  0.2116  0.1382 -0.3185
18864TIP3    H178083   1.902   5.441   2.350  0.4515  3.4697 -2.6233
18864TIP3    H278084   1.877   5.397   2.207  1.6398 -0.6029 -1.6532
18865TIP3   OH278085   0.743   4.194   3.638 -0.3955 -0.1092 -0.1742
18865TIP3    H178086   0.699   4.201   3.553  2.2463 -0.7679 -1.6317
18865TIP3    H278087   0.674   4.216   3.702 -2.7349 -0.7774 -2.3755
18866TIP3   OH278088   6.040   2.330  16.953  0.1276 -0.2988  0.0288
18866TIP3    H178089   6.056   2.263  16.886 -0.9953 -0.2981 -0.2510
18866TIP3    H278090   6.035   2.412  16.904 -1.4290 -0.3873  0.0027
18867TIP3   OH278091   0.021   3.979  12.775  0.1082 -0.1582 -0.0154
18867TIP3    H178092   0.044   4.071  12.785 -2.1958  0.4257  0.1886
18867TIP3    H278093  -0.039   3.976  12.701  0.3842 -1.5357 -0.2043
18868TIP3   OH278094   3.698   0.861  14.584 -0.7080  0.2737 -1.0821
18868TIP3    H178095   3.764   0.795  14.606  0.2676  1.4563 -0.4024
18868TIP3    H278096   3.746   0.928  14.535 -1.8358  0.1466 -2.3863
18869TIP3   OH278097   4.452   1.234  10.910  0.2167  0.2056  0.7474
18869TIP3    H178098   4.427   1.266  10.823 -0.9728  0.1891  1.0724
18869TIP3    H278099   4.543   1.263  10.921  0.1288  0.8688 -0.1921
18870TIP3   OH278100   6.430   0.560   0.070  0.1026 -0.5732  0.0164
18870TIP3    H178101   6.397   0.482   0.026 -2.2944  0.1922  0.3950
18870TIP3    H278102   6.352   0.608   0.096  1.4792  0.3432  2.6855
18871TIP3   OH278103   3.285   1.930   6.247  0.1287 -0.0466 -0.6119
18871TIP3    H178104   3.370   1.972   6.261 -0.6504  1.6807 -1.0215
18871TIP3    H278105   3.250   1.971   6.169 -0.7009 -1.4235 -0.9903
18872TIP3   OH278106   1.735   4.276   5.695  0.1316  0.4151 -0.3592
18872TIP3    H178107   1.715   4.350   5.637 -0.5107 -0.0046 -0.6864
18872TIP3    H278108   1.677   4.206   5.665  0.8376 -0.2709 -0.1458
18873TIP3   OH278109   3.190   1.369  14.724 -0.5071  0.6098  0.0700
18873TIP3    H178110   3.245   1.444  14.745 -0.3173  0.8202 -1.1457
18873TIP3    H278111   3.109   1.383  14.774  0.1608  0.7775  1.1148
18874TIP3   OH278112   6.519   0.538  11.961  0.4942  0.0629  0.6377
18874TIP3    H178113   6.496   0.578  12.044 -0.2279  0.3149  0.3224
18874TIP3    H278114   6.526   0.444  11.980 -2.0371 -0.1918  0.5066
18875TIP3   OH278115   6.061   1.260  12.909 -0.1870 -0.2834  0.1217
18875TIP3    H178116   5.974   1.298  12.922  0.3388  0.7377  0.6357
18875TIP3    H278117   6.044   1.166  12.897 -1.2399 -0.2984  1.5888
18876TIP3   OH278118   6.783   1.159  13.438 -0.0901 -0.0909 -0.1381
18876TIP3    H178119   6.765   1.078  13.391 -0.1761 -0.4568  0.5114
18876TIP3    H278120   6.805   1.130  13.527  2.0513  0.4419 -0.4705
18877TIP3   OH278121   3.215   5.585  13.074 -0.1453 -0.2574  0.3767
18877TIP3    H178122   3.309   5.571  13.069 -0.0039  0.5485  0.7219
18877TIP3    H278123   3.188   5.601  12.983  0.4899  2.1968  0.5727
18878TIP3   OH278124   1.936   6.356   1.139  0.3410 -0.1089  0.0144
18878TIP3    H178125   1.976   6.420   1.081 -0.8351 -0.4025 -1.1329
18878TIP3    H278126   1.998   6.283   1.142  2.0950  1.3801  1.9942
18879TIP3   OH278127   5.475   3.078  15.653  0.1950 -0.1160 -0.5286
18879TIP3    H178128   5.464   3.155  15.598  0.5375  0.5000  0.2472
18879TIP3    H278129   5.510   3.113  15.736  0.8727 -1.1586 -0.3676
18880TIP3   OH278130   4.152   3.622   2.609 -0.8347  0.2722  0.4642
18880TIP3    H178131   4.140   3.569   2.530 -0.6041  0.5290  0.2545
18880TIP3    H278132   4.065   3.656   2.629 -0.6321  1.4043 -0.5310
18881TIP3   OH278133   2.279   4.516  13.068  0.4561  0.1161  0.0546
18881TIP3    H178134   2.330   4.597  13.063  1.0892 -0.3636 -1.3630
18881TIP3    H278135   2.195   4.537  13.027  0.1315  0.4150  0.8562
18882TIP3   OH278136   3.936   5.315   5.728  0.0102 -0.1098  0.0888
18882TIP3    H178137   3.914   5.286   5.639 -0.4989  0.8437 -0.1120
18882TIP3    H278138   4.000   5.252   5.760  1.6661  0.6372 -1.6791
18883TIP3   OH278139   4.555   3.922   1.104 -0.3913  0.6928  0.0832
18883TIP3    H178140   4.467   3.907   1.069 -0.1848 -2.4104  0.7535
18883TIP3    H278141   4.543   3.989   1.171 -1.8849  1.7842 -1.2267
18884TIP3   OH278142   4.978   3.314  14.706  0.3053 -0.1929  0.7774
18884TIP3    H178143   5.033   3.308  14.784  1.8255 -1.8864 -0.3773
18884TIP3    H278144   4.991   3.230  14.660 -4.1681 -1.1680  1.0277
18885TIP3   OH278145   3.019   0.115   2.121  0.2244 -0.1907 -0.1891
18885TIP3    H178146   2.979   0.118   2.208  0.5541 -2.1588  0.0554
18885TIP3    H278147   2.945   0.117   2.060 -0.0712 -0.0162  0.1734
18886TIP3   OH278148   0.399   5.697   5.609  0.1566 -0.4673 -0.6042
18886TIP3    H178149   0.358   5.775   5.645 -0.0456 -0.9082  0.1229
18886TIP3    H278150   0.483   5.690   5.654  0.1550 -0.6918 -0.6325
18887TIP3   OH278151   2.931   0.661   3.005 -0.0981  0.1221 -0.0841
18887TIP3    H178152   2.951   0.688   2.916 -1.9766 -0.8678 -0.8570
18887TIP3    H278153   2.862   0.721   3.034 -0.7944 -0.7104  0.0064
18888TIP3   OH278154   0.794   4.623  15.741 -0.3347 -0.2182 -0.2780
18888TIP3    H178155   0.769   4.655  15.655 -0.4444 -0.8001 -0.4665
18888TIP3    H278156   0.782   4.528  15.736  1.8318 -0.5114 -0.3537
18889TIP3   OH278157   1.348   4.064  15.759 -0.4930 -0.4624  0.4606
18889TIP3    H178158   1.309   4.043  15.674 -0.4216  0.0211  0.3085
18889TIP3    H278159   1.422   4.004  15.767 -1.0883 -1.1838  0.6181
18890TIP3   OH278160   5.604   5.937   5.298  0.3932 -0.2053 -0.4026
18890TIP3    H178161   5.614   5.843   5.283  1.5663  0.0159 -1.0534
18890TIP3    H278162   5.537   5.964   5.236 -0.0159 -0.6273 -0.1477
18891TIP3   OH278163   1.833   4.842  12.562  0.0509 -0.1815 -0.3132
18891TIP3    H178164   1.782   4.823  12.641  1.0084  0.6047  0.5086
18891TIP3    H278165   1.884   4.763  12.547 -0.8815 -0.7105 -0.7336
18892TIP3   OH278166   3.774   1.940  13.629 -0.2474  0.1239 -0.6059
18892TIP3    H178167   3.707   1.936  13.698 -0.6740  0.9724 -0.9647
18892TIP3    H278168   3.846   1.886  13.663 -1.3581 -1.3184 -0.4949
18893TIP3   OH278169   2.898   5.097  17.106  0.1281  1.1179 -0.4586
18893TIP3    H178170   2.946   5.019  17.077 -2.1868 -1.5247  2.4634
18893TIP3    H278171   2.944   5.127  17.184  0.3334  1.9864 -0.9100
18894TIP3   OH278172   3.270   0.071   4.727  0.1237 -0.3578 -0.7064
18894TIP3    H178173   3.212   0.146   4.720  0.4855 -0.1412 -1.3982
18894TIP3    H278174   3.343   0.102   4.782 -1.5957 -1.3731  2.2785
18895TIP3   OH278175   5.221   0.998  13.606  0.0722 -0.4003 -0.3149
18895TIP3    H178176   5.305   1.043  13.599 -0.9156  1.1406 -3.0930
18895TIP3    H278177   5.168   1.055  13.662  0.7565 -1.2044  1.1646
18896TIP3   OH278178   4.704   4.887   3.493 -0.5039 -0.1491 -0.5844
18896TIP3    H178179   4.701   4.799   3.531 -1.9228 -0.2429 -0.8713
18896TIP3    H278180   4.690   4.945   3.567 -0.1014 -0.1880 -0.4770
18897TIP3   OH278181   2.719   5.904   4.706  0.4968 -0.7557 -0.4607
18897TIP3    H178182   2.657   5.920   4.635  0.0954 -0.7610 -0.1200
18897TIP3    H278183   2.772   5.983   4.711 -0.6317 -0.0369  0.3801
18898TIP3   OH278184   5.071   2.717  16.498  0.3992 -0.2235  0.2481
18898TIP3    H178185   4.994   2.710  16.442 -0.4829  0.5997  1.3145
18898TIP3    H278186   5.146   2.708  16.439 -0.5095 -0.8384 -0.8269
18899TIP3   OH278187   6.759   6.165  11.088  0.7861  0.1829 -0.4676
18899TIP3    H178188   6.842   6.180  11.044  0.6147  0.5104 -0.6793
18899TIP3    H278189   6.730   6.080  11.057  2.2418 -1.0718  1.4896
18900TIP3   OH278190   0.608   5.525  13.240 -0.1330 -0.0257 -0.0028
18900TIP3    H178191   0.578   5.579  13.167  0.2127 -0.1698 -0.2537
18900TIP3    H278192   0.695   5.496  13.214  0.3911  0.7340  0.9051
18901TIP3   OH278193   5.179   1.076   1.597 -0.0970 -0.3298 -0.0710
18901TIP3    H178194   5.188   1.002   1.658 -0.0126 -1.4753 -1.4449
18901TIP3    H278195   5.086   1.079   1.576  0.0573 -0.6954 -0.8108
18902TIP3   OH278196   0.466   1.465  16.440  0.0202 -0.1495  0.4744
18902TIP3    H178197   0.473   1.421  16.355 -1.0454 -0.5899  0.6125
18902TIP3    H278198   0.525   1.416  16.497  2.0090  1.1487 -0.4147
18903TIP3   OH278199   1.256   0.809   5.977 -0.1723 -0.3476 -0.3107
18903TIP3    H178200   1.255   0.801   5.882 -1.9667  0.0340 -0.3345
18903TIP3    H278201   1.271   0.720   6.009  0.3852 -0.4843 -0.9451
18904TIP3   OH278202   1.012   1.828  11.622 -0.7817 -0.5461  0.5889
18904TIP3    H178203   0.963   1.900  11.662 -1.5405 -0.7341  0.0002
18904TIP3    H278204   0.980   1.749  11.666 -2.8216 -0.9357 -1.4859
18905TIP3   OH278205   4.254   0.074  12.885 -0.2816 -0.1922 -0.3647
18905TIP3    H178206   4.181   0.133  12.871 -0.3206  0.2973  1.7782
18905TIP3    H278207   4.331   0.131  12.884 -0.2580 -0.1942  0.9984
18906TIP3   OH278208   3.799   3.263   4.935  0.5404  0.4863 -0.5218
18906TIP3    H178209   3.720   3.214   4.911  1.4138 -1.2033 -0.0608
18906TIP3    H278210   3.804   3.255   5.030  1.4640  0.2495 -0.5865
18907TIP3   OH278211   4.454   1.937  16.544  0.1615  0.3479  0.2033
18907TIP3    H178212   4.517   1.883  16.592 -0.7952 -0.7299  0.2523
18907TIP3    H278213   4.460   1.906  16.454  1.5133  1.9617 -0.3077
18908TIP3   OH278214   2.398   4.805  12.990  0.2060 -0.3137  0.4488
18908TIP3    H178215   2.324   4.865  12.979  1.1149  0.5761 -0.8850
18908TIP3    H278216   2.453   4.847  13.056  2.0979  1.6171 -2.2564
18909TIP3   OH278217   3.775   6.712   3.266  0.3190  0.3047  0.2315
18909TIP3    H178218   3.808   6.800   3.246  1.8766 -0.1352  0.7608
18909TIP3    H278219   3.748   6.676   3.182 -0.9421  1.5357  0.1042
18910TIP3   OH278220   3.982   4.504  16.228 -0.2187 -0.2158  0.0601
18910TIP3    H178221   3.978   4.517  16.322 -2.2054 -1.1599  0.1355
18910TIP3    H278222   4.036   4.426  16.216 -1.5772 -1.2544  0.5591
18911TIP3   OH278223   5.575   4.856   4.591 -0.1589  0.2498 -0.1267
18911TIP3    H178224   5.580   4.767   4.558 -0.3705 -0.7641  2.5116
18911TIP3    H278225   5.654   4.866   4.645 -0.1650  1.6559 -0.3603
18912TIP3   OH278226   4.642   0.796  12.521 -0.3848  0.0248  0.2312
18912TIP3    H178227   4.605   0.797  12.609  3.1966  0.8765  1.8039
18912TIP3    H278228   4.677   0.708  12.510 -2.6469 -0.7641 -1.2426
18913TIP3   OH278229   2.480   3.045  16.126 -0.0172  0.2696 -0.0781
18913TIP3    H178230   2.446   3.047  16.215  0.0608  0.0069 -0.0416
18913TIP3    H278231   2.568   3.008  16.135 -0.4833 -0.9333 -0.4232
18914TIP3   OH278232   2.419   6.602   0.761  0.3512 -0.3334 -0.8973
18914TIP3    H178233   2.411   6.536   0.829 -0.6727 -1.5665 -2.1838
18914TIP3    H278234   2.329   6.630   0.743  0.6588  0.4191 -1.3254
18915TIP3   OH278235   2.921   6.601   0.576 -0.5012  0.1801  0.3768
18915TIP3    H178236   2.833   6.585   0.610 -0.6150 -1.3466 -0.6149
18915TIP3    H278237   2.978   6.547   0.631 -0.4888 -0.8984 -0.6767
18916TIP3   OH278238   0.015   4.685  12.043 -0.0486  0.2561 -0.1621
18916TIP3    H178239  -0.056   4.700  12.106  0.6496  0.4566  0.5766
18916TIP3    H278240   0.042   4.772  12.016 -1.2073  0.1639 -1.7346
18917TIP3   OH278241   5.162   3.618   1.570  0.4518 -1.0369 -0.1590
18917TIP3    H178242   5.156   3.527   1.597 -0.3899 -1.7409 -2.5526
18917TIP3    H278243   5.254   3.642   1.586  0.0426 -1.4016  3.0505
18918TIP3   OH278244   0.916   1.030  11.485 -0.0061  0.0050 -0.1857
18918TIP3    H178245   0.904   1.026  11.390  0.1001  0.5342 -0.2223
18918TIP3    H278246   0.917   0.938  11.513 -0.6582 -0.1328 -0.6176
18919TIP3   OH278247   0.634   3.652  14.819  0.2993  0.1262 -0.3383
18919TIP3    H178248   0.685   3.653  14.738  1.6161  0.5308  0.4792
18919TIP3    H278249   0.678   3.715  14.875  0.5882 -1.6299  1.4303
18920TIP3   OH278250   5.540   4.818  16.005  0.1466 -0.1154 -0.1882
18920TIP3    H178251   5.480   4.762  16.054 -0.8812  0.5270 -0.6934
18920TIP3    H278252   5.581   4.759  15.942 -1.6842 -0.1252 -1.3993
18921TIP3   OH278253   1.428   6.211   2.394  0.8831  0.3067  0.5355
18921TIP3    H178254   1.334   6.200   2.386  1.1422 -1.5833 -0.0491
18921TIP3    H278255   1.450   6.276   2.328  0.1267  0.0257  0.0015
18922TIP3   OH278256   5.114   1.531   4.661  0.6911 -0.5371  0.6243
18922TIP3    H178257   5.156   1.485   4.733  0.6853 -0.9461  0.3715
18922TIP3    H278258   5.159   1.500   4.582  0.1118 -0.7675  0.3762
18923TIP3   OH278259   1.814   2.861   1.067  0.7432  0.0050 -0.1187
18923TIP3    H178260   1.765   2.907   1.135  0.2161 -0.7085 -0.0092
18923TIP3    H278261   1.753   2.855   0.994  0.4905 -1.3156  0.1890
18924TIP3   OH278262   2.021   3.441  14.257  0.1748 -0.0851  0.7903
18924TIP3    H178263   2.040   3.364  14.312  2.2715 -0.4216 -0.3559
18924TIP3    H278264   1.943   3.480  14.297 -0.3125 -2.2187  2.0098
18925TIP3   OH278265   0.290   3.732  15.754  0.1091  0.2181  0.1290
18925TIP3    H178266   0.351   3.687  15.813  0.0222  1.6618  1.3511
18925TIP3    H278267   0.305   3.825  15.770 -0.7381  0.6138 -1.3030
18926TIP3   OH278268   4.979   1.789  12.238 -0.1606  0.4001  0.4535
18926TIP3    H178269   5.018   1.729  12.175 -0.9571  0.8270 -0.4501
18926TIP3    H278270   5.027   1.871  12.227 -1.2425  0.9097 -0.6221
18927TIP3   OH278271   6.722   4.661  11.018 -0.3744 -0.0708  0.2323
18927TIP3    H178272   6.734   4.736  10.959  0.9259  0.3958  1.0645
18927TIP3    H278273   6.777   4.592  10.981 -0.1259 -0.0154  0.5017
18928TIP3   OH278274   1.321   0.679  15.295  0.0367  0.2478 -0.0090
18928TIP3    H178275   1.397   0.645  15.343  0.5941  0.5467 -0.6777
18928TIP3    H278276   1.343   0.770  15.276 -0.4703  0.3198 -0.2628
18929TIP3   OH278277   1.413   3.169   6.686  0.5843  0.0208 -0.5902
18929TIP3    H178278   1.390   3.140   6.598 -0.2440 -1.3080  0.0572
18929TIP3    H278279   1.334   3.155   6.738  0.7631  1.7146  0.1553
18930TIP3   OH278280   3.285   4.507   4.947  0.2554 -0.1559  0.3796
18930TIP3    H178281   3.349   4.437   4.934  0.4444  0.3568 -1.5023
18930TIP3    H278282   3.334   4.588   4.931 -0.3038  0.3636  1.2040
18931TIP3   OH278283   4.746   2.869   1.774  0.0283  0.1036 -0.0945
18931TIP3    H178284   4.666   2.880   1.722 -0.3006 -0.0294  0.3851
18931TIP3    H278285   4.793   2.798   1.731 -0.6667 -0.6040  0.3184
18932TIP3   OH278286   3.946   0.269   5.547  0.2391  0.0698  0.4094
18932TIP3    H178287   3.857   0.304   5.544 -0.3713 -1.5394 -1.0244
18932TIP3    H278288   4.000   0.342   5.578 -1.4622  1.2747  0.5765
18933TIP3   OH278289   3.396   2.281   3.429 -0.2092 -0.7841  0.3616
18933TIP3    H178290   3.314   2.239   3.453 -1.8890  2.6216  0.9147
18933TIP3    H278291   3.393   2.288   3.334  0.2371 -2.1744  0.2390
18934TIP3   OH278292   6.407   5.928  11.150  0.0999  0.4822 -0.3420
18934TIP3    H178293   6.409   5.834  11.136  1.0840  0.2338  1.3059
18934TIP3    H278294   6.463   5.942  11.227  0.4994  2.4781 -0.9750
18935TIP3   OH278295   6.526   0.226  12.355 -0.0398 -0.1511 -0.0858
18935TIP3    H178296   6.566   0.181  12.430 -1.6649  1.5467  1.8566
18935TIP3    H278297   6.439   0.188  12.347  0.2271 -0.5113 -1.2919
18936TIP3   OH278298   4.380   0.139  13.208  0.1096 -0.4051 -0.1584
18936TIP3    H178299   4.405   0.226  13.239 -1.9850 -0.7880  2.7952
18936TIP3    H278300   4.463   0.095  13.190  1.2727  1.1073  1.3808
18937TIP3   OH278301   1.379   4.874   1.547 -0.2071 -0.5745  0.5265
18937TIP3    H178302   1.347   4.786   1.566 -0.4799 -0.3890  0.9184
18937TIP3    H278303   1.431   4.863   1.467 -0.1216 -1.1177  0.6509
18938TIP3   OH278304   1.711   6.003   0.824  0.0443  0.3659 -0.2635
18938TIP3    H178305   1.640   5.939   0.829  0.2598  0.0644 -1.0513
18938TIP3    H278306   1.737   6.016   0.916 -0.3706 -0.2618 -0.0525
18939TIP3   OH278307   1.393   2.473   2.458 -0.1140  0.4694 -0.4656
18939TIP3    H178308   1.440   2.556   2.467  1.6034 -0.6187  1.0893
18939TIP3    H278309   1.367   2.470   2.366 -0.7803  3.0193 -0.4022
18940TIP3   OH278310   2.505   2.121   3.085  0.1264  0.0738 -0.3661
18940TIP3    H178311   2.473   2.035   3.110 -0.2789  0.8263  1.8650
18940TIP3    H278312   2.427   2.168   3.054 -0.6290  1.1734  2.9693
18941TIP3   OH278313   0.977   6.206   0.302 -0.1242 -0.2958 -0.7453
18941TIP3    H178314   1.030   6.127   0.291  0.9432  0.0519  1.6207
18941TIP3    H278315   1.041   6.277   0.304 -0.8409  0.3249  0.2378
18942TIP3   OH278316   0.332   2.489  16.951  0.2908 -0.2768 -0.5823
18942TIP3    H178317   0.306   2.430  17.021  1.2626 -0.3755 -0.3008
18942TIP3    H278318   0.405   2.445  16.908  0.5740  0.4016 -0.8030
18943TIP3   OH278319   0.041   6.527   2.906  0.3066  0.1873  0.3242
18943TIP3    H178320  -0.014   6.590   2.953  1.6697  1.5299  0.1481
18943TIP3    H278321  -0.022   6.475   2.855 -0.7012  3.1124 -1.5801
18944TIP3   OH278322   4.257   3.643  14.831  0.0123 -0.0309 -0.3480
18944TIP3    H178323   4.176   3.612  14.792  0.3506 -0.6465 -0.5706
18944TIP3    H278324   4.238   3.649  14.925 -0.8139  1.4958 -0.6012
18945TIP3   OH278325   5.378   2.184  10.891  0.1789  0.1866  1.5832
18945TIP3    H178326   5.424   2.233  10.823  0.2488  1.2639  2.3902
18945TIP3    H278327   5.448   2.141  10.941  0.3223  1.5540  2.6030
18946TIP3   OH278328   2.803   0.161  13.665  0.2659 -0.1684 -0.0013
18946TIP3    H178329   2.845   0.104  13.600 -0.3450 -0.0588 -0.4955
18946TIP3    H278330   2.741   0.214  13.614 -0.0171  0.1090  0.6305
18947TIP3   OH278331   5.705   0.346  10.763 -0.0694 -0.1475  0.1617
18947TIP3    H178332   5.672   0.264  10.800 -2.1785  0.8201  0.4866
18947TIP3    H278333   5.651   0.361  10.686  0.4902  0.8154 -0.0482
18948TIP3   OH278334   1.827   5.775  16.928  0.1871 -0.3393 -0.1708
18948TIP3    H178335   1.900   5.714  16.936 -0.3474 -0.9832 -0.1739
18948TIP3    H278336   1.865   5.861  16.949  0.4783 -0.9606  1.9430
18949TIP3   OH278337   1.511   5.592   5.230  0.6433 -0.7588  0.2934
18949TIP3    H178338   1.572   5.601   5.303  0.0145  1.5254  0.5599
18949TIP3    H278339   1.499   5.681   5.197 -1.8241 -1.2926 -0.3478
18950TIP3   OH278340   1.669   3.703   3.396  0.1634  0.0919  0.1167
18950TIP3    H178341   1.602   3.691   3.464  0.3794 -0.6167  0.2082
18950TIP3    H278342   1.706   3.789   3.414 -0.9949  0.6646 -0.1769
18951TIP3   OH278343   4.382   0.709  15.617  0.1000 -0.2105  0.1761
18951TIP3    H178344   4.399   0.651  15.543 -0.7396 -0.9967  0.5904
18951TIP3    H278345   4.457   0.695  15.676 -0.2594 -1.1249  0.4272
18952TIP3   OH278346   4.010   5.577   4.195  0.4537 -0.7008  0.5715
18952TIP3    H178347   3.929   5.599   4.150  0.7542  0.9363  0.8028
18952TIP3    H278348   3.995   5.605   4.286  2.0714  1.7040  0.1369
18953TIP3   OH278349   3.196   6.050   1.823 -0.0795 -0.1851  0.0164
18953TIP3    H178350   3.103   6.033   1.839 -0.7042  1.6376 -1.4484
18953TIP3    H278351   3.208   6.142   1.850  1.0179 -0.0344 -0.9471
18954TIP3   OH278352   1.194   1.880  13.406  0.1696  0.2566 -0.5694
18954TIP3    H178353   1.109   1.847  13.436 -0.9183  3.1337 -0.3169
18954TIP3    H278354   1.233   1.920  13.484  2.3618 -2.1642 -0.3754
18955TIP3   OH278355   6.534   6.391   5.355  0.2539  0.2189 -0.6210
18955TIP3    H178356   6.441   6.386   5.333  0.4052  1.0569 -1.4753
18955TIP3    H278357   6.577   6.330   5.295  0.4557  1.1765 -1.4695
18956TIP3   OH278358   2.620   0.212   1.579 -0.4092  0.4853 -0.0355
18956TIP3    H178359   2.600   0.157   1.655 -2.2595 -0.5248 -1.2285
18956TIP3    H278360   2.547   0.274   1.575 -1.2075 -0.5497 -1.9690
18957TIP3   OH278361   3.733   0.666   1.312 -0.1158  0.0370 -0.1722
18957TIP3    H178362   3.823   0.635   1.303  0.2279  0.4231  1.7761
18957TIP3    H278363   3.700   0.621   1.390 -1.5542  0.0236 -0.7922
18958TIP3   OH278364   3.638   5.248   0.089 -0.1865  1.1807  0.0869
18958TIP3    H178365   3.728   5.258   0.121  0.2132  0.0238 -0.6457
18958TIP3    H278366   3.587   5.310   0.141  0.5523 -0.1623  2.4579
18959TIP3   OH278367   6.243   0.162   5.090  0.8244 -0.1383  0.7612
18959TIP3    H178368   6.256   0.092   5.027  0.3764 -0.1249  0.6535
18959TIP3    H278369   6.323   0.215   5.085  0.4976  0.2598 -0.3060
18960TIP3   OH278370   2.694   2.874   5.497  0.7208 -0.6689 -0.4028
18960TIP3    H178371   2.753   2.889   5.571  3.0081 -2.8550 -1.6689
18960TIP3    H278372   2.750   2.833   5.430 -1.4608  0.4423 -3.0233
18961TIP3   OH278373   2.426   6.538   2.652  0.1177 -0.1549  0.0667
18961TIP3    H178374   2.488   6.496   2.711  2.4018  0.7924 -1.5897
18961TIP3    H278375   2.463   6.524   2.564 -1.3988  1.4487 -0.8518
18962TIP3   OH278376   3.336   0.731  15.355  0.1122  0.0384  0.3121
18962TIP3    H178377   3.375   0.659  15.406 -0.6889 -1.3669 -1.0334
18962TIP3    H278378   3.404   0.754  15.291  1.0590  1.7029  1.8510
18963TIP3   OH278379   2.160   0.950   0.613  0.1311  0.4783  0.1848
18963TIP3    H178380   2.103   0.971   0.687  1.8633  2.6285  0.9788
18963TIP3    H278381   2.126   1.003   0.541 -0.1230  0.1864  0.0899
18964TIP3   OH278382   0.293   6.420  15.130  0.3448 -0.1256 -0.6344
18964TIP3    H178383   0.255   6.429  15.218 -0.1886  2.0362 -1.0515
18964TIP3    H278384   0.233   6.361  15.084  0.2652 -0.7478  0.2504
18965TIP3   OH278385   1.750   0.186  14.967  0.1281 -0.1461  0.4734
18965TIP3    H178386   1.752   0.282  14.969 -2.1067 -0.0103 -1.3455
18965TIP3    H278387   1.749   0.160  15.059 -3.1001  1.7644  1.0878
18966TIP3   OH278388   6.501   5.581  16.780  0.6384  0.9421  0.0671
18966TIP3    H178389   6.433   5.515  16.789  0.4531  1.0948 -0.1879
18966TIP3    H278390   6.557   5.569  16.856  0.3298  0.8066  0.2735
18967TIP3   OH278391   6.386   0.117   6.273 -0.4164  0.4597  0.8285
18967TIP3    H178392   6.391   0.195   6.329 -1.4202  0.9346  0.2754
18967TIP3    H278393   6.305   0.074   6.299 -0.5823  0.3600  0.1597
18968TIP3   OH278394   5.666   0.241   3.695  0.2065 -0.2757  0.3863
18968TIP3    H178395   5.609   0.206   3.627 -0.9708  0.2670  1.0905
18968TIP3    H278396   5.669   0.172   3.761 -0.3203  0.0322  0.7377
18969TIP3   OH278397   4.223   6.588   0.081  0.1042 -0.7379 -0.3787
18969TIP3    H178398   4.277   6.514   0.108 -0.9126 -1.4554 -0.2678
18969TIP3    H278399   4.275   6.633   0.015  1.3726 -0.6761  0.6513
18970TIP3   OH278400   0.434   4.016   1.285 -0.0880  0.4463  0.3249
18970TIP3    H178401   0.491   3.948   1.249 -0.4183  0.4952 -0.2904
18970TIP3    H278402   0.382   4.046   1.211 -1.0569  0.2694  0.9260
18971TIP3   OH278403   3.476   6.458  10.972 -0.5266  1.0004 -0.4645
18971TIP3    H178404   3.521   6.433  10.892  0.9182  1.7754  0.0903
18971TIP3    H278405   3.383   6.463  10.947 -0.2963 -0.4513 -1.6501
18972TIP3   OH278406   2.478   3.721   3.002  0.0358 -0.1473  0.5707
18972TIP3    H178407   2.493   3.681   2.916  0.3776  0.2207  0.4604
18972TIP3    H278408   2.545   3.682   3.058  0.3882  0.2918  0.4560
18973TIP3   OH278409   4.929   1.914  11.572 -0.0511  0.2241 -0.6789
18973TIP3    H178410   4.898   1.951  11.654 -0.6065 -0.7175 -0.4631
18973TIP3    H278411   4.878   1.834  11.560  0.9362 -0.3301 -1.2927
18974TIP3   OH278412   3.272   6.624  13.604  0.5653  0.0338 -0.5251
18974TIP3    H178413   3.203   6.689  13.618  1.2432  0.8598 -1.0240
18974TIP3    H278414   3.301   6.601  13.692  0.6045  0.7004 -0.3649
18975TIP3   OH278415   1.472   3.328  15.870 -0.0410  0.1028  0.6643
18975TIP3    H178416   1.406   3.341  15.802 -0.8996 -0.1365  1.4406
18975TIP3    H278417   1.555   3.339  15.824 -0.6105  0.4609 -0.3168
18976TIP3   OH278418   6.509   2.213   4.412 -0.3890 -0.3443 -0.2066
18976TIP3    H178419   6.557   2.295   4.406 -2.1150  0.6929 -0.2789
18976TIP3    H278420   6.462   2.206   4.329 -1.1523 -0.8174  0.2578
18977TIP3   OH278421   1.071   5.693   4.335  0.9309  0.7787  0.1500
18977TIP3    H178422   0.991   5.695   4.283  0.3268 -0.0666  1.0291
18977TIP3    H278423   1.129   5.758   4.293 -0.3344  1.6503 -0.2699
18978TIP3   OH278424   4.976   1.939   0.367 -0.3687  0.0368 -0.3667
18978TIP3    H178425   5.052   1.908   0.416 -0.3595  1.6545  0.6890
18978TIP3    H278426   4.989   1.905   0.278  0.2768 -1.8339  0.4211
18979TIP3   OH278427   0.861   4.459  15.203 -0.1921  0.4154 -0.2583
18979TIP3    H178428   0.765   4.461  15.194 -0.2393 -2.7079 -1.1081
18979TIP3    H278429   0.893   4.468  15.113  0.2938  0.9373 -0.0323
18980TIP3   OH278430   1.447   4.195  13.973 -0.2486 -0.4301 -0.6397
18980TIP3    H178431   1.438   4.283  14.011 -1.9008 -0.6940 -0.3871
18980TIP3    H278432   1.416   4.204  13.883  1.5656 -0.3042 -1.2707
18981TIP3   OH278433   1.789   3.742  13.186 -0.0962  0.3503  0.0917
18981TIP3    H178434   1.706   3.697  13.170 -0.3377 -0.3066  2.9285
18981TIP3    H278435   1.842   3.678  13.234  1.5746  1.2319 -0.5288
18982TIP3   OH278436   4.275   1.905  14.983 -0.1534 -0.8315 -0.2339
18982TIP3    H178437   4.351   1.921  14.927  0.3267  0.0015  0.6336
18982TIP3    H278438   4.265   1.986  15.033 -0.9016 -1.3672  0.5013
18983TIP3   OH278439   0.558   6.558   4.697  0.0649 -0.4984  0.4763
18983TIP3    H178440   0.616   6.482   4.707 -0.2298 -1.1011 -1.9998
18983TIP3    H278441   0.471   6.525   4.717 -0.5409 -1.7272 -3.6762
18984TIP3   OH278442   2.187   1.393   4.106 -0.4838  0.1245  0.1207
18984TIP3    H178443   2.209   1.474   4.151 -1.0743  0.7944 -0.7958
18984TIP3    H278444   2.270   1.346   4.099  0.6396  2.4295 -2.9089
18985TIP3   OH278445   1.627   4.917  12.025 -0.3351 -0.6200  0.4744
18985TIP3    H178446   1.556   4.976  11.998  0.7181  1.0767  1.3014
18985TIP3    H278447   1.590   4.866  12.097 -1.7148 -1.9953 -1.1868
18986TIP3   OH278448   3.807   2.223   0.064  0.4594 -0.6038 -0.3656
18986TIP3    H178449   3.714   2.207   0.081 -0.0267  1.1177 -1.2698
18986TIP3    H278450   3.849   2.210   0.149 -1.0385  1.6320  0.7580
18987TIP3   OH278451   0.827   1.085  16.499  0.3342  0.0805  0.1170
18987TIP3    H178452   0.732   1.095  16.489  0.2179 -0.9170  0.2035
18987TIP3    H278453   0.861   1.173  16.486 -0.3572 -0.0071 -2.5797
18988TIP3   OH278454   0.380   2.533   2.503  0.6751 -0.6885  0.5927
18988TIP3    H178455   0.404   2.600   2.438 -1.7260  1.1869  1.5612
18988TIP3    H278456   0.287   2.516   2.487  0.0200 -0.1331  3.5485
18989TIP3   OH278457   2.020   4.008  14.842  0.6749  0.2488  0.3972
18989TIP3    H178458   2.038   3.939  14.778 -1.5479 -0.1448  0.1465
18989TIP3    H278459   1.964   4.070  14.794 -0.0682  0.5321  1.6144
18990TIP3   OH278460   0.530   2.046  11.121 -0.0557  0.5289 -0.3850
18990TIP3    H178461   0.438   2.041  11.095 -0.9134 -0.1738  2.5523
18990TIP3    H278462   0.561   1.956  11.116 -0.8473  0.0082  2.9006
18991TIP3   OH278463   2.031   1.041  13.702  0.0367  0.0448 -0.2105
18991TIP3    H178464   2.056   1.108  13.638 -0.4146  0.6807  0.2681
18991TIP3    H278465   2.107   1.032  13.759  0.7422 -1.1008 -1.3028
18992TIP3   OH278466   1.589   5.890  13.802 -0.0721 -0.3504 -0.9077
18992TIP3    H178467   1.612   5.965  13.858 -1.5910  0.2483 -1.0596
18992TIP3    H278468   1.619   5.814  13.852  0.8224  0.3185 -0.4060
18993TIP3   OH278469   5.252   1.813   4.372 -0.2098  0.0915 -0.2241
18993TIP3    H178470   5.334   1.773   4.403 -0.2598 -0.1429 -0.3983
18993TIP3    H278471   5.186   1.782   4.433 -0.1130  0.5533  0.1214
18994TIP3   OH278472   5.300   1.648   0.887 -0.3086 -0.0565 -0.0694
18994TIP3    H178473   5.396   1.640   0.885 -0.4636 -2.0029 -1.8085
18994TIP3    H278474   5.272   1.581   0.949 -0.6848 -1.5389 -1.8079
18995TIP3   OH278475   3.554   4.578  12.705 -0.1048 -0.3185  0.0729
18995TIP3    H178476   3.620   4.633  12.663 -0.5698  0.2033  0.0142
18995TIP3    H278477   3.594   4.549  12.786  0.4771 -0.6169 -0.3180
18996TIP3   OH278478   5.688   6.112   4.918  0.2228  0.3061  0.0846
18996TIP3    H178479   5.638   6.037   4.952  1.2336  0.9144  3.0986
18996TIP3    H278480   5.733   6.077   4.841 -1.2851 -1.4852 -0.0401
18997TIP3   OH278481   5.413   5.457  10.852  0.1235  0.4727  0.3050
18997TIP3    H178482   5.371   5.416  10.928  0.9346  0.1077  0.5617
18997TIP3    H278483   5.446   5.384  10.801 -1.4891  0.6532 -1.0542
18998TIP3   OH278484   6.547   5.046  12.068 -0.0051  0.3413 -0.0633
18998TIP3    H178485   6.524   4.986  12.139  0.5041  0.1118 -0.0901
18998TIP3    H278486   6.510   5.007  11.989 -1.1727  0.9490  0.1718
18999TIP3   OH278487   2.998   6.679  15.094  1.0573 -0.5279 -0.0273
18999TIP3    H178488   3.042   6.604  15.137  2.0499  0.5989  0.9719
18999TIP3    H278489   3.048   6.755  15.124 -1.0921  0.7103  0.4438
19000TIP3   OH278490   5.207   4.597   5.576  0.2201  0.1958  0.0385
19000TIP3    H178491   5.189   4.512   5.616 -1.0591  0.3225 -0.2475
19000TIP3    H278492   5.223   4.656   5.650 -1.9254  0.3796  0.3858
19001TIP3   OH278493   2.446   6.367  14.913 -0.1062  0.7205  0.2684
19001TIP3    H178494   2.522   6.382  14.969  0.4121 -0.1429 -0.2020
19001TIP3    H278495   2.416   6.455  14.890  0.4575  1.0694  0.8403
19002TIP3   OH278496   5.978   6.286  14.847  0.1153 -0.0503 -0.1488
19002TIP3    H178497   5.949   6.372  14.877 -0.3546 -0.1238 -0.3773
19002TIP3    H278498   6.006   6.301  14.756 -0.7182 -0.2861 -0.4514
19003TIP3   OH278499   2.004   3.848  13.033 -0.7358 -0.1712 -0.7207
19003TIP3    H178500   1.937   3.790  13.069  0.3101 -1.0842 -0.2032
19003TIP3    H278501   2.022   3.910  13.104 -1.9867  0.9049 -1.3405
19004TIP3   OH278502   4.458   6.285  15.257 -0.2061 -0.1579  0.0733
19004TIP3    H178503   4.362   6.289  15.251 -0.1255  0.6745 -0.7899
19004TIP3    H278504   4.477   6.322  15.344 -0.7263 -1.4323  0.7431
19005TIP3   OH278505   1.511   6.733  15.620  0.0221  0.0643  0.2486
19005TIP3    H178506   1.428   6.739  15.668  0.9835 -0.4171  2.0340
19005TIP3    H278507   1.493   6.672  15.549 -1.5309  1.0299 -0.2068
19006TIP3   OH278508   3.523   4.106  15.213  0.4773  0.0763 -0.3964
19006TIP3    H178509   3.533   4.192  15.171  1.3591 -0.1241 -0.6089
19006TIP3    H278510   3.465   4.122  15.287  0.9056  0.9246 -0.2398
19007TIP3   OH278511   2.352   2.390   4.389 -0.6313  0.0857  0.4432
19007TIP3    H178512   2.383   2.479   4.371  2.1825 -0.8034  0.7174
19007TIP3    H278513   2.397   2.365   4.470 -0.4976 -2.0292 -0.2561
19008TIP3   OH278514   1.751   4.373   3.990 -0.4959  0.0002 -0.0626
19008TIP3    H178515   1.718   4.288   4.017  1.5907 -1.0688 -0.7778
19008TIP3    H278516   1.687   4.436   4.024 -0.7933 -1.6706  2.5589
19009TIP3   OH278517   4.334   4.146   1.728 -0.5531 -0.1148 -0.3434
19009TIP3    H178518   4.333   4.206   1.802 -1.7119  1.0770 -1.2978
19009TIP3    H278519   4.424   4.114   1.723 -0.2474  0.5196  0.9864
19010TIP3   OH278520   6.311   2.648  16.838 -0.1643  0.2682  0.2659
19010TIP3    H178521   6.251   2.602  16.780 -0.1348  1.9287 -1.1338
19010TIP3    H278522   6.394   2.600  16.830 -0.7116 -0.7207  0.5185
19011TIP3   OH278523   3.821   5.571   0.257  0.1193  0.1567 -0.0662
19011TIP3    H178524   3.809   5.580   0.162 -2.4192  0.3119  0.2249
19011TIP3    H278525   3.821   5.477   0.273 -1.0116  0.1491 -0.0658
19012TIP3   OH278526   2.061   0.710  12.729  0.4308  0.6812 -1.1606
19012TIP3    H178527   2.098   0.794  12.757  0.1104  0.6731 -0.6973
19012TIP3    H278528   1.990   0.694  12.791  0.8126 -0.1739 -0.9383
19013TIP3   OH278529   5.857   3.678  15.979  0.0372 -0.2713 -0.3806
19013TIP3    H178530   5.947   3.709  15.988  0.6682 -2.2111  0.2948
19013TIP3    H278531   5.853   3.641  15.891  0.0026 -0.5390 -0.2654
19014TIP3   OH278532   6.190   1.059   5.565  0.2211  0.3897  0.9064
19014TIP3    H178533   6.174   1.074   5.472 -0.1687  1.0093  1.0729
19014TIP3    H278534   6.112   1.094   5.609 -0.0048 -0.6981  1.4076
19015TIP3   OH278535   6.456   4.224  11.449 -0.2495 -0.1818  0.1720
19015TIP3    H178536   6.471   4.279  11.372  1.8387 -0.7250  0.1742
19015TIP3    H278537   6.505   4.266  11.519 -1.5786 -0.0819  1.0643
19016TIP3   OH278538   2.371   2.425   2.520  0.4195 -0.2488 -0.3357
19016TIP3    H178539   2.311   2.383   2.581 -0.3448 -1.5547 -1.9266
19016TIP3    H278540   2.432   2.356   2.495  0.6198  0.2182 -1.1601
19017TIP3   OH278541   0.351   0.166  12.329  0.4055  0.1105  0.4201
19017TIP3    H178542   0.288   0.232  12.299  0.9259  1.8683  2.9495
19017TIP3    H278543   0.433   0.189  12.286 -0.3150 -1.3097 -1.7632
19018TIP3   OH278544   1.763   0.529   4.383  0.2256  0.5264  0.0085
19018TIP3    H178545   1.734   0.616   4.354  1.3578  0.7841 -0.3862
19018TIP3    H278546   1.685   0.475   4.379 -0.3793  1.4129 -0.2376
19019TIP3   OH278547   2.127   0.587  14.580  0.1606 -0.2678  0.0257
19019TIP3    H178548   2.203   0.636  14.548  0.2265  0.2198  0.9381
19019TIP3    H278549   2.066   0.654  14.612 -0.4164 -0.6894 -0.1824
19020TIP3   OH278550   1.641   0.543   0.938 -0.4435 -0.0876  0.2357
19020TIP3    H178551   1.637   0.564   0.844  0.7804  0.1476  0.2262
19020TIP3    H278552   1.569   0.593   0.976 -0.7897  0.0229 -0.5437
19021TIP3   OH278553   4.768   6.391   4.114  0.5924  0.6603 -0.1514
19021TIP3    H178554   4.699   6.447   4.080 -0.5170  0.3032  1.5023
19021TIP3    H278555   4.796   6.433   4.195  1.0917 -0.1428  0.0965
19022TIP3   OH278556   1.131   2.685  14.738  1.4216  0.4628  0.1572
19022TIP3    H178557   1.143   2.658  14.647  0.4717 -0.0655  0.1875
19022TIP3    H278558   1.074   2.618  14.776 -0.6470  2.2590  0.3341
19023TIP3   OH278559   2.700   3.768  13.016 -0.7743 -0.8436  0.8336
19023TIP3    H178560   2.761   3.750  13.088  0.4488  0.8124  0.2433
19023TIP3    H278561   2.675   3.860  13.029 -0.0912 -0.3515 -1.1606
19024TIP3   OH278562   5.097   1.576  14.008 -0.2421  0.0804  0.0531
19024TIP3    H178563   5.045   1.537  14.078  0.2426 -0.0711  0.3361
19024TIP3    H278564   5.037   1.585  13.935 -0.7261  0.1402  0.4581
19025TIP3   OH278565   2.215   2.430   3.608  0.4198  0.5704 -0.4582
19025TIP3    H178566   2.209   2.337   3.631 -0.1308  0.5236 -0.7637
19025TIP3    H278567   2.268   2.431   3.528 -0.5743  0.3974 -1.1317
19026TIP3   OH278568   1.400   2.819  16.441 -0.0305  0.4210  0.3349
19026TIP3    H178569   1.461   2.852  16.507 -2.0257 -0.5100  2.7162
19026TIP3    H278570   1.352   2.897  16.412  1.8563  1.0766 -1.1833
19027TIP3   OH278571   6.715   5.240   3.186 -0.1575 -0.5056 -0.3580
19027TIP3    H178572   6.634   5.200   3.215  0.2506 -0.7338  0.4912
19027TIP3    H278573   6.754   5.277   3.266  0.8325 -0.8706 -0.6583
19028TIP3   OH278574   6.183   3.858   5.373  0.4276 -0.6639  0.0602
19028TIP3    H178575   6.265   3.811   5.385  0.7172 -0.4378 -1.0291
19028TIP3    H278576   6.178   3.877   5.279 -0.0089  0.8670  0.3721
19029TIP3   OH278577   3.280   1.318  14.079  0.6597 -0.4343 -0.1538
19029TIP3    H178578   3.201   1.278  14.117  0.9762  0.4125  1.4217
19029TIP3    H278579   3.274   1.410  14.104  2.0293 -0.3163 -0.2457
19030TIP3   OH278580   1.933   3.070  13.569  0.8896 -0.2793  0.3997
19030TIP3    H178581   1.965   3.159  13.582  0.6132  0.2787 -2.2965
19030TIP3    H278582   1.846   3.070  13.607 -0.0592  1.3564 -1.6522
19031TIP3   OH278583   2.275   5.603   4.157  0.6727  0.2788 -0.4828
19031TIP3    H178584   2.231   5.633   4.078 -0.2086 -0.6047 -0.3341
19031TIP3    H278585   2.234   5.520   4.178  0.7993  0.5631  0.9793
19032TIP3   OH278586   4.556   0.404   2.012  0.0049  0.2462 -0.3483
19032TIP3    H178587   4.601   0.461   2.074  2.0741  0.7076 -2.1787
19032TIP3    H278588   4.529   0.328   2.063  1.5524  0.6745  1.1256
19033TIP3   OH278589   0.613   2.324  10.439 -0.5206 -0.0654  0.1294
19033TIP3    H178590   0.669   2.361  10.371  1.3387 -1.2105  0.9896
19033TIP3    H278591   0.560   2.398  10.469  0.7774  1.1369 -0.4694
19034TIP3   OH278592   1.653   4.618   4.349  0.0238 -0.6851 -0.0071
19034TIP3    H178593   1.611   4.616   4.262  1.0550 -0.4274 -0.5136
19034TIP3    H278594   1.635   4.532   4.386  2.2259 -1.9202 -1.7366
19035TIP3   OH278595   2.940   5.430   1.721  0.1545 -0.6453  0.2371
19035TIP3    H178596   2.851   5.423   1.756  0.3788 -0.3248  0.8714
19035TIP3    H278597   2.967   5.339   1.705 -0.7867 -0.6781 -1.2358
19036TIP3   OH278598   0.896   3.305  14.400  0.3758 -0.4408  0.5103
19036TIP3    H178599   0.930   3.222  14.366  0.2722  0.3656 -1.6062
19036TIP3    H278600   0.973   3.359  14.414  0.1982  0.3735 -1.5624
19037TIP3   OH278601   2.111   4.204  12.232  0.2926  0.6209 -0.4002
19037TIP3    H178602   2.121   4.148  12.156  0.1053  1.9454 -1.4300
19037TIP3    H278603   2.036   4.168  12.279 -1.4243  1.4548 -2.3963
19038TIP3   OH278604   1.005   6.583  12.994 -0.0602 -0.4592 -0.0176
19038TIP3    H178605   1.038   6.512  12.939  2.0836  0.5481 -0.0791
19038TIP3    H278606   1.079   6.643  13.003 -1.5670  1.3449  0.7498
19039TIP3   OH278607   3.143   4.394   0.027 -0.5732 -0.0877  0.2279
19039TIP3    H178608   3.235   4.380   0.003 -0.3974 -1.9387  1.8076
19039TIP3    H278609   3.144   4.400   0.123 -1.6676  3.5995  0.0625
19040TIP3   OH278610   6.221   3.261   2.187  0.2369  0.0231  0.0842
19040TIP3    H178611   6.127   3.254   2.170  0.1523 -0.9546  0.9546
19040TIP3    H278612   6.227   3.284   2.280  0.8617  0.0011  0.0521
19041TIP3   OH278613   0.836   4.081  15.293  0.0626  0.2154  0.4791
19041TIP3    H178614   0.765   4.020  15.313 -0.9564  1.0793 -0.4417
19041TIP3    H278615   0.906   4.026  15.258 -0.4512 -0.5488  0.6474
19042TIP3   OH278616   3.140   2.152  12.940  0.2417  0.3537 -0.2484
19042TIP3    H178617   3.114   2.243  12.927 -1.4989 -0.0449  0.4239
19042TIP3    H278618   3.236   2.154  12.934  0.1437  1.9768 -1.7278
19043TIP3   OH278619   3.681   2.977   0.785 -0.3138 -0.6276 -0.4095
19043TIP3    H178620   3.716   3.055   0.829  1.6081 -0.9721 -1.2572
19043TIP3    H278621   3.704   2.904   0.842  2.2614 -1.0826 -1.9659
19044TIP3   OH278622   0.253   6.523   5.279  0.1364  0.2593  0.2352
19044TIP3    H178623   0.177   6.487   5.233  0.5759 -0.4603  0.0674
19044TIP3    H278624   0.328   6.493   5.228  0.4711  2.1382 -0.3989
19045TIP3   OH278625   0.780   3.469   0.853  0.0721  0.4502  0.5399
19045TIP3    H178626   0.745   3.386   0.884 -1.2217  0.8178  0.0935
19045TIP3    H278627   0.829   3.446   0.774  0.9532 -0.0785  1.2273
19046TIP3   OH278628   5.586   6.323  16.470 -0.3964 -0.1385 -0.3379
19046TIP3    H178629   5.556   6.409  16.501  1.8315  1.0560 -1.3694
19046TIP3    H278630   5.588   6.332  16.375  3.6497  0.0103 -0.3036
19047TIP3   OH278631   3.088   4.419   2.571  0.2546  0.3918 -0.6700
19047TIP3    H178632   3.004   4.447   2.536  0.8168  1.0191 -1.5377
19047TIP3    H278633   3.097   4.328   2.543  0.3240  0.6379 -1.4500
19048TIP3   OH278634   4.667   3.994  16.894  0.1821 -0.2422 -0.2048
19048TIP3    H178635   4.576   3.963  16.890 -0.8035  2.1279  2.7174
19048TIP3    H278636   4.701   3.957  16.975  1.4839 -0.1279 -0.6924
19049TIP3   OH278637   6.287   1.435  15.619  0.3768 -0.6488  0.3523
19049TIP3    H178638   6.277   1.354  15.670 -0.3293 -0.4631  0.5093
19049TIP3    H278639   6.227   1.424  15.546  1.7019 -1.1002 -0.6851
19050TIP3   OH278640   4.954   5.166   1.351 -0.6047 -0.6018  0.1288
19050TIP3    H178641   5.021   5.161   1.282 -1.1638  0.3873 -0.4894
19050TIP3    H278642   4.919   5.077   1.356  0.4060 -1.0155  0.1130
19051TIP3   OH278643   0.737   1.661   3.071  0.3574  0.4785 -0.0083
19051TIP3    H178644   0.821   1.706   3.061  0.9791 -0.3238  1.4302
19051TIP3    H278645   0.745   1.583   3.015  0.6838  0.2499  0.3558
19052TIP3   OH278646   6.616   4.204   3.426 -0.2421  0.3423  0.5167
19052TIP3    H178647   6.569   4.258   3.362 -1.3000 -0.1728  0.8346
19052TIP3    H278648   6.649   4.130   3.374 -0.1354  0.5000  0.3593
19053TIP3   OH278649   1.560   0.461   1.425  0.9066  0.0232  0.7312
19053TIP3    H178650   1.523   0.386   1.378 -0.5728  2.2334 -1.7847
19053TIP3    H278651   1.651   0.437   1.441  0.5222 -2.2060 -0.2575
19054TIP3   OH278652   5.385   5.278  16.448  0.1346 -0.0834 -0.3567
19054TIP3    H178653   5.357   5.201  16.399  0.3665 -1.1434  1.1253
19054TIP3    H278654   5.473   5.255  16.480  0.2477  0.8418  0.0050
19055TIP3   OH278655   3.149   5.255   1.659  0.6476  0.9105 -0.4277
19055TIP3    H178656   3.146   5.348   1.637  1.1661  0.5676 -1.9743
19055TIP3    H278657   3.242   5.232   1.656  0.6272  0.5909  1.0483
19056TIP3   OH278658   5.873   5.583   3.256  0.4755  0.1381 -0.3090
19056TIP3    H178659   5.875   5.496   3.217 -1.5582  0.3717 -1.0027
19056TIP3    H278660   5.921   5.638   3.193  2.5096 -0.5911  0.5436
19057TIP3   OH278661   3.504   6.525   3.708 -0.1105  0.2942  0.1531
19057TIP3    H178662   3.487   6.449   3.652 -0.1677 -0.1103  0.7172
19057TIP3    H278663   3.564   6.580   3.656  1.2194 -0.9080  0.3879
19058TIP3   OH278664   0.168   3.649   2.392  0.5531 -0.1258  0.1254
19058TIP3    H178665   0.261   3.655   2.370  0.8793 -0.6559  1.3142
19058TIP3    H278666   0.151   3.555   2.398  0.2664 -0.0106  1.2373
19059TIP3   OH278667   5.888   6.449   2.664  0.3628  0.4850  0.3393
19059TIP3    H178668   5.874   6.366   2.617 -0.5712  0.0384  1.3702
19059TIP3    H278669   5.892   6.515   2.596  1.1422 -0.4174 -0.5062
19060TIP3   OH278670   5.425   3.944  13.380  0.0774  0.2912  0.1909
19060TIP3    H178671   5.353   4.003  13.400  0.4602  1.0457 -0.6808
19060TIP3    H278672   5.394   3.858  13.410 -0.5750  0.8745  1.2092
19061TIP3   OH278673   3.259   6.643   1.460  0.2107  0.1749  0.2662
19061TIP3    H178674   3.210   6.664   1.380 -3.6331 -0.4132  2.3747
19061TIP3    H278675   3.297   6.726   1.488  1.2718  0.4599 -1.8961
19062TIP3   OH278676   0.062   5.329  17.217  0.0715 -0.2730  0.3168
19062TIP3    H178677   0.100   5.313  17.131 -0.5616 -1.5010  0.2534
19062TIP3    H278678   0.113   5.401  17.253  0.7843 -0.2069 -0.8088
19063TIP3   OH278679   3.973   4.615  13.964 -0.0565 -0.1209 -0.1395
19063TIP3    H178680   3.883   4.636  13.941 -0.2405 -0.1556  0.5427
19063TIP3    H278681   3.972   4.604  14.059  1.2184  2.5176  0.2141
19064TIP3   OH278682   4.089   2.822   6.428  0.4120 -0.0295  0.0449
19064TIP3    H178683   4.147   2.895   6.451  2.1751 -0.8191 -1.7856
19064TIP3    H278684   4.008   2.865   6.399  1.4138  1.2071 -0.9773
19065TIP3   OH278685   6.038   0.590  16.397  0.0852 -0.0526 -0.4611
19065TIP3    H178686   6.035   0.617  16.489 -1.3005 -1.4354 -0.0815
19065TIP3    H278687   6.075   0.502  16.400  0.0047 -0.1104 -1.2245
19066TIP3   OH278688   5.122   0.276  11.603  0.4529  0.0484 -0.6811
19066TIP3    H178689   5.109   0.313  11.690  1.1908  1.3735 -1.1110
19066TIP3    H278690   5.177   0.199  11.617  0.3391  0.1001  0.0514
19067TIP3   OH278691   2.508   2.311   6.449 -0.3637 -0.2827 -0.0489
19067TIP3    H178692   2.505   2.322   6.544 -0.6563  0.8194 -0.1829
19067TIP3    H278693   2.428   2.264   6.428 -0.3626 -0.4152  0.2345
19068TIP3   OH278694   1.566   3.951  10.706 -0.0405 -0.1722 -0.2100
19068TIP3    H178695   1.502   3.911  10.765  1.1675 -1.2244  0.4116
19068TIP3    H278696   1.528   4.037  10.685  0.2888  0.9674  3.4731
19069TIP3   OH278697   3.924   2.088  16.628  0.2565  0.2845 -0.0981
19069TIP3    H178698   3.898   2.179  16.645  1.3989  0.5265  0.4051
19069TIP3    H278699   4.019   2.091  16.624  0.2778 -0.8131 -0.5936
19070TIP3   OH278700   3.759   4.074   0.272 -0.3837  0.1873  0.0542
19070TIP3    H178701   3.788   3.983   0.278 -0.3691  0.2032  0.2540
19070TIP3    H278702   3.833   4.120   0.232  0.3866  0.4498  1.7005
19071TIP3   OH278703   6.089   1.209   0.962 -0.1484  0.3945  0.2310
19071TIP3    H178704   6.058   1.149   0.894 -1.9933  0.4584  0.9783
19071TIP3    H278705   6.009   1.247   0.998  0.7237 -0.3247  3.0529
19072TIP3   OH278706   5.707   6.768   5.165 -0.6387 -0.2293 -0.1674
19072TIP3    H178707   5.617   6.751   5.136 -0.8559 -0.5267  0.6423
19072TIP3    H278708   5.705   6.747   5.259 -0.0266  0.9379  0.1033
19073TIP3   OH278709   5.107   3.402  15.000  0.3566 -0.7760 -0.0853
19073TIP3    H178710   5.140   3.319  14.967  0.4496 -0.0161 -2.0318
19073TIP3    H278711   5.122   3.399  15.094  1.1813 -2.5782 -0.2531
19074TIP3   OH278712   3.258   6.218   0.539 -0.7703 -0.5202 -0.5932
19074TIP3    H178713   3.353   6.208   0.536 -0.5291  0.5491  2.0564
19074TIP3    H278714   3.229   6.155   0.605 -1.8473 -0.3962 -0.9366
19075TIP3   OH278715   2.012   3.847   1.839  0.4977  0.1383 -0.1726
19075TIP3    H178716   1.996   3.884   1.752  0.7334  1.7677  0.4542
19075TIP3    H278717   2.044   3.759   1.821 -1.0032 -0.1393 -1.6786
19076TIP3   OH278718   0.491   2.061  16.760  0.5659 -0.3719  0.7263
19076TIP3    H178719   0.521   1.978  16.797  0.1717 -0.9180 -0.1661
19076TIP3    H278720   0.397   2.049  16.749  0.6996 -0.2650 -0.5774
19077TIP3   OH278721   3.569   3.649  12.184 -0.2332 -0.3029 -0.6691
19077TIP3    H178722   3.542   3.579  12.125 -1.8804 -1.0541  0.9312
19077TIP3    H278723   3.592   3.604  12.265 -0.9950  0.9732  0.2693
19078TIP3   OH278724   3.916   1.297   1.697 -0.2812  0.0381  0.2100
19078TIP3    H178725   3.887   1.299   1.606  2.0125  0.5423 -0.5384
19078TIP3    H278726   3.853   1.353   1.743 -1.5257 -0.3036 -1.0256
19079TIP3   OH278727   2.011   5.442  13.147 -0.3150  0.3825  0.0407
19079TIP3    H178728   1.921   5.421  13.172 -0.6642  1.3943 -0.3404
19079TIP3    H278729   2.026   5.529  13.185  0.4854  0.2341  0.0644
19080TIP3   OH278730   2.634   6.108   0.537 -0.8977 -0.0578  0.0972
19080TIP3    H178731   2.551   6.063   0.549 -1.0461 -0.1342 -1.1454
19080TIP3    H278732   2.700   6.040   0.548 -0.9028  0.2632  2.4713
19081TIP3   OH278733   2.516   4.599   1.637  0.7700  0.3988 -0.5559
19081TIP3    H178734   2.429   4.558   1.642  0.5739  0.4965 -2.6922
19081TIP3    H278735   2.576   4.525   1.625  0.7026  0.5137 -1.6496
19082TIP3   OH278736   3.887   4.521  17.110 -0.6675 -0.6338  0.2096
19082TIP3    H178737   3.951   4.542  17.179  1.4147  0.7449 -2.0761
19082TIP3    H278738   3.849   4.606  17.086 -0.3324 -0.8972 -1.3095
19083TIP3   OH278739   0.367   6.716   3.031 -0.1781 -0.0467 -0.3089
19083TIP3    H178740   0.349   6.660   2.957  1.1887  2.0126 -2.2869
19083TIP3    H278741   0.326   6.800   3.009  0.7674  0.7794  0.9378
19084TIP3   OH278742   3.090   3.172  17.104 -0.2356  0.0915 -0.5145
19084TIP3    H178743   3.131   3.256  17.089  0.0775  0.0228 -0.0551
19084TIP3    H278744   3.143   3.109  17.055 -0.6027  0.1879 -1.0428
19085TIP3   OH278745   3.266   4.337   3.148 -0.4846  0.1049 -0.2417
19085TIP3    H178746   3.256   4.401   3.218 -1.3440 -1.4825  1.0981
19085TIP3    H278747   3.178   4.326   3.112  0.0122  1.1868 -1.8347
19086TIP3   OH278748   4.979   0.622  11.431 -0.0995  0.0264  0.3306
19086TIP3    H178749   4.919   0.574  11.489  0.3429  0.4844  1.1775
19086TIP3    H278750   5.010   0.695  11.484 -0.3929  0.9829 -0.7984
19087TIP3   OH278751   1.913   1.308  14.194 -0.2926 -0.1825 -0.2160
19087TIP3    H178752   1.913   1.403  14.211  0.8279 -0.1585 -0.2851
19087TIP3    H278753   1.932   1.301  14.101  1.5016 -0.5157  0.1603
19088TIP3   OH278754   0.007   3.800   1.577  0.0849  0.0649 -0.7846
19088TIP3    H178755  -0.042   3.823   1.657  0.5546 -0.1366 -0.4404
19088TIP3    H278756   0.096   3.832   1.593  0.1596  0.1034 -1.2658
19089TIP3   OH278757   2.654   4.583   2.996 -0.2433  0.0184  0.0193
19089TIP3    H178758   2.632   4.600   2.905  1.6419  2.1473 -0.0633
19089TIP3    H278759   2.730   4.525   2.993 -0.5607 -0.4123  0.2435
19090TIP3   OH278760   5.664   0.898  14.755  0.0697  0.2392 -0.0603
19090TIP3    H178761   5.683   0.806  14.769  1.5549  0.5416 -0.0366
19090TIP3    H278762   5.618   0.926  14.834  0.9262 -0.1145  0.5633
19091TIP3   OH278763   5.132   2.018   4.197  0.4089  0.1672 -0.0726
19091TIP3    H178764   5.153   1.957   4.267  0.5306  0.1198 -0.1497
19091TIP3    H278765   5.198   2.086   4.203  0.1132  0.4302  0.1809
19092TIP3   OH278766   4.188   4.733   1.801  0.7093 -0.3873 -0.4740
19092TIP3    H178767   4.104   4.776   1.821  1.5567  1.7273 -1.3823
19092TIP3    H278768   4.233   4.729   1.885  0.1013 -0.6602 -0.1561
19093TIP3   OH278769   4.780   1.921  14.614 -0.3995  0.8898 -0.0756
19093TIP3    H178770   4.721   1.864  14.664 -0.6979  2.3104  1.1867
19093TIP3    H278771   4.787   1.877  14.528 -3.5426  0.8506 -0.3712
19094TIP3   OH278772   6.243   0.583  12.998 -0.2156 -0.2439  0.3626
19094TIP3    H178773   6.325   0.627  13.020 -0.5760  0.0951  1.0549
19094TIP3    H278774   6.232   0.516  13.067 -0.6351 -0.1300  0.4090
19095TIP3   OH278775   6.316   1.365   0.972  0.3046 -0.0580 -0.2739
19095TIP3    H178776   6.296   1.406   1.056  1.3333 -1.1139  0.5093
19095TIP3    H278777   6.236   1.317   0.950  0.4872 -0.8647  0.7694
19096TIP3   OH278778   1.480   0.547   3.060  0.2302  0.5353  0.1864
19096TIP3    H178779   1.506   0.559   2.969 -3.1836 -0.4412 -0.9966
19096TIP3    H278780   1.397   0.594   3.068 -0.5334 -1.0773  2.2335
19097TIP3   OH278781   0.520   3.949   1.540  0.4239 -0.1854 -0.6923
19097TIP3    H178782   0.559   4.027   1.578 -1.0528 -0.1153  0.7565
19097TIP3    H278783   0.505   3.971   1.448  1.1041  0.8023 -0.5732
19098TIP3   OH278784   2.400   0.788   2.553  0.1546  0.2543 -0.0167
19098TIP3    H178785   2.496   0.790   2.559  0.2856 -2.3731 -0.7759
19098TIP3    H278786   2.380   0.847   2.480  1.6385 -3.4761 -3.6210
19099TIP3   OH278787   6.576   2.833  16.000 -0.2008 -0.4635  0.3243
19099TIP3    H178788   6.597   2.795  15.914  1.2012 -0.2627  0.5611
19099TIP3    H278789   6.657   2.822  16.051 -0.0155  2.0827  0.6601
19100TIP3   OH278790   1.494   5.628  13.841  0.1113  0.4534  0.1375
19100TIP3    H178791   1.493   5.603  13.933  0.0439  0.3983  0.1221
19100TIP3    H278792   1.443   5.709  13.838  1.4963  1.3480  0.3952
19101TIP3   OH278793   1.727   3.462   2.792  0.1218 -0.0969 -0.5238
19101TIP3    H178794   1.768   3.388   2.749  1.7940  1.1204 -1.0494
19101TIP3    H278795   1.718   3.435   2.884 -2.4985 -2.2835 -1.3626
19102TIP3   OH278796   5.085   5.733  15.557 -0.5477 -0.4085  0.2232
19102TIP3    H178797   5.107   5.746  15.465  0.1955 -0.7561  0.3526
19102TIP3    H278798   5.052   5.818  15.586 -0.7684 -0.2947 -0.3594
19103TIP3   OH278799   2.963   3.710   0.391 -0.0571  0.0377 -0.0250
19103TIP3    H178800   2.971   3.804   0.404 -2.0394  0.2989 -0.5253
19103TIP3    H278801   2.872   3.697   0.365  0.5603 -1.8619 -1.3262
19104TIP3   OH278802   1.708   2.983   1.532 -0.2446  0.1407 -0.9519
19104TIP3    H178803   1.625   2.967   1.487 -0.5778 -0.5298 -0.1141
19104TIP3    H278804   1.773   2.937   1.479 -0.6924 -0.9857 -0.5399
19105TIP3   OH278805   6.429   0.528   2.680 -0.3725  0.6696  0.4053
19105TIP3    H178806   6.485   0.573   2.743 -0.5049  1.1602  0.1667
19105TIP3    H278807   6.437   0.435   2.704 -0.2846  0.8375  1.0367
19106TIP3   OH278808   0.708   4.421  10.786  0.0132 -0.2663  0.0957
19106TIP3    H178809   0.643   4.412  10.855 -2.0557 -0.4190 -1.8052
19106TIP3    H278810   0.706   4.337  10.740  0.2157  0.3829 -1.1203
19107TIP3   OH278811   2.683   3.777  15.364  0.1515  0.0468  0.3201
19107TIP3    H178812   2.659   3.687  15.342  0.2271 -0.2667  1.4387
19107TIP3    H278813   2.758   3.768  15.423  0.5867  0.8688 -0.0966
19108TIP3   OH278814   1.145   5.524  15.289  0.5535 -0.5142 -0.3406
19108TIP3    H178815   1.108   5.468  15.220  1.4499  2.8669 -3.6923
19108TIP3    H278816   1.084   5.597  15.296  2.1732  0.8082  0.2049
19109TIP3   OH278817   4.512   0.241   3.556  0.2927 -0.6447 -0.9169
19109TIP3    H178818   4.512   0.147   3.574 -0.3497 -0.3969  0.4518
19109TIP3    H278819   4.603   0.267   3.570  0.2394 -0.8549 -0.1488
19110TIP3   OH278820   0.130   3.015   5.196 -0.7748  0.0588  0.2783
19110TIP3    H178821   0.059   3.054   5.246 -0.4427  1.0214  0.0014
19110TIP3    H278822   0.208   3.063   5.223 -0.2988 -0.6515  0.2008
19111TIP3   OH278823   3.928   6.099  17.110 -0.9620 -0.1315  0.3610
19111TIP3    H178824   3.954   6.007  17.100 -1.2485 -0.1833  0.0946
19111TIP3    H278825   3.955   6.122  17.199 -0.1832 -0.2470  0.1625
19112TIP3   OH278826   1.987   0.658  17.026 -0.5991  0.9899 -0.0426
19112TIP3    H178827   1.901   0.629  17.055  0.2022 -1.9739 -0.4761
19112TIP3    H278828   1.995   0.625  16.937  0.7579  1.7528 -0.2174
19113TIP3   OH278829   0.004   1.575   1.879  0.0579  0.6724 -0.0372
19113TIP3    H178830   0.060   1.535   1.812  0.2160  2.1376 -0.8220
19113TIP3    H278831  -0.055   1.505   1.906  0.4668 -0.1484 -1.2078
19114TIP3   OH278832   3.448   4.491   1.072 -0.1032 -0.4722 -0.0313
19114TIP3    H178833   3.488   4.539   1.145 -1.9327  0.0477  0.6453
19114TIP3    H278834   3.375   4.443   1.111  0.1768 -1.8507 -1.1568
19115TIP3   OH278835   0.733   3.416  13.072  0.1973  0.0915 -0.1820
19115TIP3    H178836   0.730   3.476  13.147 -1.2820  0.8818 -0.8608
19115TIP3    H278837   0.683   3.460  13.004  0.0467 -1.4168 -1.0671
19116TIP3   OH278838   1.935   1.497  11.694  0.1438  0.6500  0.1380
19116TIP3    H178839   2.024   1.472  11.720 -0.4499 -0.7562  0.8898
19116TIP3    H278840   1.934   1.484  11.599  1.3565  2.7140 -0.1934
19117TIP3   OH278841   3.617   2.773   5.977 -0.1166 -0.3040 -0.9405
19117TIP3    H178842   3.679   2.756   5.907 -0.4316 -0.9212 -1.0748
19117TIP3    H278843   3.635   2.863   6.004 -0.1941  0.0364 -2.0068
19118TIP3   OH278844   0.266   1.158   0.178 -0.3513  0.1866 -0.5408
19118TIP3    H178845   0.222   1.113   0.250 -0.1595  1.3735  0.3244
19118TIP3    H278846   0.358   1.162   0.205 -0.2489  0.4834 -0.9276
19119TIP3   OH278847   5.471   0.957  14.497 -0.6549 -0.4286 -0.5905
19119TIP3    H178848   5.425   0.917  14.424 -0.0444 -1.0802 -0.6229
19119TIP3    H278849   5.557   0.981  14.461  0.1071 -1.8719  0.2303
19120TIP3   OH278850   5.626   2.991  13.780  0.1665  0.1761  0.5777
19120TIP3    H178851   5.708   3.018  13.738 -0.6058  1.1468 -0.3560
19120TIP3    H278852   5.604   2.908  13.738  0.6476 -0.0768  0.8147
19121TIP3   OH278853   1.745   3.133   4.216 -0.2663 -0.3863  0.3794
19121TIP3    H178854   1.738   3.063   4.151 -0.8966  1.2261 -1.3562
19121TIP3    H278855   1.666   3.186   4.202  1.1738  1.7737  0.2863
19122TIP3   OH278856   0.203   1.964  16.686 -0.8563 -0.4332  0.1449
19122TIP3    H178857   0.147   1.895  16.651 -1.7511  0.7184 -0.7722
19122TIP3    H278858   0.144   2.039  16.695  0.2430  0.3912  0.4797
19123TIP3   OH278859   4.227   0.925  11.668 -0.3270 -0.8551  0.3513
19123TIP3    H178860   4.171   0.991  11.708  1.8390  0.7227  0.9163
19123TIP3    H278861   4.207   0.930  11.574 -1.0243 -0.2011  0.5346
19124TIP3   OH278862   6.588   4.792   4.980  0.0120 -1.1591 -0.5961
19124TIP3    H178863   6.597   4.698   4.963  0.5077 -0.7927 -2.4088
19124TIP3    H278864   6.588   4.832   4.893 -0.6509  0.4834  0.1533
19125TIP3   OH278865   2.252   0.107   1.836  0.0201  0.1368  0.0921
19125TIP3    H178866   2.219   0.182   1.787  0.1354  0.1520  0.0376
19125TIP3    H278867   2.248   0.133   1.928  2.8460  1.3155 -0.0945
19126TIP3   OH278868   1.008   3.000  11.498  0.2038  0.5058  0.1905
19126TIP3    H178869   1.007   3.083  11.546  0.9287  1.5207 -1.4783
19126TIP3    H278870   1.099   2.970  11.503  0.3225  0.6973 -0.6352
19127TIP3   OH278871   0.263   4.135  15.220  0.1111 -0.0020  0.0462
19127TIP3    H178872   0.176   4.123  15.259 -0.8369 -1.5429 -2.4315
19127TIP3    H278873   0.319   4.158  15.294 -2.3054  0.5469  1.7684
19128TIP3   OH278874   4.690   0.459   2.787  0.2874 -0.0753 -0.3078
19128TIP3    H178875   4.621   0.516   2.755  0.1886 -0.3715 -0.6360
19128TIP3    H278876   4.678   0.457   2.882 -0.7949 -0.9224 -0.4389
19129TIP3   OH278877   3.268   5.536   0.971 -0.6052  0.3850 -0.2207
19129TIP3    H178878   3.296   5.469   1.033 -1.8605 -0.6525 -0.7345
19129TIP3    H278879   3.345   5.554   0.918  0.0892  0.2758  0.7405
19130TIP3   OH278880   4.474   5.217  15.605 -0.0854  0.6705 -0.2854
19130TIP3    H178881   4.471   5.239  15.698 -1.7683  2.8640 -0.8237
19130TIP3    H278882   4.526   5.137  15.601 -0.5704  0.1547  2.6166
19131TIP3   OH278883   0.262   0.238  11.532  0.0702 -0.3137 -0.5778
19131TIP3    H178884   0.342   0.204  11.570  0.9451  1.8992 -0.3765
19131TIP3    H278885   0.278   0.240  11.438  0.1727 -0.0967 -0.5571
19132TIP3   OH278886   5.792   0.350  16.845 -0.6612 -0.4073 -0.4768
19132TIP3    H178887   5.821   0.259  16.841  0.7216 -0.1824  2.5186
19132TIP3    H278888   5.699   0.348  16.824 -0.7449 -2.5873  0.0439
19133TIP3   OH278889   0.316   4.169   3.569  0.3005 -0.5432  0.0468
19133TIP3    H178890   0.272   4.252   3.589  1.7988  0.6986 -1.6031
19133TIP3    H278891   0.266   4.133   3.496  1.1184  0.1337 -0.8529
19134TIP3   OH278892   4.146   1.761   5.077 -0.3493 -0.4393 -0.8215
19134TIP3    H178893   4.237   1.734   5.087 -1.1095 -3.0887 -0.5541
19134TIP3    H278894   4.132   1.765   4.983  0.2206  0.6816 -0.8676
19135TIP3   OH278895   5.796   0.652  13.101  0.3036 -0.0384 -0.8814
19135TIP3    H178896   5.705   0.664  13.076  0.3571  0.2353 -0.9495
19135TIP3    H278897   5.801   0.562  13.133 -0.0357  0.0109 -0.6857
19136TIP3   OH278898   5.281   1.469   0.439 -0.6914  0.0690 -0.0119
19136TIP3    H178899   5.273   1.385   0.482 -2.4226  0.4132  0.3915
19136TIP3    H278900   5.210   1.469   0.374  0.5179  0.4290 -1.3616
19137TIP3   OH278901   2.846   0.965   0.414 -0.3923 -0.1902  0.4931
19137TIP3    H178902   2.808   0.950   0.327 -0.7625  0.6700  0.4978
19137TIP3    H278903   2.772   0.995   0.467  0.3697  1.9891  0.3764
19138TIP3   OH278904   3.841   1.070   0.082  0.0002  0.0354 -0.5131
19138TIP3    H178905   3.854   1.106  -0.005 -0.1537 -2.1229 -1.4590
19138TIP3    H278906   3.889   1.130   0.140 -1.8308  2.8149 -1.7615
19139TIP3   OH278907   1.966   2.889  11.707 -0.3359  0.7645 -0.0559
19139TIP3    H178908   1.931   2.937  11.782 -0.2872  0.4786  0.1520
19139TIP3    H278909   1.921   2.927  11.632  1.6920  2.9656 -0.1751
19140TIP3   OH278910   3.858   1.675  15.801  0.2850 -0.1694  0.0508
19140TIP3    H178911   3.859   1.637  15.889  1.2343 -1.3214 -0.4528
19140TIP3    H278912   3.785   1.632  15.757  1.0412 -1.0562 -0.3537
19141TIP3   OH278913   1.383   2.383  12.249  0.4510  0.2449 -0.2121
19141TIP3    H178914   1.345   2.330  12.319 -0.7230 -1.5720 -2.1393
19141TIP3    H278915   1.387   2.472  12.285 -1.7724 -0.3155  1.5249
19142TIP3   OH278916   3.625   6.743   5.895 -0.2831  0.4161 -0.2842
19142TIP3    H178917   3.541   6.783   5.916 -0.2216  1.1694 -1.4471
19142TIP3    H278918   3.607   6.649   5.897 -1.2112  0.5752 -0.7431
19143TIP3   OH278919   5.873   4.351  11.674 -0.0728 -0.4490  0.0786
19143TIP3    H178920   5.834   4.405  11.742 -1.1528 -1.0084 -0.0931
19143TIP3    H278921   5.812   4.355  11.601  0.2368 -1.2344 -0.2370
19144TIP3   OH278922   5.213   1.521   1.435  0.9444 -0.9163  0.4326
19144TIP3    H178923   5.174   1.520   1.522 -1.8503  0.2101 -0.7587
19144TIP3    H278924   5.220   1.428   1.411  0.5449 -1.1866  1.3344
19145TIP3   OH278925   3.010   5.361   4.104 -0.4647 -0.0362  0.2348
19145TIP3    H178926   3.043   5.276   4.134  0.7697  0.2059 -0.3886
19145TIP3    H278927   2.924   5.342   4.067  0.2777 -1.2081 -0.9246
19146TIP3   OH278928   5.101   3.277  13.602 -0.4110  0.1556  0.4894
19146TIP3    H178929   5.032   3.343  13.613 -1.0637 -0.5806  0.8533
19146TIP3    H278930   5.105   3.232  13.686  0.4763  0.1469  0.4436
19147TIP3   OH278931   3.177   5.200   4.255 -0.0846  0.8893 -0.4611
19147TIP3    H178932   3.211   5.199   4.344  2.5310  0.7644 -1.4151
19147TIP3    H278933   3.188   5.110   4.224  1.1766  1.4194 -1.6397
19148TIP3   OH278934   0.635   3.413  12.820 -0.2526 -0.1711  0.2487
19148TIP3    H178935   0.627   3.383  12.730  1.1103 -0.1654  0.1097
19148TIP3    H278936   0.601   3.341  12.873 -1.7364  0.1197 -0.2839
19149TIP3   OH278937   4.459   5.126   1.404  0.2185 -0.1274 -0.2058
19149TIP3    H178938   4.383   5.178   1.380 -0.3770 -1.2390 -0.7650
19149TIP3    H278939   4.533   5.171   1.362 -0.0081  1.3888  0.9916
19150TIP3   OH278940   4.815   2.017   4.382 -0.2156 -0.4279 -0.6001
19150TIP3    H178941   4.813   2.014   4.478  0.3951  2.0479 -0.4831
19150TIP3    H278942   4.805   1.925   4.355 -2.7427 -0.9159  1.7625
19151TIP3   OH278943   0.674   3.819  12.941 -0.9593  0.1588  0.3208
19151TIP3    H178944   0.732   3.748  12.969 -1.2749 -0.3798 -0.3771
19151TIP3    H278945   0.638   3.789  12.858  1.1313  2.3567 -1.4584
19152TIP3   OH278946   1.174   3.993  14.555 -0.3185  1.0639 -0.0966
19152TIP3    H178947   1.091   4.004  14.508 -0.1084  1.7460 -0.3071
19152TIP3    H278948   1.148   3.954  14.639 -0.7562  0.4406 -0.5138
19153TIP3   OH278949   4.839   0.516   2.555  0.9647 -0.5209 -0.1495
19153TIP3    H178950   4.920   0.550   2.594  1.7191 -1.6382 -0.6886
19153TIP3    H278951   4.784   0.493   2.630  1.0840  0.3790  0.2231
19154TIP3   OH278952   6.555   2.332  15.408  0.7163  0.1221  0.3974
19154TIP3    H178953   6.566   2.426  15.397 -1.2042  0.1489 -2.0307
19154TIP3    H278954   6.479   2.311  15.353  0.3132 -2.6345  1.9113
19155TIP3   OH278955   2.534   0.908  12.930  0.3844 -0.1979  0.3776
19155TIP3    H178956   2.471   0.968  12.890  2.1365  0.3675 -1.6078
19155TIP3    H278957   2.515   0.824  12.888  0.4514 -0.1883  0.3281
19156TIP3   OH278958   6.624   6.644   3.639 -0.2818 -0.1776 -0.5584
19156TIP3    H178959   6.562   6.617   3.570 -1.2813 -1.4874  0.8256
19156TIP3    H278960   6.634   6.567   3.693  2.0855  0.2413 -0.3690
19157TIP3   OH278961   4.950   2.317  16.591  0.1812 -0.4106  0.1620
19157TIP3    H178962   4.977   2.251  16.655  0.3296 -0.1813  0.3342
19157TIP3    H278963   4.885   2.271  16.537  1.0101 -1.0010 -0.3409
19158TIP3   OH278964   2.294   5.382   3.461  0.3286 -0.7188 -0.2821
19158TIP3    H178965   2.277   5.395   3.368  0.4096 -0.7178 -0.2971
19158TIP3    H278966   2.296   5.286   3.472  0.3212 -0.7184 -0.2815
19159TIP3   OH278967   0.884   1.273   1.852  0.2849 -0.1236 -0.0077
19159TIP3    H178968   0.849   1.245   1.767  0.6251 -0.0684 -0.1677
19159TIP3    H278969   0.845   1.212   1.915 -2.1704  1.5520  0.1531
19160TIP3   OH278970   4.356   5.589   4.762  0.3381 -0.1199 -0.3156
19160TIP3    H178971   4.420   5.603   4.832  1.0565  0.5809 -1.0844
19160TIP3    H278972   4.384   5.650   4.693 -1.8505  1.0575 -0.2128
19161TIP3   OH278973   5.520   0.255   0.736 -0.0541  0.4471 -0.0502
19161TIP3    H178974   5.565   0.321   0.684  1.0653  0.4283  0.8693
19161TIP3    H278975   5.563   0.172   0.712  1.1932  0.5784  1.6629
19162TIP3   OH278976   1.935   0.595  16.720 -0.3749  0.5389 -0.9859
19162TIP3    H178977   1.972   0.603  16.632  1.0021  1.8468 -0.3191
19162TIP3    H278978   1.895   0.508  16.722  0.6365  0.0179 -2.5062
19163TIP3   OH278979   2.531   3.616   1.441 -0.3365 -0.8014  0.2363
19163TIP3    H178980   2.487   3.602   1.357  1.0029 -0.6795 -0.5157
19163TIP3    H278981   2.593   3.543   1.448 -0.4689 -0.8315  1.1394
19164TIP3   OH278982   1.359   6.474   6.273 -0.3654 -0.3992  0.0079
19164TIP3    H178983   1.384   6.431   6.191 -0.9982  0.4061 -0.6145
19164TIP3    H278984   1.365   6.567   6.255 -1.5114 -0.2097  0.5590
19165TIP3   OH278985   0.026   2.692   3.405  0.9886 -0.4148 -0.3752
19165TIP3    H178986  -0.023   2.774   3.396  0.6169 -0.7101 -1.1213
19165TIP3    H278987  -0.039   2.624   3.386  1.4640 -0.8453 -0.4526
19166TIP3   OH278988   3.387   4.116   2.268  0.4059  0.0787  0.7323
19166TIP3    H178989   3.361   4.064   2.192  0.9355 -1.2022  1.3959
19166TIP3    H278990   3.475   4.148   2.246  0.0723  0.7184  0.3154
19167TIP3   OH278991   6.121   0.938   4.652 -0.3512  0.1548 -0.1888
19167TIP3    H178992   6.085   0.965   4.568 -0.7758  0.0239 -0.0538
19167TIP3    H278993   6.082   0.852   4.668 -0.7399  0.4380  0.4206
19168TIP3   OH278994   4.179   1.965  16.326 -0.2888 -0.0545 -0.6141
19168TIP3    H178995   4.181   1.870  16.320  0.4108 -0.1794  1.3303
19168TIP3    H278996   4.191   1.984  16.419 -3.0235  1.8687 -0.5762
19169TIP3   OH278997   5.814   0.770  11.892  0.7813  0.9102  0.3034
19169TIP3    H178998   5.796   0.823  11.970  1.9694  1.9756 -0.1275
19169TIP3    H278999   5.878   0.705  11.921  0.6030  0.7828  0.4136
19170TIP3   OH279000   2.129   2.813  17.214 -0.3323 -0.1421 -0.0457
19170TIP3    H179001   2.133   2.794  17.307 -0.3022  1.0078  0.1918
19170TIP3    H279002   2.196   2.756  17.175 -1.0824 -1.4129  0.4925
19171TIP3   OH279003   3.294   3.744   3.195  0.1009  0.1936  0.2104
19171TIP3    H179004   3.341   3.667   3.227 -0.9684 -0.5548  0.0091
19171TIP3    H279005   3.234   3.766   3.266  0.0665  0.5575  0.0703
19172TIP3   OH279006   4.000   2.581   4.117 -0.4344  0.2403  0.4559
19172TIP3    H179007   3.929   2.645   4.124 -1.0227 -0.0520 -2.2004
19172TIP3    H279008   4.077   2.634   4.096  0.0540  0.4951  2.7465
19173TIP3   OH279009   5.013   3.611  15.605 -0.4379  0.0303  0.0229
19173TIP3    H179010   5.012   3.573  15.517  0.3252  1.0146 -0.4273
19173TIP3    H279011   5.044   3.701  15.592 -2.0700  0.7738  1.0861
19174TIP3   OH279012   1.821   4.479   5.907 -0.1968 -0.7579 -0.0607
19174TIP3    H179013   1.817   4.383   5.911 -0.3706 -0.7322  0.4479
19174TIP3    H279014   1.731   4.507   5.924 -0.1409 -0.5037 -0.1856
19175TIP3   OH279015   5.797   1.678   1.391  0.0657 -0.1675 -0.0648
19175TIP3    H179016   5.752   1.760   1.412 -0.6507 -0.4738 -0.4087
19175TIP3    H279017   5.879   1.707   1.350 -0.0187  0.3839  0.1472
19176TIP3   OH279018   2.792   1.091   1.539 -0.7786 -0.4061  0.2496
19176TIP3    H179019   2.815   1.149   1.611  1.2046  0.4852 -1.0524
19176TIP3    H279020   2.804   1.144   1.460  1.3250 -2.6115 -0.9840
19177TIP3   OH279021   2.686   2.695   2.766 -0.1432  0.5436 -0.3164
19177TIP3    H179022   2.651   2.728   2.683 -2.4130  2.4718  1.3147
19177TIP3    H279023   2.733   2.769   2.803  0.1659 -0.0426  0.4720
19178TIP3   OH279024   2.452   5.773   1.940 -0.8135  0.6007  0.1972
19178TIP3    H179025   2.475   5.852   1.891 -1.7818 -1.0685 -3.1516
19178TIP3    H279026   2.530   5.718   1.936 -0.9950  0.3364  0.2592
19179TIP3   OH279027   2.720   1.681   0.898 -0.1732 -0.4324 -0.1982
19179TIP3    H179028   2.634   1.722   0.886  0.3135  0.5196 -0.4820
19179TIP3    H279029   2.700   1.591   0.924 -1.2924  0.5565  2.5733
19180TIP3   OH279030   5.903   2.970  13.267 -0.5131  0.1181  0.4886
19180TIP3    H179031   5.925   3.018  13.188 -0.0445  0.2480  0.6918
19180TIP3    H279032   5.885   2.881  13.237 -3.4468  0.8974 -0.1502
19181TIP3   OH279033   4.480   0.868  11.759  0.1027 -0.7243 -0.1944
19181TIP3    H179034   4.537   0.944  11.771  0.3551 -1.0121  0.4538
19181TIP3    H279035   4.395   0.905  11.737 -0.0258 -0.2167  1.1124
19182TIP3   OH279036   1.596   5.264  15.328 -0.9564  0.1222  0.3558
19182TIP3    H179037   1.612   5.176  15.292  1.5078  0.4685  0.4689
19182TIP3    H279038   1.684   5.299  15.342 -1.9055  2.8153 -0.1880
19183TIP3   OH279039   5.598   1.727   4.905 -0.5165  0.0763  0.6407
19183TIP3    H179040   5.598   1.706   4.998 -0.6253  0.4824  0.7367
19183TIP3    H279041   5.575   1.646   4.861 -0.4366 -0.1236  0.9693
19184TIP3   OH279042   4.928   0.384   2.281  0.5812  0.4767 -0.2078
19184TIP3    H179043   4.891   0.406   2.367  0.9303 -1.7495  0.5461
19184TIP3    H279044   5.001   0.326   2.301  0.0040 -0.9329 -2.0864
19185TIP3   OH279045   3.153   5.640  15.747  0.1150  0.2082 -0.0781
19185TIP3    H179046   3.245   5.651  15.722  0.0692  0.0921 -0.2984
19185TIP3    H279047   3.115   5.586  15.677  0.3139 -1.2630  0.9493
19186TIP3   OH279048   4.452   4.797  11.139  0.1966  0.5049 -0.1518
19186TIP3    H179049   4.357   4.798  11.154  0.0949 -0.1670 -0.7289
19186TIP3    H279050   4.468   4.870  11.080 -0.1751 -0.3558 -1.3190
19187TIP3   OH279051   5.494   6.354  12.340  0.1126 -0.0721 -0.2429
19187TIP3    H179052   5.509   6.447  12.358  1.4099  0.0677 -1.8808
19187TIP3    H279053   5.535   6.340  12.254 -2.0636 -1.6307 -1.0569
19188TIP3   OH279054   3.868   5.063   2.818  0.1219 -0.4772  0.5378
19188TIP3    H179055   3.865   5.037   2.910  0.3796  0.1948  0.7439
19188TIP3    H279056   3.855   5.158   2.820  0.4447 -0.4174 -0.0924
19189TIP3   OH279057   4.953   3.362   5.223  0.3240 -0.1116 -1.4246
19189TIP3    H179058   4.955   3.419   5.146 -1.8824  0.1960 -1.2972
19189TIP3    H279059   4.859   3.346   5.238  0.6571  0.5801  1.7295
19190TIP3   OH279060   3.143   0.374  13.708 -0.4197  0.1013  0.5783
19190TIP3    H179061   3.143   0.444  13.642  1.6061  0.8563  1.3195
19190TIP3    H279062   3.192   0.303  13.666 -0.4680  0.0084  0.6807
19191TIP3   OH279063   6.110   5.963  15.023 -0.0708  0.3224  0.0217
19191TIP3    H179064   6.015   5.960  15.009 -0.3233 -0.6089  1.8626
19191TIP3    H279065   6.145   5.902  14.959 -0.7628  0.1423 -0.1934
19192TIP3   OH279066   0.857   5.059  13.208  0.3814  0.4573  0.0820
19192TIP3    H179067   0.810   5.130  13.253 -0.3707  0.8222 -1.2397
19192TIP3    H279068   0.819   5.058  13.120  0.3998 -1.5802  0.0693
19193TIP3   OH279069   4.291   1.699  16.797  0.0855  0.4296 -0.2391
19193TIP3    H179070   4.378   1.666  16.820  0.6521  0.1042 -2.7202
19193TIP3    H279071   4.290   1.700  16.701 -1.9141  2.4072 -0.2447
19194TIP3   OH279072   2.684   1.917  16.679  0.0174 -0.2910  0.2986
19194TIP3    H179073   2.761   1.910  16.622  0.7653 -0.5088  1.3209
19194TIP3    H279074   2.614   1.947  16.620  0.5949 -1.1883 -0.8794
19195TIP3   OH279075   3.155   3.194   5.254  0.2576  0.2442 -0.4774
19195TIP3    H179076   3.148   3.112   5.205 -1.5179  0.9771 -1.4904
19195TIP3    H279077   3.070   3.205   5.296 -0.4047  2.7867 -2.3621
19196TIP3   OH279078   0.803   3.051   5.872  0.3737 -0.0794 -0.3265
19196TIP3    H179079   0.851   2.981   5.915  1.8210  0.9265 -0.2519
19196TIP3    H279080   0.868   3.093   5.814 -0.6627  0.6878 -0.9502
19197TIP3   OH279081   4.608   5.709  12.957 -0.3695  0.2714 -0.6264
19197TIP3    H179082   4.564   5.696  12.873  0.4794 -2.1926 -0.7264
19197TIP3    H279083   4.603   5.623  13.000 -1.4369  1.6722  2.1607
19198TIP3   OH279084   5.188   1.167   1.983 -0.7163  0.2712  0.2974
19198TIP3    H179085   5.108   1.218   1.973 -1.3404 -0.8890 -0.6981
19198TIP3    H279086   5.214   1.144   1.893  0.3529  0.0668  0.6477
19199TIP3   OH279087   2.587   1.794  16.916 -0.1235 -0.0560 -0.2979
19199TIP3    H179088   2.556   1.796  16.826 -0.4816 -0.7758 -0.1891
19199TIP3    H279089   2.579   1.703  16.943  0.1690  0.1177  0.4020
19200TIP3   OH279090   2.462   3.261  11.698 -0.0349  0.3401  0.4381
19200TIP3    H179091   2.496   3.244  11.610  1.7608 -1.3237  1.4031
19200TIP3    H279092   2.368   3.271  11.686  0.5123  3.4910 -2.1233
19201TIP3   OH279093   4.528   3.024   1.661  0.6482 -0.1827  0.1419
19201TIP3    H179094   4.563   3.037   1.573  0.9567 -0.4016  0.2320
19201TIP3    H279095   4.433   3.033   1.651  0.6095 -1.0542 -0.3687
19202TIP3   OH279096   5.810   5.211  16.002 -0.1004 -0.0552  0.2453
19202TIP3    H179097   5.824   5.263  16.081  0.0271  0.5490 -0.1654
19202TIP3    H279098   5.781   5.275  15.937 -0.5150 -0.5992 -0.1061
19203TIP3   OH279099   0.305   0.205   6.634 -0.5194 -0.5476 -0.0117
19203TIP3    H179100   0.379   0.250   6.675 -1.2061  0.4210  0.1906
19203TIP3    H279101   0.343   0.158   6.560  0.4488 -0.8277  0.6513
19204TIP3   OH279102   2.282   2.095   2.196 -0.2864  0.0202 -0.2850
19204TIP3    H179103   2.341   2.040   2.248 -1.6255 -1.5659 -0.3778
19204TIP3    H279104   2.318   2.092   2.107 -0.0489 -0.2720 -0.1804
19205TIP3   OH279105   5.382   2.537   6.203 -0.1797  0.3736  0.2137
19205TIP3    H179106   5.297   2.580   6.215 -1.4415 -1.9323 -0.0881
19205TIP3    H279107   5.446   2.600   6.234 -2.0421  2.0426  0.7347
19206TIP3   OH279108   4.469   3.692  12.673  0.0439 -0.1800  0.0730
19206TIP3    H179109   4.396   3.658  12.726  0.4464 -1.8346 -0.4010
19206TIP3    H279110   4.518   3.614  12.648  0.9909  0.7769 -1.0829
19207TIP3   OH279111   6.556   4.201  16.614 -0.5452 -0.1935 -0.5666
19207TIP3    H179112   6.616   4.274  16.600  0.1817 -1.0316 -1.9942
19207TIP3    H279113   6.593   4.153  16.688 -1.0054  0.8355  0.3539
19208TIP3   OH279114   4.742   3.752  14.985 -0.2051  0.6395 -0.3457
19208TIP3    H179115   4.765   3.748  14.892 -0.2198 -2.6373 -0.2648
19208TIP3    H279116   4.667   3.693  14.994  0.8860 -0.4444  2.0363
19209TIP3   OH279117   0.670   4.951   5.402 -0.1431  0.5770 -0.6733
19209TIP3    H179118   0.642   4.975   5.490 -0.5561 -0.3731 -0.5404
19209TIP3    H279119   0.602   4.986   5.345 -1.0547 -0.7697 -0.4322
19210TIP3   OH279120   1.519   5.661   5.972 -0.2807 -0.1893 -0.2295
19210TIP3    H179121   1.565   5.691   6.050 -1.0581 -0.8844  0.5020
19210TIP3    H279122   1.544   5.570   5.963 -0.2596 -0.1332 -0.7490
19211TIP3   OH279123   5.352   1.101  11.030 -0.5516 -0.2665  0.1431
19211TIP3    H179124   5.360   1.086  10.936  2.6434  2.4195 -0.1160
19211TIP3    H279125   5.424   1.053  11.069 -1.1488 -0.3953  1.1109
19212TIP3   OH279126   4.323   6.066  10.868  0.0710 -0.2522  0.3873
19212TIP3    H179127   4.297   6.074  10.776 -0.9799 -0.1230  0.6967
19212TIP3    H279128   4.395   6.129  10.877  0.1425 -0.2178 -0.3275
19213TIP3   OH279129   0.536   2.206  16.375  0.5426  0.3181 -0.5405
19213TIP3    H179130   0.618   2.254  16.363  2.0016 -1.5252  1.7340
19213TIP3    H279131   0.483   2.263  16.431  0.9704  0.7115 -0.5302
19214TIP3   OH279132   0.138   4.809  13.662  0.7597 -0.0241  0.0189
19214TIP3    H179133   0.226   4.844  13.677  0.4067  0.5284  0.8158
19214TIP3    H279134   0.081   4.865  13.714 -0.1720  0.1857 -1.1946
19215TIP3   OH279135   3.344   5.863  11.562 -0.9966  0.4375 -0.8155
19215TIP3    H179136   3.415   5.920  11.533  2.2852 -3.2817 -0.4675
19215TIP3    H279137   3.323   5.810  11.486 -0.8726 -0.9162  0.0745
19216TIP3   OH279138   5.185   1.210  11.268  0.1660 -0.3710 -0.0988
19216TIP3    H179139   5.233   1.127  11.276  1.2730  0.2347 -0.3005
19216TIP3    H279140   5.149   1.225  11.355  4.9463  1.8821  1.6954
19217TIP3   OH279141   5.669   6.712  12.387 -0.4834  0.0111  0.2076
19217TIP3    H179142   5.579   6.727  12.413 -0.4890  0.6909 -0.1992
19217TIP3    H279143   5.665   6.697  12.292 -0.2422 -0.5861  0.2839
19218TIP3   OH279144   2.703   5.901   5.601 -0.0361 -0.1239 -0.4164
19218TIP3    H179145   2.643   5.901   5.676 -0.7312 -0.7271 -0.9603
19218TIP3    H279146   2.787   5.875   5.638 -0.2321  0.1728  0.2591
19219TIP3   OH279147   6.487   0.556  10.866  0.3408 -0.3931 -0.4301
19219TIP3    H179148   6.498   0.651  10.871  0.4355 -0.4749  1.3165
19219TIP3    H279149   6.550   0.522  10.929 -0.2905 -1.5781 -0.4316
19220TIP3   OH279150   4.255   5.080   4.357  1.3361  0.4027 -0.2659
19220TIP3    H179151   4.159   5.078   4.349  1.4556  1.0945 -2.0820
19220TIP3    H279152   4.271   5.080   4.451 -0.3823 -3.1829  0.1153
19221TIP3   OH279153   3.694   1.957  15.784  0.3917  0.0553  0.4971
19221TIP3    H179154   3.619   1.950  15.725 -0.7687  1.7211  1.7211
19221TIP3    H279155   3.716   1.867  15.805 -0.6273 -0.4907 -0.6743
19222TIP3   OH279156   1.512   0.681  14.917 -0.2705 -0.2700 -0.3437
19222TIP3    H179157   1.444   0.748  14.919 -0.9525 -0.9616 -0.4624
19222TIP3    H279158   1.572   0.707  14.987 -1.8489 -0.9030  1.2946
19223TIP3   OH279159   0.518   0.473  16.497 -0.0335 -0.0032 -0.4332
19223TIP3    H179160   0.533   0.380  16.483  1.0619 -0.0994  1.2056
19223TIP3    H279161   0.551   0.515  16.418  1.3165 -0.8714 -0.3475
19224TIP3   OH279162   3.171   0.932  11.610 -0.2733 -0.0347  0.0885
19224TIP3    H179163   3.261   0.959  11.588 -0.0032 -0.6599  0.4214
19224TIP3    H279164   3.178   0.892  11.696 -1.1031  1.1001  0.6966
19225TIP3   OH279165   2.167   1.940  16.894  0.4992  0.1536  0.1951
19225TIP3    H179166   2.226   1.876  16.855  2.0197  1.6355  0.0357
19225TIP3    H279167   2.079   1.907  16.873  1.2531 -1.7139 -0.1315
19226TIP3   OH279168   3.883   6.120  16.529 -0.8534 -0.6664 -0.1166
19226TIP3    H179169   3.917   6.169  16.454 -2.0817  1.1458  0.5094
19226TIP3    H279170   3.800   6.083  16.499 -0.7012 -1.0589 -0.0649
19227TIP3   OH279171   0.905   3.811   0.629  0.4630 -0.2646  0.0751
19227TIP3    H179172   0.891   3.772   0.715 -1.6355  1.1014  0.3725
19227TIP3    H279173   0.925   3.902   0.647 -1.3915  0.3586 -0.9516
19228TIP3   OH279174   2.748   5.019   0.382 -0.1739 -0.1915  0.4487
19228TIP3    H179175   2.732   4.924   0.387 -0.1136 -0.1623  1.2125
19228TIP3    H279176   2.663   5.056   0.360 -0.2442 -0.4048  0.3591
19229TIP3   OH279177   1.270   6.123   5.951  0.8250 -0.0232 -0.0683
19229TIP3    H179178   1.283   6.104   6.044  0.9976  0.3782 -0.0102
19229TIP3    H279179   1.181   6.095   5.933  0.8670 -0.3084  0.1675
19230TIP3   OH279180   2.391   6.194  11.510  0.1253  0.4455 -0.5616
19230TIP3    H179181   2.409   6.239  11.593 -2.8775  1.0960 -0.1964
19230TIP3    H279182   2.405   6.101  11.530  0.0236  0.6564  0.5244
19231TIP3   OH279183   3.905   5.035  12.103 -0.1551 -0.1993 -0.1958
19231TIP3    H179184   3.949   5.108  12.146 -1.4566 -0.0493  0.9109
19231TIP3    H279185   3.974   4.993  12.051  0.9565  0.8799  0.3755
19232TIP3   OH279186   2.407   5.425   6.150  0.6944  0.0903  0.1982
19232TIP3    H179187   2.470   5.491   6.180  1.9498 -0.7863 -0.4939
19232TIP3    H279188   2.455   5.343   6.153 -0.6865 -0.7223  0.4711
19233TIP3   OH279189   1.389   5.054   5.458  0.2284 -0.1600 -0.3636
19233TIP3    H179190   1.467   5.012   5.493 -0.4627 -0.5209  0.7758
19233TIP3    H279191   1.342   4.983   5.413 -1.1796 -0.7612  1.9747
19234TIP3   OH279192   3.476   6.481   0.045 -0.0028  0.2270  0.8463
19234TIP3    H179193   3.513   6.541   0.109  1.4575 -0.3703  0.5746
19234TIP3    H279194   3.389   6.460   0.079 -1.2595  3.8640  0.0452
19235TIP3   OH279195   4.699   3.402   4.929 -0.3247  0.0606  0.0941
19235TIP3    H179196   4.683   3.482   4.879 -0.2479 -0.9088 -1.5268
19235TIP3    H279197   4.648   3.413   5.009  0.3024  2.0576  0.2509
19236TIP3   OH279198   6.762   4.448  12.634  0.1415 -0.5210 -0.7095
19236TIP3    H179199   6.778   4.543  12.641 -1.4066 -0.0967 -2.5141
19236TIP3    H279200   6.667   4.440  12.638  0.1429 -1.7888 -2.5873
19237TIP3   OH279201   4.729   6.066  15.412  0.9185  0.2421 -0.1781
19237TIP3    H179202   4.664   6.126  15.449  0.0652 -0.7721  0.0275
19237TIP3    H279203   4.683   5.982  15.409  2.9072 -0.9774  1.9506
19238TIP3   OH279204   1.130   6.615   0.847 -0.1404 -0.1439  0.3193
19238TIP3    H179205   1.040   6.645   0.838  0.5330  1.9901  0.4338
19238TIP3    H279206   1.179   6.663   0.781  0.7087 -2.3570 -0.7206
19239TIP3   OH279207   6.820   4.980   1.379  0.4407 -0.2621 -0.0192
19239TIP3    H179208   6.806   5.052   1.316 -0.6294 -0.1835  0.2954
19239TIP3    H279209   6.774   5.008   1.458 -1.5228 -2.0687 -0.4726
19240TIP3   OH279210   4.851   5.164  16.703 -0.2247 -0.4001  0.6045
19240TIP3    H179211   4.846   5.086  16.759 -0.6831 -0.3778  0.5943
19240TIP3    H279212   4.933   5.153  16.654  0.5230 -0.0929  1.7605
19241TIP3   OH279213   6.031   6.108   2.687  0.4520 -0.6336  0.1602
19241TIP3    H179214   5.964   6.131   2.751  0.7251  0.5391  0.0564
19241TIP3    H279215   6.008   6.159   2.610 -1.0606 -3.6130 -1.4334
19242TIP3   OH279216   5.722   2.641  15.368 -0.4559  0.3827 -0.2128
19242TIP3    H179217   5.653   2.650  15.302 -1.1086 -0.8794  0.2973
19242TIP3    H279218   5.741   2.548  15.371 -0.3133  0.4540  1.2752
19243TIP3   OH279219   1.345   3.562  14.268 -0.6010 -0.5384 -0.4498
19243TIP3    H179220   1.349   3.468  14.254  0.0447 -0.4384 -0.9790
19243TIP3    H279221   1.300   3.596  14.191  2.2428 -0.0682 -1.9789
19244TIP3   OH279222   1.716   4.023   5.322 -0.7117  0.1801  0.2125
19244TIP3    H179223   1.662   4.022   5.243  1.2644  0.3739 -1.1844
19244TIP3    H279224   1.733   3.931   5.341  0.1534  0.1594 -0.5787
19245TIP3   OH279225   0.467   0.720  15.136  0.0830 -0.2227  0.4458
19245TIP3    H179226   0.383   0.725  15.090  0.2018 -0.2058  0.2296
19245TIP3    H279227   0.517   0.795  15.103 -0.2616  0.4715  1.4665
19246TIP3   OH279228   1.517   3.941   1.329 -0.0036 -0.7168 -0.0363
19246TIP3    H179229   1.445   3.879   1.337 -0.4062 -0.3080 -0.4355
19246TIP3    H279230   1.547   3.955   1.418 -0.9999 -0.2130  0.2307
19247TIP3   OH279231   1.652   2.110   2.670 -0.2221  0.4004  0.8320
19247TIP3    H179232   1.734   2.151   2.642 -0.8716 -0.0889 -1.8937
19247TIP3    H279233   1.589   2.133   2.602 -1.4474 -2.2013  1.0321
19248TIP3   OH279234   4.266   0.548  13.969 -0.1689  0.3926 -0.0502
19248TIP3    H179235   4.312   0.548  13.885 -0.8570  0.6727 -0.4286
19248TIP3    H279236   4.234   0.458  13.979 -0.9081  0.5972 -0.5429
19249TIP3   OH279237   2.393   5.404  14.628  0.1528  0.1251  0.3834
19249TIP3    H179238   2.478   5.444  14.611  0.5261 -1.3123 -1.2593
19249TIP3    H279239   2.395   5.385  14.722  2.0242 -0.6904  0.2180
19250TIP3   OH279240   5.799   5.219   1.002 -0.2475 -0.0678 -0.1585
19250TIP3    H179241   5.821   5.151   1.066  1.8843  0.2638 -0.4845
19250TIP3    H279242   5.861   5.290   1.021 -0.7158  0.7186 -1.5088
19251TIP3   OH279243   6.352   4.583   1.653  0.4112  0.3356 -0.1980
19251TIP3    H179244   6.351   4.496   1.693 -0.8308  0.0167 -0.8691
19251TIP3    H279245   6.444   4.600   1.633  0.7422 -0.5423  0.5422
19252TIP3   OH279246   0.314   0.265   5.509  0.0893 -0.5641 -0.7782
19252TIP3    H179247   0.366   0.276   5.430  0.0710 -0.9805 -0.8462
19252TIP3    H279248   0.264   0.347   5.516  0.8932 -0.0766 -0.6054
19253TIP3   OH279249   6.379   3.379  12.124  0.0880  0.1251 -0.0680
19253TIP3    H179250   6.439   3.431  12.071  0.7781 -2.1619 -1.6502
19253TIP3    H279251   6.292   3.398  12.088  0.4496 -0.6393 -1.3998
19254TIP3   OH279252   3.607   4.626   3.965 -0.1371  0.6796 -0.0984
19254TIP3    H179253   3.659   4.555   3.929 -1.2597 -0.8167  1.1549
19254TIP3    H279254   3.550   4.652   3.893 -0.1313 -0.1000 -0.3939
19255TIP3   OH279255   2.644   1.630   2.572  0.1567  0.4940 -1.0463
19255TIP3    H179256   2.601   1.694   2.629 -0.3762 -0.5392 -0.2785
19255TIP3    H279257   2.640   1.669   2.485 -1.4842  0.8407 -0.8238
19256TIP3   OH279258   2.142   2.650  16.960  0.2808 -0.1007  0.0008
19256TIP3    H179259   2.218   2.604  16.996  1.5937  0.4918 -1.9566
19256TIP3    H279260   2.180   2.723  16.912 -1.5885  0.6327 -0.3643
19257TIP3   OH279261   5.054   2.305  17.218  0.6654 -0.6013 -0.5372
19257TIP3    H179262   5.142   2.340  17.201  0.0329  1.5521  0.3930
19257TIP3    H279263   5.044   2.312  17.313 -0.2468 -1.5187 -0.5575
19258TIP3   OH279264   5.755   5.726  11.845  0.6868  0.3118  0.0605
19258TIP3    H179265   5.665   5.735  11.813  0.3313 -0.6399  0.7812
19258TIP3    H279266   5.783   5.640  11.814  1.4884  0.7526 -0.4724
19259TIP3   OH279267   6.261   4.096  10.476  0.9171  0.0208 -0.4698
19259TIP3    H179268   6.231   4.183  10.505  0.4056  0.1397 -1.3167
19259TIP3    H279269   6.187   4.038  10.495  0.4377  0.1645 -1.8219
19260TIP3   OH279270   4.836   4.967   2.437 -0.1074 -0.0365  0.5733
19260TIP3    H179271   4.863   5.054   2.466  0.5557 -0.7978  2.2907
19260TIP3    H279272   4.758   4.948   2.489  0.9736 -1.3240  1.7822
19261TIP3   OH279273   2.687   6.254   3.181  0.0210 -0.1240  0.3087
19261TIP3    H179274   2.782   6.248   3.176 -0.0021  0.0101 -0.3779
19261TIP3    H279275   2.662   6.299   3.100 -0.5093  1.1835  1.1858
19262TIP3   OH279276   4.707   4.358  12.496 -0.0476 -0.1465  0.2997
19262TIP3    H179277   4.627   4.380  12.543 -0.2309 -0.4155  0.1116
19262TIP3    H279278   4.681   4.356  12.404  0.5167  1.3285  0.0921
19263TIP3   OH279279   2.117   3.489   3.741  1.1376  0.1122 -0.5954
19263TIP3    H179280   2.050   3.557   3.752  0.7666 -0.4995  1.1475
19263TIP3    H279281   2.163   3.488   3.825 -0.1304 -3.0803  0.1315
19264TIP3   OH279282   6.249   0.901   0.556  0.3799  0.1136  0.6422
19264TIP3    H179283   6.324   0.931   0.608  1.6865  2.7550 -2.5713
19264TIP3    H279284   6.285   0.830   0.502  0.2800  0.6697 -0.1507
19265TIP3   OH279285   0.265   0.387  10.887 -0.1218  0.0898 -0.0343
19265TIP3    H179286   0.329   0.422  10.949 -0.4337  0.2588  0.1908
19265TIP3    H279287   0.298   0.300  10.865  0.5215  0.4214 -0.3969
19266TIP3   OH279288   6.279   4.683  12.370 -0.7169  0.0427 -0.4816
19266TIP3    H179289   6.216   4.614  12.388 -0.0525 -0.0169  1.7374
19266TIP3    H279290   6.250   4.757  12.423  0.4241  0.3796 -0.3028
19267TIP3   OH279291   1.152   1.213  13.331 -0.2068 -0.0992 -0.5282
19267TIP3    H179292   1.197   1.257  13.403 -2.6091 -0.2175  1.0804
19267TIP3    H279293   1.193   1.249  13.252  1.8668  0.6638  0.8608
19268TIP3   OH279294   6.686   5.603  16.157  0.0268  0.0421  0.3428
19268TIP3    H179295   6.656   5.518  16.124 -2.6749  0.6480  1.1104
19268TIP3    H279296   6.705   5.654  16.078  0.8635 -0.9937 -0.1324
19269TIP3   OH279297   4.145   1.784  15.171 -0.1550  0.5785 -0.2616
19269TIP3    H179298   4.190   1.829  15.099 -0.5111  3.8195  1.4717
19269TIP3    H279299   4.198   1.802  15.248 -1.3027 -0.4575  0.7934
19270TIP3   OH279300   3.189   0.213  15.518  0.6125 -0.1584  0.8294
19270TIP3    H179301   3.152   0.155  15.585 -0.9206 -1.2039 -0.8719
19270TIP3    H279302   3.121   0.278  15.502  0.1399 -1.0727 -1.0809
19271TIP3   OH279303   2.347   6.738  12.166 -0.4353  0.3986 -0.2017
19271TIP3    H179304   2.366   6.667  12.105  0.4428  0.4350  0.0091
19271TIP3    H279305   2.344   6.817  12.112  1.9457  0.6590 -0.0225
19272TIP3   OH279306   1.546   6.571   0.677  0.2167  0.0282 -0.2011
19272TIP3    H179307   1.496   6.603   0.753 -1.2568 -1.9309 -0.2983
19272TIP3    H279308   1.517   6.626   0.604 -2.3025 -1.4324 -0.3749
19273TIP3   OH279309   5.037   5.914   4.384  0.1014  0.4253  0.2971
19273TIP3    H179310   4.996   5.974   4.321  0.4470  1.2495  0.8517
19273TIP3    H279311   5.115   5.883   4.339  1.2781  2.3435  0.9500
19274TIP3   OH279312   4.338   4.154  13.686 -0.0429 -0.6584 -0.0876
19274TIP3    H179313   4.369   4.065  13.703  0.2441 -1.0239 -2.3045
19274TIP3    H279314   4.350   4.165  13.591 -3.9093  0.2431 -0.5564
19275TIP3   OH279315   4.355   5.256  11.722  0.9156 -0.0842  0.7817
19275TIP3    H179316   4.374   5.291  11.809 -1.3060  1.4660  0.6905
19275TIP3    H279317   4.337   5.333  11.669 -1.5469 -1.2010 -0.0687
19276TIP3   OH279318   1.337   5.207   2.390 -0.2953 -0.0649  0.1861
19276TIP3    H179319   1.326   5.286   2.337 -1.3232 -0.4317 -0.1556
19276TIP3    H279320   1.432   5.197   2.398 -0.1569  1.4024  0.5358
19277TIP3   OH279321   1.022   0.605   3.764 -0.4466  0.6594 -0.5231
19277TIP3    H179322   0.936   0.647   3.759 -1.0551 -0.3562  0.9327
19277TIP3    H279323   1.083   0.669   3.728 -1.4336  2.5705  1.1251
19278TIP3   OH279324   4.972   0.515   4.333 -0.2431  0.1093  0.2638
19278TIP3    H179325   4.925   0.438   4.366  0.8722 -1.2338 -1.1934
19278TIP3    H279326   4.916   0.589   4.355 -1.4204 -1.1374  1.5580
19279TIP3   OH279327   1.527   3.519   1.792 -0.7268 -0.1934  0.2535
19279TIP3    H179328   1.435   3.536   1.771 -1.4016 -3.9759 -0.1356
19279TIP3    H279329   1.542   3.429   1.764  3.1017  0.3098  0.4114
19280TIP3   OH279330   2.535   5.544  11.618 -0.2137 -0.3676 -0.7635
19280TIP3    H179331   2.610   5.484  11.617  0.4400  0.4080  0.5555
19280TIP3    H279332   2.461   5.490  11.590  0.2842 -1.9348  0.8516
19281TIP3   OH279333   5.007   3.882   1.753 -0.1709 -0.6914  0.4777
19281TIP3    H179334   4.949   3.898   1.827  1.2568  0.6249  1.3583
19281TIP3    H279335   5.093   3.867   1.793  0.5717 -0.2035 -0.8929
19282TIP3   OH279336   3.987   6.332  15.507  0.3445  0.7458  0.1779
19282TIP3    H179337   3.993   6.427  15.520  2.0329  0.5026  1.3191
19282TIP3    H279338   3.899   6.318  15.471 -0.2222  2.6470  0.7718
19283TIP3   OH279339   0.634   6.286   1.259  0.0421  0.3975 -0.3704
19283TIP3    H179340   0.548   6.292   1.218 -0.0669 -0.1065 -0.2159
19283TIP3    H279341   0.692   6.256   1.189 -0.2102 -0.7999 -0.0678
19284TIP3   OH279342   4.307   3.851   6.592  0.2464 -0.9692  0.0819
19284TIP3    H179343   4.369   3.778   6.591  1.3204 -0.0958  1.4177
19284TIP3    H279344   4.248   3.832   6.665 -0.2216 -1.0960 -0.3234
19285TIP3   OH279345   1.715   2.291   5.044  0.0815 -0.2486 -0.4093
19285TIP3    H179346   1.734   2.331   4.959  1.0010  0.5801  0.1785
19285TIP3    H279347   1.788   2.230   5.058 -0.4453 -0.9147 -0.5398
19286TIP3   OH279348   4.898   6.297  16.730 -0.4673 -0.0094  0.0900
19286TIP3    H179349   4.842   6.221  16.748 -0.7741  0.6373  1.8485
19286TIP3    H279350   4.944   6.314  16.812 -1.5113  2.6430  0.1769
19287TIP3   OH279351   2.102   3.209  15.041  0.5037 -0.2936  0.2092
19287TIP3    H179352   2.191   3.230  15.013  0.4701 -2.0206 -1.3266
19287TIP3    H279353   2.062   3.169  14.964 -1.3360 -0.3114  1.1450
19288TIP3   OH279354   1.928   2.226   4.095 -0.0087  0.1228  0.2565
19288TIP3    H179355   1.942   2.207   4.003  0.2594  3.2195 -0.4054
19288TIP3    H279356   1.971   2.154   4.142 -0.8428 -1.8922 -2.0041
19289TIP3   OH279357   6.254   6.199   5.683  0.2195 -0.2817 -0.2239
19289TIP3    H179358   6.329   6.163   5.730  0.3140  2.4272  1.7698
19289TIP3    H279359   6.185   6.133   5.696  1.8932 -2.3381 -1.2950
19290TIP3   OH279360   3.763   3.769   4.653 -0.3966 -0.3460  0.0677
19290TIP3    H179361   3.825   3.802   4.717  1.9492  1.0821 -2.8162
19290TIP3    H279362   3.730   3.848   4.609 -1.9503 -1.2901 -0.5158
19291TIP3   OH279363   6.413   4.421   5.606  0.4061 -0.7619 -0.0063
19291TIP3    H179364   6.415   4.331   5.575  1.8065 -0.7714  0.0998
19291TIP3    H279365   6.435   4.474   5.530  1.2894 -0.6259  0.3340
19292TIP3   OH279366   4.631   6.002   4.642 -0.3474 -0.6104  0.4789
19292TIP3    H179367   4.677   5.932   4.596 -0.2995  0.4653 -1.1665
19292TIP3    H279368   4.695   6.073   4.648 -1.9660  1.2458 -2.6654
19293TIP3   OH279369   0.487   6.002   2.645 -0.1184 -0.1466 -0.3332
19293TIP3    H179370   0.513   6.092   2.626 -1.4107 -0.1462 -2.2810
19293TIP3    H279371   0.538   5.978   2.722  2.1289  1.4093 -1.2659
19294TIP3   OH279372   2.693   5.722   1.552  0.0873 -0.0385  0.2567
19294TIP3    H179373   2.609   5.752   1.586 -0.7656 -2.8262  0.7175
19294TIP3    H279374   2.717   5.789   1.488 -2.7369  0.5779 -0.2544
19295TIP3   OH279375   0.987   2.923   0.880 -0.2731 -0.0778  0.9290
19295TIP3    H179376   1.079   2.898   0.870 -0.0667  0.8066  0.5395
19295TIP3    H279377   0.989   3.018   0.889 -1.1405 -0.0704  1.1058
19296TIP3   OH279378   5.761   2.154  15.675 -0.0372 -0.1247 -0.1289
19296TIP3    H179379   5.832   2.100  15.710  0.6724  0.7572 -0.1929
19296TIP3    H279380   5.797   2.243  15.675 -0.1299 -0.0585 -2.7903
19297TIP3   OH279381   0.481   5.056  17.284 -0.1086  0.2919  0.4567
19297TIP3    H179382   0.427   5.019  17.354 -1.5133  0.1696 -0.6746
19297TIP3    H279383   0.479   4.990  17.215 -3.7406  2.9424 -2.1394
19298TIP3   OH279384   5.800   4.459  10.917  0.3347  0.3705  0.1830
19298TIP3    H179385   5.858   4.460  10.993 -0.9484  1.5752  1.1599
19298TIP3    H279386   5.743   4.384  10.933 -0.2290  0.8895  0.6540
19299TIP3   OH279387   4.370   5.669  13.351  0.2578  0.1561  0.1229
19299TIP3    H179388   4.300   5.604  13.343  1.1387 -0.6624 -1.2163
19299TIP3    H279389   4.335   5.746  13.306 -0.7528  0.6017  1.6301
19300TIP3   OH279390   3.530   2.155   4.698 -0.5660  0.1836 -0.3296
19300TIP3    H179391   3.487   2.107   4.768 -0.2181  1.4076  0.7438
19300TIP3    H279392   3.617   2.176   4.731 -0.7768  1.7055 -0.6851
19301TIP3   OH279393   3.905   2.423  11.473 -0.4932  0.4785  0.0696
19301TIP3    H179394   3.949   2.343  11.503 -0.0823  0.2937 -1.0145
19301TIP3    H279395   3.827   2.429  11.528 -0.5905 -0.7240  0.0820
19302TIP3   OH279396   4.640   2.168   4.121  0.0951 -0.2402 -0.2337
19302TIP3    H179397   4.732   2.142   4.109  0.8190  1.6596  0.8766
19302TIP3    H279398   4.644   2.241   4.183 -2.2756 -0.8134  0.6686
19303TIP3   OH279399   5.819   1.655  12.967  0.8524  0.2341 -0.1694
19303TIP3    H179400   5.815   1.728  12.906  0.4761 -0.4961 -1.0416
19303TIP3    H279401   5.901   1.610  12.945  0.9745  0.2714  0.2119
19304TIP3   OH279402   3.980   1.407  11.466  0.5763 -0.0320 -0.1353
19304TIP3    H179403   4.015   1.481  11.514  0.2734 -0.8117  1.3100
19304TIP3    H279404   4.041   1.394  11.394  0.9714  1.2183 -0.0417
19305TIP3   OH279405   2.793   6.145  12.159  0.4241 -0.2329 -0.2049
19305TIP3    H179406   2.863   6.195  12.200  0.4903 -0.4363 -0.0689
19305TIP3    H279407   2.727   6.135  12.227  0.1162  0.2380 -0.4313
19306TIP3   OH279408   3.000   4.779  12.780  0.6164  0.2508  0.3094
19306TIP3    H179409   2.906   4.800  12.784  0.5689 -0.2095  2.5607
19306TIP3    H279410   3.003   4.688  12.753  0.2212 -0.8349  3.7331
19307TIP3   OH279411   3.197   4.269  12.406  0.0113  0.1787 -0.5786
19307TIP3    H179412   3.227   4.279  12.315 -0.2509  2.0088 -0.4669
19307TIP3    H279413   3.257   4.323  12.457 -1.3685  1.1121  0.0560
19308TIP3   OH279414   3.183   5.330  11.510 -0.2496 -0.7231  1.0346
19308TIP3    H179415   3.125   5.330  11.434 -0.1620  0.9842  0.9696
19308TIP3    H279416   3.133   5.374  11.579  0.1072 -1.2677  1.6460
19309TIP3   OH279417   6.368   4.718   2.267  0.0510  0.7244  0.4268
19309TIP3    H179418   6.332   4.737   2.180 -0.7821 -1.1572  0.3076
19309TIP3    H279419   6.299   4.744   2.328  0.0510  0.7160  0.4305
19310TIP3   OH279420   3.506   4.136  14.499 -0.1601  0.5328 -0.4868
19310TIP3    H179421   3.450   4.164  14.426  0.1719  2.4700 -0.0107
19310TIP3    H279422   3.566   4.072  14.460 -1.4877 -0.1774 -1.4055
19311TIP3   OH279423   1.290   2.165  13.245 -0.0514 -0.1440 -0.1620
19311TIP3    H179424   1.362   2.107  13.273  0.4734  1.7409  2.5707
19311TIP3    H279425   1.225   2.156  13.314 -0.7835  1.0964 -0.6890
19312TIP3   OH279426   2.714   1.175   0.969  0.4530 -0.2853 -0.3701
19312TIP3    H179427   2.662   1.178   1.049  0.2607 -0.5287 -0.4855
19312TIP3    H279428   2.756   1.089   0.971 -0.8795 -0.9698 -1.3712
19313TIP3   OH279429   2.694   3.778  13.450 -0.4395 -0.0092 -0.8975
19313TIP3    H179430   2.702   3.857  13.396 -1.8664  0.1449 -0.8897
19313TIP3    H279431   2.748   3.796  13.527 -1.4229  1.2890 -0.5125
19314TIP3   OH279432   0.164   4.710  16.022 -0.3452  0.3286 -0.6409
19314TIP3    H179433   0.115   4.788  16.046  0.3702  1.3996 -2.5909
19314TIP3    H279434   0.135   4.688  15.934 -1.0848 -2.0721  0.1499
19315TIP3   OH279435   5.274   0.986  11.674 -0.5006  0.1325 -0.5789
19315TIP3    H179436   5.212   0.993  11.747  0.7662 -0.8952  0.6540
19315TIP3    H279437   5.358   1.013  11.712 -0.1883  1.5643 -2.2232
19316TIP3   OH279438   3.148   5.717  13.316 -0.1154 -0.3498 -0.7209
19316TIP3    H179439   3.159   5.639  13.262 -2.2902  0.0193 -1.7513
19316TIP3    H279440   3.082   5.768  13.271  2.1325  2.6996 -0.6763
19317TIP3   OH279441   0.011   2.965  13.791  0.0097  0.0841  0.5808
19317TIP3    H179442   0.079   2.979  13.857 -0.8198 -0.8637  1.6535
19317TIP3    H279443  -0.071   2.975  13.839 -0.6932  3.1501 -1.0802
19318TIP3   OH279444   5.463   1.571  11.998  0.0080 -0.7131  0.4421
19318TIP3    H179445   5.405   1.612  11.934 -0.6788 -0.3524  1.2801
19318TIP3    H279446   5.513   1.643  12.035 -1.1986 -0.6031  1.9183
19319TIP3   OH279447   6.630   3.657   2.585  0.2769  0.5146 -1.0565
19319TIP3    H179448   6.692   3.713   2.632  0.2040 -0.6700  0.5073
19319TIP3    H279449   6.544   3.685   2.616  0.2256 -0.2236 -0.5085
19320TIP3   OH279450   0.146   0.030  12.752 -0.7261  0.0344  0.1732
19320TIP3    H179451   0.056   0.059  12.765 -0.4502  1.1616 -0.3851
19320TIP3    H279452   0.188   0.101  12.703  0.2311 -0.8667 -0.3375
19321TIP3   OH279453   5.098   0.408  15.635 -0.1689  0.3113 -0.2374
19321TIP3    H179454   5.131   0.360  15.711 -1.4132  0.2160  0.2562
19321TIP3    H279455   5.060   0.488  15.671  0.1845  0.7667 -0.8698
19322TIP3   OH279456   1.177   1.058   2.003  0.4238  0.0125 -0.2903
19322TIP3    H179457   1.211   1.013   1.926  0.1781  0.1560 -0.4859
19322TIP3    H279458   1.241   1.127   2.021  1.4540 -1.2164  0.7794
19323TIP3   OH279459   1.940   1.350  14.913 -0.2680  0.7822  0.3633
19323TIP3    H179460   1.991   1.430  14.902  1.9158 -0.6204 -0.0340
19323TIP3    H279461   1.875   1.372  14.980  2.9443  1.6785  3.3452
19324TIP3   OH279462   1.667   5.794  14.494 -0.3571 -0.0420  0.1454
19324TIP3    H179463   1.631   5.849  14.424  4.0109  0.5793 -1.7775
19324TIP3    H279464   1.729   5.851  14.540 -0.2333 -1.6179  1.9827
19325TIP3   OH279465   3.835   2.210   6.076  0.2009 -0.0843  0.4925
19325TIP3    H179466   3.913   2.215   6.131 -0.1313 -1.4389  1.1136
19325TIP3    H279467   3.817   2.116   6.070 -0.5329  0.1379 -0.8475
19326TIP3   OH279468   1.770   5.954   2.471  0.1492 -0.0129  0.0669
19326TIP3    H179469   1.781   6.027   2.410 -2.1785 -0.4942 -0.9762
19326TIP3    H279470   1.827   5.976   2.545 -0.3275  2.7523 -0.3195
19327TIP3   OH279471   4.594   3.578   5.699  0.0290 -0.2359  0.0147
19327TIP3    H179472   4.523   3.543   5.644  0.7297 -1.8614  0.0904
19327TIP3    H279473   4.562   3.569   5.788  0.1444 -0.5799  0.0253
19328TIP3   OH279474   1.272   6.173  11.713  0.0306 -0.0051 -0.7704
19328TIP3    H179475   1.207   6.143  11.776  1.3663  0.8325  1.0704
19328TIP3    H279476   1.244   6.136  11.630 -2.3741 -0.2572  0.1152
19329TIP3   OH279477   6.167   3.005   1.412 -0.0816 -0.0428  0.3576
19329TIP3    H179478   6.244   2.949   1.399  0.1367  0.3259  0.0576
19329TIP3    H279479   6.094   2.954   1.375  0.1202 -0.1197  0.0632
19330TIP3   OH279480   1.127   2.054  16.784  0.2246 -0.7950 -0.1745
19330TIP3    H179481   1.184   1.980  16.762  1.6970  0.2329  0.0948
19330TIP3    H279482   1.186   2.119  16.822 -0.8269  1.0892 -1.7082
19331TIP3   OH279483   3.090   1.259  15.326  0.2949 -0.8786 -0.2198
19331TIP3    H179484   3.136   1.174  15.327  2.1684  0.1288  1.1337
19331TIP3    H279485   3.160   1.324  15.320 -1.0189  0.6706  0.9462
19332TIP3   OH279486   0.545   5.650   4.092 -0.0521  0.5998  0.6666
19332TIP3    H179487   0.471   5.644   4.031  1.7769 -0.9633 -1.4759
19332TIP3    H279488   0.513   5.608   4.172 -1.0140 -1.3745 -0.7179
19333TIP3   OH279489   1.593   2.755  10.649 -0.6891 -0.0741 -0.4451
19333TIP3    H179490   1.596   2.771  10.743  3.4568 -0.5627 -0.4138
19333TIP3    H279491   1.571   2.841  10.611 -0.2555  0.6207  0.8424
19334TIP3   OH279492   3.270   1.858   1.424 -0.1044  0.4484  0.1892
19334TIP3    H179493   3.193   1.861   1.367 -0.6781 -0.9773  0.8766
19334TIP3    H279494   3.336   1.909   1.377 -0.3080 -1.3729 -2.1754
19335TIP3   OH279495   1.289   4.847   1.887 -0.2479 -0.2355 -0.5087
19335TIP3    H179496   1.330   4.773   1.843  3.0054 -0.2765  2.2924
19335TIP3    H279497   1.351   4.919   1.876 -2.5306  1.6370 -1.6690
19336TIP3   OH279498   2.409   0.581  13.365  0.3202 -0.0826 -0.3887
19336TIP3    H179499   2.375   0.558  13.278 -1.4551 -0.7463  0.4488
19336TIP3    H279500   2.394   0.503  13.418  2.0886  0.0658  0.3331
19337TIP3   OH279501   4.675   5.455  16.473 -0.8847 -0.2205  0.2113
19337TIP3    H179502   4.623   5.419  16.544 -1.4730  1.6698  0.7821
19337TIP3    H279503   4.758   5.480  16.515 -0.2250 -1.5293 -0.3108
19338TIP3   OH279504   1.635   0.477   3.270 -0.0464 -0.4474 -0.1177
19338TIP3    H179505   1.562   0.491   3.209 -0.4473 -1.2851  0.1611
19338TIP3    H279506   1.613   0.529   3.347  0.0138 -0.1083 -0.3312
19339TIP3   OH279507   4.953   2.605   5.865  0.3967 -0.6938 -1.0296
19339TIP3    H179508   4.882   2.561   5.818  1.5553 -0.2056 -3.2790
19339TIP3    H279509   4.932   2.698   5.859 -1.1619 -0.7422  2.2922
19340TIP3   OH279510   5.300   4.591   4.848  0.0693 -0.0894 -0.1208
19340TIP3    H179511   5.357   4.538   4.791 -0.2216 -0.7852  0.2299
19340TIP3    H279512   5.217   4.595   4.801 -0.2567 -0.9011  0.3871
19341TIP3   OH279513   0.667   5.550   0.654  0.5667  0.1771 -0.2827
19341TIP3    H179514   0.655   5.567   0.560  0.2391  2.1812  0.1034
19341TIP3    H279515   0.598   5.602   0.697  1.7824  0.6388  1.1554
19342TIP3   OH279516   0.091   6.047   4.437 -0.2143 -0.1528  0.0759
19342TIP3    H179517   0.094   5.957   4.468 -1.0214 -0.5790 -1.0125
19342TIP3    H279518   0.001   6.076   4.454 -0.4057 -0.0874 -0.9559
19343TIP3   OH279519   1.521   1.526  15.214  0.4731 -0.5581 -0.0973
19343TIP3    H179520   1.535   1.587  15.288  0.7501  0.1151 -0.6962
19343TIP3    H279521   1.442   1.478  15.237  0.4353 -0.1965  0.5410
19344TIP3   OH279522   6.762   3.609   4.686 -0.1129 -0.6861 -0.0249
19344TIP3    H179523   6.683   3.653   4.656 -0.0330 -0.3105  0.2936
19344TIP3    H279524   6.740   3.516   4.687 -1.8963 -0.3441  3.8769
19345TIP3   OH279525   3.821   6.791   3.899  0.0047 -0.6788  0.0483
19345TIP3    H179526   3.817   6.696   3.912 -1.8364 -0.3200  2.3985
19345TIP3    H279527   3.756   6.826   3.960 -0.2143  2.0212 -1.6655
19346TIP3   OH279528   2.258   6.596  16.526 -0.2469 -0.0748 -0.2936
19346TIP3    H179529   2.297   6.550  16.600 -1.0058  1.2145  0.9203
19346TIP3    H279530   2.182   6.543  16.502 -0.1126 -0.3805 -0.0445
19347TIP3   OH279531   1.533   2.768  14.831  0.5360  0.1512  0.1068
19347TIP3    H179532   1.448   2.802  14.801  0.7931  0.1827 -0.5951
19347TIP3    H279533   1.534   2.786  14.925  0.0650  0.7957 -0.0055
19348TIP3   OH279534   3.274   1.406   1.664  0.5269  0.1450  0.4241
19348TIP3    H179535   3.250   1.471   1.598  1.1700 -1.0088 -0.9760
19348TIP3    H279536   3.286   1.325   1.615 -0.5511 -1.1285  2.1766
19349TIP3   OH279537   3.315   4.913   0.206 -0.0814 -0.2904  0.0518
19349TIP3    H179538   3.319   4.899   0.301  0.6252  1.4023  0.3051
19349TIP3    H279539   3.266   4.995   0.197  1.3333  0.4847 -0.9236
19350TIP3   OH279540   1.380   3.044   5.789 -0.0473 -0.0038  0.1212
19350TIP3    H179541   1.361   3.026   5.697 -1.6129 -0.5662  0.5519
19350TIP3    H279542   1.472   3.021   5.799  0.0275 -0.3152 -1.2087
19351TIP3   OH279543   2.517   1.368   3.738 -0.0920  0.1745  0.3743
19351TIP3    H179544   2.439   1.338   3.783 -0.1837 -0.7862 -0.4246
19351TIP3    H279545   2.502   1.347   3.646  1.2281 -0.2936  0.2528
19352TIP3   OH279546   3.247   6.152  14.547  0.2417 -0.2069  0.5358
19352TIP3    H179547   3.182   6.084  14.531 -0.2795  0.3447  0.2756
19352TIP3    H279548   3.312   6.140  14.478  1.0702 -1.5454  1.5458
19353TIP3   OH279549   2.914   3.425  15.945  0.4056 -0.3772  0.2864
19353TIP3    H179550   2.898   3.490  15.877 -0.7559 -0.4206  0.5093
19353TIP3    H279551   2.835   3.371  15.946  0.2112 -0.0751  2.0117
19354TIP3   OH279552   0.048   5.482   3.627 -0.0256 -0.7631  0.1663
19354TIP3    H179553   0.115   5.472   3.560  0.7083  1.9720  0.4185
19354TIP3    H279554   0.097   5.495   3.709 -0.8540 -0.3594  0.6100
19355TIP3   OH279555   5.444   3.292   3.424  0.4712 -0.2511 -0.1118
19355TIP3    H179556   5.458   3.200   3.447 -2.3177 -0.8768 -0.7619
19355TIP3    H279557   5.365   3.317   3.471  1.3328  1.9037  0.2342
19356TIP3   OH279558   1.609   2.908   2.718 -0.4756 -0.5634 -0.1541
19356TIP3    H179559   1.658   2.825   2.719  1.0076  0.2849 -0.3267
19356TIP3    H279560   1.531   2.890   2.666 -0.4507 -2.0143  0.2922
19357TIP3   OH279561   3.077   5.971  15.653  0.5631 -0.4114  0.4037
19357TIP3    H179562   2.988   5.964  15.619  1.1341  2.4212 -1.8180
19357TIP3    H279563   3.067   6.010  15.740 -0.3422  0.3123 -0.0241
19358TIP3   OH279564   5.285   5.572  16.814 -0.0976 -0.4831  0.1382
19358TIP3    H179565   5.269   5.585  16.720  0.1492  2.5681  0.4677
19358TIP3    H279566   5.210   5.522  16.845 -0.7708 -0.4798 -1.4457
19359TIP3   OH279567   3.101   1.656  15.304 -0.1548  0.0627  0.2329
19359TIP3    H179568   3.126   1.724  15.241 -2.8257 -0.0327 -0.9781
19359TIP3    H279569   3.111   1.574  15.255  0.5046 -0.2243  0.8449
19360TIP3   OH279570   0.705   3.176   3.419  0.3868 -0.2426 -0.5156
19360TIP3    H179571   0.647   3.107   3.453 -0.5044  1.0822  0.6828
19360TIP3    H279572   0.647   3.231   3.366  0.6666  0.7707  0.2286
19361TIP3   OH279573   2.639   5.103   2.847 -0.5816 -0.1652  0.3769
19361TIP3    H179574   2.719   5.119   2.797  0.4210 -2.1449  1.3113
19361TIP3    H279575   2.576   5.072   2.783 -1.2101  3.0667 -0.6853
19362TIP3   OH279576   1.181   0.837   3.875 -0.6396 -0.3393  0.1872
19362TIP3    H179577   1.111   0.899   3.895 -0.6619  0.1435 -1.3498
19362TIP3    H279578   1.178   0.827   3.780  1.3056 -0.3791  0.1043
19363TIP3   OH279579   1.995   0.087   2.928  0.3034  0.1489  0.1041
19363TIP3    H179580   1.948   0.007   2.951  1.5567 -0.4876  0.5074
19363TIP3    H279581   2.022   0.074   2.837  0.7522 -0.0160  0.2585
19364TIP3   OH279582   5.883   2.745  16.013  0.0380 -0.1971  0.0254
19364TIP3    H179583   5.788   2.738  16.020  0.0396  1.5003  2.4285
19364TIP3    H279584   5.900   2.839  16.007  1.5708 -0.4915 -0.5462
19365TIP3   OH279585   3.793   6.547   2.240  0.1259  0.0779 -0.2415
19365TIP3    H179586   3.799   6.483   2.311  0.0474 -0.3248 -0.5954
19365TIP3    H279587   3.722   6.514   2.184 -0.4838  0.9234  0.0269
19366TIP3   OH279588   2.525   0.997  13.987 -0.4838 -0.3474  0.0191
19366TIP3    H179589   2.501   0.948  13.908 -2.7085  0.9733 -0.1723
19366TIP3    H279590   2.528   0.932  14.056 -2.4830 -0.9305 -0.4073
19367TIP3   OH279591   2.589   2.785   4.830 -0.7905 -0.1159  0.1588
19367TIP3    H179592   2.583   2.846   4.756 -1.8078 -1.4645 -0.8757
19367TIP3    H279593   2.509   2.800   4.880  0.8531  2.3284  2.2511
19368TIP3   OH279594   1.767   0.839   6.263  0.2086 -0.0208 -0.9665
19368TIP3    H179595   1.727   0.910   6.314 -1.1778 -1.4589  0.0058
19368TIP3    H279596   1.694   0.799   6.216  1.2392  0.2598 -2.8493
19369TIP3   OH279597   1.797   0.443   2.530 -0.5261  0.6639  0.0535
19369TIP3    H179598   1.849   0.365   2.550 -2.0141 -1.5404 -4.1611
19369TIP3    H279599   1.842   0.482   2.454 -1.7186  2.0124  0.0294
19370TIP3   OH279600   0.966   5.476  15.813  0.3402 -0.4247  0.9094
19370TIP3    H179601   1.049   5.501  15.773  0.4896  1.6012  2.3994
19370TIP3    H279602   0.905   5.469  15.739  1.2912  0.3010  0.0415
19371TIP3   OH279603   0.845   6.476  14.225 -0.7624  0.0630 -0.0653
19371TIP3    H179604   0.884   6.398  14.264  0.2890  0.9936  0.7621
19371TIP3    H279605   0.853   6.543  14.292 -0.6768  1.1722 -1.1674
19372TIP3   OH279606   5.831   3.970   2.500  0.2037 -0.0776 -0.1143
19372TIP3    H179607   5.756   3.944   2.555  0.5614  0.1560  0.4805
19372TIP3    H279608   5.894   4.006   2.561  0.7050 -0.0398 -0.6568
19373TIP3   OH279609   6.349   2.171   1.623 -0.3073  0.2481  0.1904
19373TIP3    H179610   6.402   2.152   1.545  0.3218 -0.5358  0.7924
19373TIP3    H279611   6.267   2.125   1.609  0.7616 -1.9754  1.1066
19374TIP3   OH279612   0.422   1.928  15.260  0.0928 -0.1861  0.1529
19374TIP3    H179613   0.374   2.006  15.286 -1.5122 -0.9735 -0.3625
19374TIP3    H279614   0.370   1.855  15.293 -0.1373 -1.1041 -2.0932
19375TIP3   OH279615   5.431   3.125  17.261  0.0623  0.0404 -0.0664
19375TIP3    H179616   5.344   3.089  17.243  0.1366 -1.5566  2.3698
19375TIP3    H279617   5.414   3.208  17.306 -0.1687  0.8309 -1.6063
19376TIP3   OH279618   0.303   1.572  14.481  0.7360  0.2993 -0.0293
19376TIP3    H179619   0.214   1.606  14.481 -0.7567 -3.3613  1.5162
19376TIP3    H279620   0.331   1.578  14.573  1.6117  0.2494 -0.2812
19377TIP3   OH279621   3.163   3.115   3.490  0.1247  0.4838 -0.0138
19377TIP3    H179622   3.179   3.087   3.400  0.3351  2.2512 -0.5351
19377TIP3    H279623   3.243   3.091   3.537  0.4605  0.5533 -0.5449
19378TIP3   OH279624   0.294   6.757  11.352  0.6353  0.1182  0.1916
19378TIP3    H179625   0.371   6.811  11.370 -0.3045  1.3915  0.4862
19378TIP3    H279626   0.307   6.727  11.262  1.2082  0.7814  0.0426
19379TIP3   OH279627   5.912   2.908  13.741  0.2736 -0.3387 -0.5631
19379TIP3    H179628   5.990   2.916  13.795  0.4153 -1.5805 -0.5780
19379TIP3    H279629   5.925   2.972  13.671  0.0747  1.2848  0.8572
19380TIP3   OH279630   3.145   0.604  14.641 -0.2333 -0.5017 -0.0963
19380TIP3    H179631   3.068   0.569  14.596 -0.0494  0.0991 -0.8906
19380TIP3    H279632   3.133   0.580  14.733 -1.7587  0.2952 -0.0849
19381TIP3   OH279633   1.850   1.370   2.705 -0.6441  0.2886  1.0766
19381TIP3    H179634   1.904   1.316   2.647 -0.9869  1.2929 -0.1894
19381TIP3    H279635   1.769   1.321   2.715 -1.5558  1.2632 -1.3061
19382TIP3   OH279636   0.029   1.826   2.205 -0.1769  0.4923  0.5414
19382TIP3    H179637   0.058   1.813   2.114  0.5287  1.3122  0.6417
19382TIP3    H279638   0.084   1.897   2.238 -1.5451  1.3081  1.1140
19383TIP3   OH279639   3.942   2.176  12.257  0.2766 -0.1216  0.6187
19383TIP3    H179640   3.995   2.142  12.185 -0.2162  0.1862  0.1018
19383TIP3    H279641   3.924   2.267  12.232  0.9051  0.2870  1.5928
19384TIP3   OH279642   0.064   2.750   2.114 -0.1813 -0.4614 -0.2355
19384TIP3    H179643  -0.016   2.799   2.094  0.4551  0.6072 -0.2130
19384TIP3    H279644   0.108   2.803   2.181  0.6493 -0.9223 -0.4152
19385TIP3   OH279645   2.443   2.086  16.292  0.8224  0.5007 -0.0660
19385TIP3    H179646   2.454   2.081  16.197  1.5742  1.8563 -0.0697
19385TIP3    H279647   2.359   2.130  16.304 -0.4859 -1.9530 -0.0790
19386TIP3   OH279648   2.055   3.135  11.563 -0.1241 -0.6419 -0.2858
19386TIP3    H179649   2.122   3.118  11.629  0.4626  0.7545 -0.4928
19386TIP3    H279650   2.098   3.116  11.479 -0.3975 -1.0058 -0.3417
19387TIP3   OH279651   6.651   6.752  16.882 -0.2730  0.3664  0.3421
19387TIP3    H179652   6.594   6.748  16.958  0.0388  1.1990  0.6301
19387TIP3    H279653   6.738   6.769  16.918 -0.0008  0.0207 -0.1514
19388TIP3   OH279654   5.618   2.811   4.200 -0.2229  1.0578  0.8078
19388TIP3    H179655   5.576   2.795   4.284  0.9786  2.4697  1.7107
19388TIP3    H279656   5.709   2.834   4.223  0.0825  1.5619 -0.8488
19389TIP3   OH279657   4.516   4.345   0.835 -0.4020 -0.2000  0.1214
19389TIP3    H179658   4.581   4.293   0.882 -0.3139  1.2827  1.6782
19389TIP3    H279659   4.432   4.315   0.870 -0.4065 -0.0461  0.2428
19390TIP3   OH279660   3.090   0.921  16.747 -0.0652  0.1941  0.6459
19390TIP3    H179661   3.106   0.827  16.740  0.5839  0.3495  0.0292
19390TIP3    H279662   3.082   0.937  16.841  2.6304 -0.0167  0.9476
19391TIP3   OH279663   4.415   4.272   5.225  0.5482  0.1941  0.1730
19391TIP3    H179664   4.326   4.244   5.246  0.8041  0.0586  1.1228
19391TIP3    H279665   4.443   4.323   5.301  2.0039 -1.4850  0.8248
19392TIP3   OH279666   2.501   4.288  15.446 -0.3187 -0.2120 -0.1004
19392TIP3    H179667   2.553   4.211  15.424 -0.4165 -0.3287  0.0782
19392TIP3    H279668   2.460   4.314  15.364  1.1535  0.7229 -0.5564
19393TIP3   OH279669   0.444   6.718  16.610 -0.5153 -0.1798 -0.0882
19393TIP3    H179670   0.528   6.675  16.596 -0.8022 -0.9375  0.4775
19393TIP3    H279671   0.406   6.726  16.523 -0.2372 -0.6181 -0.2481
19394TIP3   OH279672   2.768   5.654   4.630  0.0462  0.2506 -0.1699
19394TIP3    H179673   2.761   5.595   4.704 -1.0417  0.2158 -0.3041
19394TIP3    H279674   2.767   5.742   4.669 -0.4536  0.2305 -0.1345
19395TIP3   OH279675   0.540   4.970  15.220 -0.4868  0.2161  0.2202
19395TIP3    H179676   0.459   5.001  15.261 -1.1811 -2.5780  1.0513
19395TIP3    H279677   0.525   4.982  15.126 -1.0547  1.5769  0.4659
19396TIP3   OH279678   4.058   3.664   2.199 -0.2710  0.5715  0.1869
19396TIP3    H179679   4.070   3.726   2.128 -0.4064 -0.0863 -0.4136
19396TIP3    H279680   3.966   3.673   2.225 -0.5449 -0.0623 -0.5479
19397TIP3   OH279681   2.691   3.759  16.978  0.3904  0.2404  0.0241
19397TIP3    H179682   2.713   3.679  17.026  0.7335 -0.0235 -0.5697
19397TIP3    H279683   2.747   3.826  17.016  1.7601 -0.2923 -1.0414
19398TIP3   OH279684   2.033   4.994  13.825  0.0340  0.3822 -0.3347
19398TIP3    H179685   1.969   5.054  13.863  0.6087  1.3757 -0.8923
19398TIP3    H279686   2.096   5.051  13.780  1.1989 -0.5791  0.0371
19399TIP3   OH279687   6.435   6.142  10.842 -0.3903 -0.0957  0.1932
19399TIP3    H179688   6.393   6.068  10.799  0.3775 -0.6628  0.4051
19399TIP3    H279689   6.517   6.106  10.878 -0.5388  0.6002  1.2533
19400TIP3   OH279690   2.680   5.425   5.401  0.5062  0.3687 -0.5466
19400TIP3    H179691   2.639   5.340   5.419  2.1251  0.1839  2.6039
19400TIP3    H279692   2.610   5.489   5.413 -0.5562 -0.4285 -2.2946
19401TIP3   OH279693   4.672   1.734   2.910  0.0405  0.2729  0.3341
19401TIP3    H179694   4.691   1.679   2.834  2.0037 -0.5232  1.3459
19401TIP3    H279695   4.741   1.800   2.909 -1.5976  1.9954 -0.1762
19402TIP3   OH279696   4.679   6.016   2.615 -0.4756  0.0333  0.4144
19402TIP3    H179697   4.728   6.066   2.550 -1.0700  0.4405  0.2737
19402TIP3    H279698   4.664   5.931   2.573 -1.6760  0.6144 -0.3690
19403TIP3   OH279699   6.289   5.174   4.835  0.2636  0.3455 -0.2209
19403TIP3    H179700   6.194   5.182   4.827 -0.0021 -0.3910  1.8585
19403TIP3    H279701   6.321   5.264   4.826 -0.5482  0.4983 -1.7281
19404TIP3   OH279702   5.534   5.373  16.885  0.0474  0.3866  0.3546
19404TIP3    H179703   5.486   5.418  16.816  0.7305 -0.0391 -0.4033
19404TIP3    H279704   5.509   5.418  16.966 -2.4145 -0.4838  0.1006
19405TIP3   OH279705   6.745   0.229   1.703  0.2317 -0.4189 -0.2899
19405TIP3    H179706   6.760   0.189   1.617  0.7429 -0.0204 -0.3898
19405TIP3    H279707   6.649   0.232   1.712  0.1070  1.6990 -1.8750
19406TIP3   OH279708   0.004   5.938  16.392 -0.4277 -0.8785 -0.0982
19406TIP3    H179709  -0.017   5.931  16.298  0.1092 -2.1516 -0.1364
19406TIP3    H279710  -0.036   5.860  16.431 -1.0404 -0.1088  0.8098
19407TIP3   OH279711   2.383   5.322   2.485  0.2459 -0.1276 -0.1299
19407TIP3    H179712   2.464   5.313   2.435 -1.5783 -1.7548 -2.8818
19407TIP3    H279713   2.320   5.359   2.423 -1.4733 -0.0615  1.6113
19408TIP3   OH279714   4.370   1.696   0.218 -0.1798 -0.5429 -0.1350
19408TIP3    H179715   4.354   1.620   0.163  0.7535 -1.4432  0.8092
19408TIP3    H279716   4.293   1.752   0.206 -0.7216 -1.4905 -1.0773
19409TIP3   OH279717   0.006   1.577   2.695  0.1191 -0.2408 -0.1431
19409TIP3    H179718   0.082   1.518   2.701 -0.9789 -1.7206 -0.3684
19409TIP3    H279719   0.034   1.657   2.740  1.9752 -0.5759 -0.6592
19410TIP3   OH279720   6.522   6.793  12.831  0.0455 -0.0706  0.0342
19410TIP3    H179721   6.542   6.755  12.916  0.3108 -0.4548 -0.1998
19410TIP3    H279722   6.489   6.720  12.779 -0.5473  0.2518 -0.0519
19411TIP3   OH279723   6.210   4.947   5.496 -0.5421  0.0786  0.2039
19411TIP3    H179724   6.149   4.943   5.422 -0.2834  2.3773 -0.1698
19411TIP3    H279725   6.174   5.016   5.553  1.0177  0.5998  0.5830
19412TIP3   OH279726   4.410   3.028  16.514  0.5162 -0.0237 -0.5754
19412TIP3    H179727   4.402   3.032  16.419 -0.6686 -1.4334 -0.5593
19412TIP3    H279728   4.332   2.980  16.542  1.1259 -0.0881  1.0599
19413TIP3   OH279729   1.855   3.214   2.682  0.6231  0.1408 -0.0229
19413TIP3    H179730   1.844   3.120   2.698  2.2495  0.0145  0.3520
19413TIP3    H279731   1.866   3.220   2.587 -0.8759  0.1110 -0.2223
19414TIP3   OH279732   4.949   1.155   2.400  0.2858 -0.7596 -0.4777
19414TIP3    H179733   4.882   1.221   2.382  1.2130  0.5976  0.9584
19414TIP3    H279734   4.900   1.081   2.436 -0.2175  1.1796  3.0072
19415TIP3   OH279735   0.178   3.199  11.858 -0.7792 -0.3836 -0.4882
19415TIP3    H179736   0.122   3.176  11.932  2.3705  0.8659  2.3971
19415TIP3    H279737   0.254   3.242  11.897 -0.1359  2.6066 -4.6422
19416TIP3   OH279738   1.536   0.947   6.620 -0.0366  0.0184  0.8111
19416TIP3    H179739   1.595   0.982   6.552  0.1615 -1.4248  0.2230
19416TIP3    H279740   1.449   0.950   6.580 -0.0405  0.0147  0.8197
19417TIP3   OH279741   0.362   2.361   3.296  0.2480  0.1361 -0.3664
19417TIP3    H179742   0.268   2.345   3.291 -0.0813  1.5907  0.6726
19417TIP3    H279743   0.373   2.451   3.264  1.2048  0.1726  0.0459
19418TIP3   OH279744   6.048   6.263   1.351 -0.0131  0.0992  0.7316
19418TIP3    H179745   6.093   6.263   1.435 -0.8163  0.6081  1.1642
19418TIP3    H279746   5.955   6.268   1.373 -0.2417 -0.0165 -0.1771
19419TIP3   OH279747   6.706   0.384   5.419 -0.3728 -0.1384  0.0686
19419TIP3    H179748   6.798   0.382   5.444 -0.1174  0.0894 -0.8238
19419TIP3    H279749   6.699   0.459   5.359 -1.1058 -0.2486  0.0104
19420TIP3   OH279750   4.360   5.312  15.901 -0.4461  0.4500  0.2596
19420TIP3    H179751   4.304   5.330  15.976  0.3263 -0.0129  0.9595
19420TIP3    H279752   4.389   5.399  15.872 -1.3698  0.6803 -0.0024
19421TIP3   OH279753   3.902   3.382   4.727 -0.0792  0.1722  0.1246
19421TIP3    H179754   3.872   3.338   4.807  1.3245  0.5612  0.8907
19421TIP3    H279755   3.958   3.452   4.759 -0.6829  1.2623 -1.1652
19422TIP3   OH279756   5.085   5.592   1.935  0.6080 -0.6075  0.2029
19422TIP3    H179757   5.148   5.660   1.910 -0.4456  0.8567  1.3723
19422TIP3    H279758   5.067   5.544   1.855  1.7371  0.2089 -0.5482
19423TIP3   OH279759   0.481   4.820  13.812  0.6013 -0.2760  0.0876
19423TIP3    H179760   0.421   4.821  13.886 -1.5628 -0.1235 -1.6275
19423TIP3    H279761   0.539   4.745  13.829 -3.8522 -4.2084 -1.1264
19424TIP3   OH279762   0.428   1.597  15.941 -0.0842 -0.1613 -0.2172
19424TIP3    H179763   0.466   1.674  15.983  1.5980 -1.4835  0.7721
19424TIP3    H279764   0.334   1.608  15.951  0.2141  0.3294  2.5715
19425TIP3   OH279765   1.897   3.668  12.141  0.2204 -0.1730 -0.1403
19425TIP3    H179766   1.979   3.699  12.179  1.8193 -1.8642 -2.0978
19425TIP3    H279767   1.920   3.586  12.097 -3.0733 -2.1032  1.5545
19426TIP3   OH279768   0.669   3.945   4.638  0.4101 -0.2694 -0.3994
19426TIP3    H179769   0.721   3.972   4.562  1.1488  2.0858  0.8890
19426TIP3    H279770   0.722   3.971   4.713 -2.0709  1.0951  0.9275
19427TIP3   OH279771   3.851   2.409   0.431  0.2118 -0.2378  0.5077
19427TIP3    H179772   3.769   2.377   0.467  0.1380 -2.7517 -1.7120
19427TIP3    H279773   3.913   2.404   0.505 -1.3502  0.7084  1.9119
19428TIP3   OH279774   2.311   1.629  17.008  0.0286 -0.1895  0.0346
19428TIP3    H179775   2.327   1.643  16.915  3.9119 -2.2616  0.2920
19428TIP3    H279776   2.261   1.547  17.011  2.1803 -1.5282 -0.1383
19429TIP3   OH279777   5.700   0.906  11.491  0.0256  0.1591 -0.9969
19429TIP3    H179778   5.760   0.852  11.439 -1.3454 -1.8626 -0.5335
19429TIP3    H279779   5.662   0.846  11.555 -3.8153  0.9004 -2.4050
19430TIP3   OH279780   5.158   1.397   4.894  0.0169  0.0677  0.1222
19430TIP3    H179781   5.186   1.312   4.860 -1.1875 -0.1719 -0.2580
19430TIP3    H279782   5.067   1.384   4.921 -0.3343  1.3681 -0.3967
19431TIP3   OH279783   1.509   1.875  17.101 -0.1132  0.3124  0.1643
19431TIP3    H179784   1.533   1.865  17.193  0.6283  1.4787  0.1149
19431TIP3    H279785   1.453   1.953  17.100  1.7645  1.6718 -0.6852
19432TIP3   OH279786   2.669   4.415   6.221 -0.3736 -0.1710  0.5104
19432TIP3    H179787   2.726   4.399   6.146 -0.9300  0.0235  0.0375
19432TIP3    H279788   2.606   4.343   6.219  0.9735 -1.4099  2.1238
19433TIP3   OH279789   5.483   6.610   5.848  0.3168 -0.2556 -0.0445
19433TIP3    H179790   5.487   6.698   5.809  1.6809 -0.2593  0.0585
19433TIP3    H279791   5.417   6.564   5.796  0.3500  0.5018 -0.7820
19434TIP3   OH279792   0.148   2.177   2.237 -0.1690 -0.3894 -0.3869
19434TIP3    H179793   0.147   2.207   2.146  1.6327  0.9192 -0.0133
19434TIP3    H279794   0.235   2.139   2.248 -0.8339 -1.6759  0.4397
19435TIP3   OH279795   2.239   1.601   5.560 -0.1668  1.1113  0.1510
19435TIP3    H179796   2.252   1.673   5.622  2.3539  0.9190 -0.0981
19435TIP3    H279797   2.306   1.537   5.583 -0.1476  0.3810 -1.8237
19436TIP3   OH279798   3.245   2.207  13.558  0.2995  0.3932 -0.2728
19436TIP3    H179799   3.265   2.199  13.652  0.6189 -1.2296 -0.4660
19436TIP3    H279800   3.153   2.182  13.551  0.3596  0.2120 -0.4262
19437TIP3   OH279801   5.775   5.258  13.837 -0.0834  0.4056  0.2911
19437TIP3    H179802   5.685   5.278  13.864 -1.0664 -0.3585 -2.2204
19437TIP3    H279803   5.774   5.165  13.817  1.0952  0.5157 -0.3664
19438TIP3   OH279804   2.006   2.218   5.063  0.1109  0.4138  0.6341
19438TIP3    H179805   2.042   2.155   5.125 -1.1860 -0.6049  0.3834
19438TIP3    H279806   2.017   2.176   4.977 -0.8095  0.4942  0.4730
19439TIP3   OH279807   6.692   2.708  15.755  0.2241  0.0094  0.4785
19439TIP3    H179808   6.645   2.679  15.676 -0.7343  2.1885  0.2154
19439TIP3    H279809   6.784   2.712  15.728 -0.0239  0.1539 -0.3611
19440TIP3   OH279810   4.247   2.954  16.260  0.3240 -0.5536  0.4892
19440TIP3    H179811   4.207   3.031  16.221  0.1620  1.6432  4.6940
19440TIP3    H279812   4.325   2.938  16.206 -0.5838  1.4510 -1.5109
19441TIP3   OH279813   4.324   5.453   2.996  0.2199 -0.3155  0.1746
19441TIP3    H179814   4.383   5.428   2.925 -0.4369  0.5523 -0.6954
19441TIP3    H279815   4.312   5.547   2.986 -0.3511 -0.2821  1.0818
19442TIP3   OH279816   3.417   2.788  13.766 -0.2025 -0.3121  0.3776
19442TIP3    H179817   3.440   2.752  13.680  0.0329  0.3042  0.1826
19442TIP3    H279818   3.322   2.798  13.763 -0.0573  0.9355 -0.2875
19443TIP3   OH279819   3.046   5.811   4.779  0.1461  0.1295  0.1767
19443TIP3    H179820   3.046   5.844   4.690  3.3626  1.3672  0.5838
19443TIP3    H279821   3.043   5.716   4.770 -2.9705  0.3005 -1.1279
19444TIP3   OH279822   1.256   5.360  13.714  0.5811 -0.1997 -0.7130
19444TIP3    H179823   1.327   5.421  13.736 -0.2926  0.4755  0.2693
19444TIP3    H279824   1.194   5.412  13.665  0.5635 -0.6924 -1.2119
19445TIP3   OH279825   0.659   0.996  16.246 -0.2781 -0.4473 -0.4211
19445TIP3    H179826   0.629   0.995  16.155  0.7039  0.7291 -0.7746
19445TIP3    H279827   0.586   1.033  16.295 -0.9030 -1.3087 -0.7013
19446TIP3   OH279828   6.106   1.192  15.897 -0.4373 -0.2949 -0.0631
19446TIP3    H179829   6.094   1.260  15.831  0.3741 -0.8824 -0.8354
19446TIP3    H279830   6.021   1.187  15.942 -0.5020  1.1953 -0.0071
19447TIP3   OH279831   4.801   2.753  15.928 -0.1740 -0.0022 -0.3317
19447TIP3    H179832   4.877   2.806  15.950 -0.6683 -0.3336  2.3420
19447TIP3    H279833   4.736   2.815  15.895  0.4189  0.5895 -0.3902
19448TIP3   OH279834   3.178   5.153   6.294 -0.1660 -0.2371  0.1498
19448TIP3    H179835   3.087   5.125   6.307 -0.2140 -0.0361  0.2599
19448TIP3    H279836   3.175   5.248   6.309 -0.1101 -0.0894 -0.7681
19449TIP3   OH279837   2.359   1.361  12.048  0.3971 -0.2195 -0.0033
19449TIP3    H179838   2.313   1.340  12.130  1.1601  0.7339  0.6876
19449TIP3    H279839   2.378   1.455  12.055 -0.6270  0.1377 -1.8443
19450TIP3   OH279840   1.279   3.716  15.211 -0.4777  0.4653  0.0893
19450TIP3    H179841   1.215   3.665  15.163  0.9639  0.1423 -1.5777
19450TIP3    H279842   1.337   3.751  15.143  0.8438  1.1001  1.4988
19451TIP3   OH279843   4.911   1.840   5.208  0.1985  0.3293 -0.3072
19451TIP3    H179844   4.938   1.753   5.237  2.6247  0.5251 -1.8084
19451TIP3    H279845   4.944   1.899   5.275 -1.2901  0.1195  0.6202
19452TIP3   OH279846   0.266   4.544   2.235 -0.3746 -0.2211  0.2425
19452TIP3    H179847   0.352   4.511   2.211  0.1163  0.6883  0.7041
19452TIP3    H279848   0.284   4.622   2.288 -1.4370 -1.5752  2.6903
19453TIP3   OH279849   1.773   4.499  11.100  0.3231 -0.2004 -0.3589
19453TIP3    H179850   1.709   4.522  11.033  1.9635  0.1182 -1.8539
19453TIP3    H279851   1.819   4.581  11.119 -1.0241  0.0149  2.1745
19454TIP3   OH279852   0.979   1.536   1.833 -0.2863  0.8511  0.0808
19454TIP3    H179853   0.936   1.570   1.912  0.6677  2.3092 -0.0183
19454TIP3    H279854   0.963   1.441   1.836  0.5952  0.7440  2.5664
19455TIP3   OH279855   5.641   0.023   5.688 -0.5140  0.2150 -0.5371
19455TIP3    H179856   5.705  -0.035   5.730 -0.0891  0.3182 -1.0480
19455TIP3    H279857   5.597   0.066   5.761  0.6184  0.8259 -0.2045
19456TIP3   OH279858   6.599   5.045  15.538  0.3269  0.6620  0.2669
19456TIP3    H179859   6.601   5.140  15.555  0.3324  0.7322 -0.1255
19456TIP3    H279860   6.679   5.028  15.488 -0.3376  0.6716 -0.8149
19457TIP3   OH279861   0.701   4.049   3.201 -0.1106 -0.0690 -0.0225
19457TIP3    H179862   0.758   4.012   3.133  0.8651 -0.0076  0.7364
19457TIP3    H279863   0.700   3.982   3.270  0.4351  0.6444  0.6998
19458TIP3   OH279864   0.846   3.730   3.129 -0.5578  0.3439 -0.5523
19458TIP3    H179865   0.846   3.641   3.093  0.2935 -0.3244  1.0629
19458TIP3    H279866   0.933   3.740   3.167 -1.3871  1.0878  1.1649
19459TIP3   OH279867   3.742   6.062   3.489 -0.2225 -0.3630  0.5189
19459TIP3    H179868   3.825   6.109   3.477  0.1113 -1.0098  0.2453
19459TIP3    H279869   3.716   6.081   3.579  0.4341 -0.4858  0.7353
19460TIP3   OH279870   1.504   0.170  16.451 -0.0339  0.0153  0.0036
19460TIP3    H179871   1.410   0.180  16.435  0.2655  1.8431 -0.6221
19460TIP3    H279872   1.511   0.086  16.498 -1.9334 -0.2936 -0.2350
19461TIP3   OH279873   2.941   4.776   3.725 -0.1417  0.2388 -0.2410
19461TIP3    H179874   2.903   4.702   3.679  2.9174 -1.2167 -0.5930
19461TIP3    H279875   2.979   4.830   3.656  0.5076  0.4067  0.2401
19462TIP3   OH279876   6.385   6.200  11.219  0.5874  0.2402 -0.7699
19462TIP3    H179877   6.391   6.106  11.200 -1.6596  0.4384 -2.7393
19462TIP3    H279878   6.358   6.203  11.311  0.0534 -1.0819 -0.8574
19463TIP3   OH279879   0.073   4.385  15.310  0.1211 -0.4349 -0.2576
19463TIP3    H179880   0.129   4.428  15.375  0.2594 -1.3619  0.2439
19463TIP3    H279881   0.004   4.343  15.362 -0.7231  0.2319 -0.8336
19464TIP3   OH279882   4.194   3.058  15.148  0.1766  0.2549 -0.0992
19464TIP3    H179883   4.254   3.072  15.220  0.6461  1.7651 -0.7734
19464TIP3    H279884   4.154   3.144  15.132 -0.7977 -0.3191 -0.8607
19465TIP3   OH279885   6.628   3.965  12.296 -0.2099  0.4670 -0.0670
19465TIP3    H179886   6.580   3.891  12.332  1.8152 -1.0869 -0.4913
19465TIP3    H279887   6.630   4.029  12.367  0.6700 -1.1347  1.3943
19466TIP3   OH279888   1.654   6.305  11.571  0.4687  0.2181  0.7500
19466TIP3    H179889   1.644   6.371  11.639  1.1991  0.0504  1.0211
19466TIP3    H279890   1.739   6.266  11.588  0.8976  0.5474 -0.5865
19467TIP3   OH279891   1.130   1.764   5.651  0.2922 -0.3791  0.6844
19467TIP3    H179892   1.221   1.741   5.632  0.9607  2.5609  0.1310
19467TIP3    H279893   1.080   1.688   5.622  2.2316 -0.5157 -2.5747
19468TIP3   OH279894   4.073   5.521   0.616  0.1998 -0.2077  0.7047
19468TIP3    H179895   4.123   5.590   0.572  0.0364 -0.1782  0.5652
19468TIP3    H279896   4.119   5.440   0.592 -0.9246 -0.3715 -0.9950
19469TIP3   OH279897   1.284   3.488   2.921  0.1888 -0.5393 -0.0315
19469TIP3    H179898   1.225   3.562   2.932  0.4374 -0.4314  0.6054
19469TIP3    H279899   1.292   3.450   3.009  0.7157 -0.8193 -0.1947
19470TIP3   OH279900   1.946   1.998  13.085 -0.5178  0.1207  1.2979
19470TIP3    H179901   1.984   2.035  13.165  4.3700 -1.4669 -0.1314
19470TIP3    H279902   1.946   1.904  13.101 -2.1208 -0.0484  0.4161
19471TIP3   OH279903   3.503   4.858   3.339 -0.3159 -0.3335  0.2024
19471TIP3    H179904   3.481   4.896   3.254  0.7456 -0.8523 -0.3178
19471TIP3    H279905   3.423   4.866   3.390 -0.1990  2.4249  0.0457
19472TIP3   OH279906   6.746   1.079   3.764  0.1486 -0.0701  0.2954
19472TIP3    H179907   6.702   1.130   3.696  0.2253  1.5794  1.4561
19472TIP3    H279908   6.837   1.110   3.762 -0.0870  0.7298  1.8372
19473TIP3   OH279909   1.109   2.412  16.848  0.5478 -0.2297  0.1771
19473TIP3    H179910   1.116   2.377  16.759  1.2863  1.6746 -0.5362
19473TIP3    H279911   1.199   2.438  16.870 -0.1282  1.9295  0.3815
19474TIP3   OH279912   0.539   2.359   4.680  0.4212  0.6674  0.1199
19474TIP3    H179913   0.582   2.274   4.675 -0.6600  0.1308 -0.2182
19474TIP3    H279914   0.609   2.423   4.666  0.9721 -0.2113 -1.2320
19475TIP3   OH279915   6.364   3.630   0.955  0.2584 -0.0633 -0.2011
19475TIP3    H179916   6.335   3.626   1.046  1.7456 -0.4617  0.2755
19475TIP3    H279917   6.416   3.710   0.949  2.9901 -1.7104  0.2086
19476TIP3   OH279918   5.098   6.293  16.925  0.1633  0.2242  0.2164
19476TIP3    H179919   5.049   6.216  16.954  0.2964  0.3670  0.8259
19476TIP3    H279920   5.133   6.330  17.005  0.3485  0.7552 -0.1126
19477TIP3   OH279921   2.145   4.673   1.914  0.1957  0.5915 -0.1524
19477TIP3    H179922   2.205   4.742   1.941  1.4665 -0.5439 -0.0581
19477TIP3    H279923   2.132   4.688   1.820 -1.6565  2.5597  0.3738
19478TIP3   OH279924   5.359   1.427   3.231  0.0106  0.1835 -0.0580
19478TIP3    H179925   5.375   1.338   3.198 -1.6794 -0.7070  1.4664
19478TIP3    H279926   5.393   1.426   3.320 -1.2469  0.6346  0.4396
19479TIP3   OH279927   0.784   4.413   0.700 -0.3704  0.0370 -0.3054
19479TIP3    H179928   0.694   4.384   0.690 -0.3669  0.5415 -2.0223
19479TIP3    H279929   0.832   4.336   0.731 -0.8460 -1.0590 -2.2362
19480TIP3   OH279930   1.031   5.728  15.608  0.2186 -0.3698 -0.5136
19480TIP3    H179931   0.963   5.672  15.570  0.3072 -3.3628  3.4065
19480TIP3    H279932   0.990   5.814  15.616 -2.1920 -1.4681 -0.6518
19481TIP3   OH279933   4.918   2.594   3.633 -1.0133 -0.4919  0.0211
19481TIP3    H179934   4.924   2.577   3.539 -2.0001 -0.9382  0.0341
19481TIP3    H279935   5.004   2.569   3.667 -1.3537 -2.4152 -0.4599
19482TIP3   OH279936   6.216   3.630  12.300  0.0652 -0.1719  0.2678
19482TIP3    H179937   6.246   3.696  12.238 -0.3142 -0.0483  0.2116
19482TIP3    H279938   6.267   3.552  12.278  0.1806 -0.0305  0.0273
19483TIP3   OH279939   5.731   0.618  14.682 -0.0873  0.0701  0.5077
19483TIP3    H179940   5.673   0.572  14.622 -1.1448 -0.3982  1.8766
19483TIP3    H279941   5.742   0.558  14.756  2.5200 -0.0661  0.0811
19484TIP3   OH279942   5.426   3.495   0.790  0.6631 -0.2477  0.2508
19484TIP3    H179943   5.493   3.466   0.851 -0.5733  0.4756  1.9919
19484TIP3    H279944   5.470   3.562   0.736  1.5894 -0.4367  0.7648
19485TIP3   OH279945   1.915   4.332  13.160  0.1195 -0.0488  0.0478
19485TIP3    H179946   2.001   4.340  13.202  0.6798  0.2767 -1.1399
19485TIP3    H279947   1.854   4.316  13.232  0.7465  2.5771  1.2092
19486TIP3   OH279948   5.257   3.900  11.035 -0.3691 -0.1897  0.0759
19486TIP3    H179949   5.267   3.814  11.078  0.3754  0.3340  0.9662
19486TIP3    H279950   5.173   3.932  11.067 -0.1761 -0.1424  0.5365
19487TIP3   OH279951   3.374   6.295   4.307  0.1935 -0.1817  0.2679
19487TIP3    H179952   3.424   6.370   4.274  0.8476 -0.3551  0.8602
19487TIP3    H279953   3.354   6.318   4.398 -0.7577 -0.1433  0.0522
19488TIP3   OH279954   6.340   3.632  14.333 -0.1685 -0.0459  0.3668
19488TIP3    H179955   6.378   3.701  14.386 -0.5556 -0.6963  1.5098
19488TIP3    H279956   6.272   3.593  14.388 -2.0898  0.6926 -1.3873
19489TIP3   OH279957   0.974   2.009   4.334 -0.1371  0.0447  0.0042
19489TIP3    H179958   0.988   2.052   4.418 -1.5495  0.6569 -0.0558
19489TIP3    H279959   0.993   2.077   4.269 -0.1963 -0.0782 -0.1438
19490TIP3   OH279960   0.155   3.689   4.866 -0.2558 -0.4013  0.3626
19490TIP3    H179961   0.123   3.607   4.828  0.5265 -0.6371  0.1879
19490TIP3    H279962   0.132   3.756   4.801  0.3390 -0.6849 -0.1482
19491TIP3   OH279963   3.009   3.067  15.442 -0.0110 -0.0008 -0.3496
19491TIP3    H179964   2.917   3.048  15.429  0.0779 -0.0036 -0.9847
19491TIP3    H279965   3.014   3.103  15.531 -0.2018 -2.7785  0.8208
19492TIP3   OH279966   6.769   4.868  10.845  1.0531 -0.1218  0.1350
19492TIP3    H179967   6.744   4.851  10.755 -0.3229 -2.2674  0.8872
19492TIP3    H279968   6.720   4.947  10.869  0.2364 -0.4108 -0.5451
19493TIP3   OH279969   0.790   0.631   0.570  0.1984 -0.3594 -1.0547
19493TIP3    H179970   0.838   0.549   0.560  0.1483 -0.3132 -1.7000
19493TIP3    H279971   0.743   0.622   0.653  3.5899  0.7429  1.0936
19494TIP3   OH279972   0.258   3.649   2.015 -0.3038  0.1882 -0.1058
19494TIP3    H179973   0.180   3.621   1.969 -1.4168  0.8600  1.3359
19494TIP3    H279974   0.227   3.711   2.080  1.5586  1.3346 -0.2498
19495TIP3   OH279975   3.331   4.443  15.630 -0.2810  0.5875 -0.2217
19495TIP3    H179976   3.247   4.465  15.669  0.7226  1.3348  1.5834
19495TIP3    H279977   3.348   4.514  15.568 -1.2621  0.0888 -1.0860
19496TIP3   OH279978   4.389   4.396  17.240 -0.3153  0.3822  0.5072
19496TIP3    H179979   4.469   4.359  17.205 -1.4686 -0.3523 -1.4500
19496TIP3    H279980   4.397   4.388  17.335  1.1705 -1.2251  0.2550
19497TIP3   OH279981   5.100   0.950  13.354  0.3199  0.0195 -0.1250
19497TIP3    H179982   5.025   0.898  13.383 -0.8929  1.5493 -0.4187
19497TIP3    H279983   5.154   0.962  13.432 -1.6175  1.9569  0.9757
19498TIP3   OH279984   4.523   4.469  15.058 -0.1994 -0.1407 -0.0936
19498TIP3    H179985   4.565   4.414  15.124  1.0171  0.5506 -0.2705
19498TIP3    H279986   4.540   4.559  15.087  0.2595  0.1648 -1.2835
19499TIP3   OH279987   3.201   2.262   2.964  0.0500  0.0499 -0.3526
19499TIP3    H179988   3.146   2.194   3.003  0.3860 -1.5161 -2.5103
19499TIP3    H279989   3.142   2.336   2.950 -0.8646 -0.6314 -0.1382
19500TIP3   OH279990   2.997   2.719  12.803 -0.1571  0.0384  0.2663
19500TIP3    H179991   3.033   2.647  12.750  3.5177  1.0810  1.2072
19500TIP3    H279992   2.999   2.795  12.745 -1.4666 -0.0375  0.1247
19501TIP3   OH279993   2.947   4.392   2.303 -0.6330  0.2935 -0.2729
19501TIP3    H179994   2.948   4.470   2.358  0.0335 -0.5072  0.8891
19501TIP3    H279995   3.040   4.369   2.293 -0.8115 -0.2392 -0.7587
19502TIP3   OH279996   1.371   6.655  16.546  0.7062  0.1109 -0.3153
19502TIP3    H179997   1.394   6.608  16.626 -0.0925 -0.1905 -0.2624
19502TIP3    H279998   1.303   6.716  16.572 -0.5259 -0.9337 -1.0339
19503TIP3   OH279999   4.039   1.042  11.446  0.5897  0.1660 -0.1663
19503TIP3    H180000   3.965   1.038  11.386  0.4533 -0.3661  0.0414
19503TIP3    H280001   4.073   1.131  11.435 -0.5161  0.6442  0.2735
19504TIP3   OH280002   6.168   1.800  11.938 -0.3780  0.4424 -0.4032
19504TIP3    H180003   6.107   1.874  11.937 -0.5757  0.2887 -3.0536
19504TIP3    H280004   6.212   1.804  11.853  0.8193 -1.5103  0.0835
19505TIP3   OH280005   4.002   0.942  12.387 -0.4098 -0.5086 -0.8974
19505TIP3    H180006   3.930   0.885  12.416  0.9164 -1.5720  0.3792
19505TIP3    H280007   4.053   0.887  12.327  0.0960 -0.1939 -0.7555
19506TIP3   OH280008   1.064   2.952   1.172 -0.7357 -0.5915 -0.3342
19506TIP3    H180009   1.019   3.031   1.141  0.1392  0.0868  0.0911
19506TIP3    H280010   1.147   2.985   1.208 -0.5051 -1.6760  0.1296
19507TIP3   OH280011   6.341   0.776   5.466 -0.1232 -0.5853 -0.0772
19507TIP3    H180012   6.389   0.841   5.517 -4.8664  2.4619  0.8134
19507TIP3    H280013   6.352   0.694   5.514  0.5568  0.9710  2.4959
19508TIP3   OH280014   5.028   2.090   1.460 -0.2964  0.0653  0.0925
19508TIP3    H180015   4.945   2.094   1.412 -0.1116  0.5267 -0.1911
19508TIP3    H280016   5.033   1.999   1.491 -0.5354 -0.1809 -0.5662
19509TIP3   OH280017   6.481   0.274   1.726 -0.3413  0.2190 -0.0306
19509TIP3    H180018   6.445   0.344   1.671  0.0998 -1.1139 -2.0450
19509TIP3    H280019   6.408   0.212   1.737 -0.3392  0.3302  0.6681
19510TIP3   OH280020   2.794   3.066   4.533 -0.4477 -0.0494  0.1468
19510TIP3    H180021   2.826   3.117   4.459 -0.3969 -0.1112  0.1259
19510TIP3    H280022   2.870   3.058   4.591 -0.5660  0.2418  0.3386
19511TIP3   OH280023   6.810   6.056  14.573 -0.3083 -0.5439  0.2995
19511TIP3    H180024   6.837   6.096  14.656  0.1053 -0.3437  0.0744
19511TIP3    H280025   6.873   6.090  14.510 -1.8453  0.9121 -0.4789
19512TIP3   OH280026   4.536   0.294  14.736  0.0346 -0.1574  0.6110
19512TIP3    H180027   4.449   0.290  14.775 -0.2971 -1.5659 -0.2303
19512TIP3    H280028   4.530   0.238  14.658  1.5550  0.1033  0.2872
19513TIP3   OH280029   3.882   3.594  11.260 -0.3156  0.3190 -0.2360
19513TIP3    H180030   3.851   3.506  11.281 -0.3298  0.1634 -0.9046
19513TIP3    H280031   3.831   3.620  11.183  0.2940  0.5742 -0.5553
19514TIP3   OH280032   5.056   6.745  16.719 -0.2684 -0.2718 -0.4372
19514TIP3    H180033   5.053   6.840  16.713  0.5810 -0.1621  0.7457
19514TIP3    H280034   4.973   6.721  16.761  0.3183  0.0869  0.9226
19515TIP3   OH280035   6.702   1.192   0.649  0.2358 -0.6468 -0.1942
19515TIP3    H180036   6.644   1.265   0.628 -0.0887 -0.4330  1.3614
19515TIP3    H280037   6.703   1.138   0.570 -1.6836 -0.3893 -0.4076
19516TIP3   OH280038   2.323   2.038  15.561 -0.0204  0.6823  0.2841
19516TIP3    H180039   2.253   1.980  15.589  0.2366  0.3992  0.3382
19516TIP3    H280040   2.311   2.117  15.614 -0.3285  0.6572  0.2545
19517TIP3   OH280041   3.891   3.806   2.853 -0.1384 -0.0125 -0.6181
19517TIP3    H180042   3.821   3.870   2.861 -0.7808 -0.9641  2.2454
19517TIP3    H280043   3.849   3.728   2.816 -0.4541 -0.3489  0.4325
19518TIP3   OH280044   1.973   1.044   5.829  0.6661  0.3832 -0.4510
19518TIP3    H180045   2.014   0.959   5.810 -0.3553 -0.1439 -0.3471
19518TIP3    H280046   1.937   1.034   5.917 -2.9684 -0.4841 -1.9485
19519TIP3   OH280047   5.171   5.525  14.402 -0.4465  0.1044 -0.6723
19519TIP3    H180048   5.184   5.430  14.409 -0.0583  0.2445  0.7869
19519TIP3    H280049   5.076   5.536  14.403 -0.5230 -0.3446 -2.1475
19520TIP3   OH280050   3.300   6.065  15.308 -0.4579 -0.4775 -0.0350
19520TIP3    H180051   3.239   6.101  15.373 -0.0934 -0.7764  0.4784
19520TIP3    H280052   3.249   6.060  15.227 -0.4270  1.4835 -0.1954
19521TIP3   OH280053   4.495   4.948   3.157  0.2287  0.0202  0.6405
19521TIP3    H180054   4.547   5.028   3.161  0.9525 -0.4519  0.7632
19521TIP3    H280055   4.405   4.978   3.166  0.5278  0.7688  1.2176
19522TIP3   OH280056   2.868   4.546  14.772 -0.3381  0.3367  0.6067
19522TIP3    H180057   2.872   4.483  14.700 -1.1311  0.3845  0.5194
19522TIP3    H280058   2.913   4.502  14.844 -1.1553 -0.4790  0.6426
19523TIP3   OH280059   3.177   6.372  11.518  0.1902 -0.3388 -0.0031
19523TIP3    H180060   3.240   6.307  11.550  2.3207  0.9825 -1.3612
19523TIP3    H280061   3.169   6.354  11.425  1.1080  1.5588 -0.4712
19524TIP3   OH280062   2.235   0.570  14.002 -0.1747  0.2074  0.3788
19524TIP3    H180063   2.158   0.526  13.968  0.5563 -0.8399  0.0745
19524TIP3    H280064   2.271   0.618  13.928  0.1582 -0.2936  0.2122
19525TIP3   OH280065   4.600   3.550   1.795 -0.0879  0.3809  0.1355
19525TIP3    H180066   4.557   3.474   1.757 -0.5675  0.8311 -0.2408
19525TIP3    H280067   4.686   3.553   1.753 -0.6887  0.9894 -1.0924
19526TIP3   OH280068   2.818   6.497  16.929 -0.8027 -0.4717 -0.8061
19526TIP3    H180069   2.770   6.570  16.968  2.1038 -0.0549  2.1878
19526TIP3    H280070   2.908   6.528  16.922  0.4343 -3.6353  0.1779
19527TIP3   OH280071   5.968   6.758   0.124 -0.6214  0.0082  0.7525
19527TIP3    H180072   5.881   6.792   0.100 -0.7565 -1.7112 -1.2569
19527TIP3    H280073   5.954   6.664   0.136  0.9366 -0.2324  0.6944
19528TIP3   OH280074   3.771   6.497   4.697  0.6887  0.1596  0.2476
19528TIP3    H180075   3.849   6.496   4.752 -1.1682 -1.3975  2.9482
19528TIP3    H280076   3.780   6.419   4.642  1.3889  0.4429 -0.0629
19529TIP3   OH280077   6.351   1.904   3.160  0.0266 -0.0948  0.3046
19529TIP3    H180078   6.353   1.988   3.113  0.4239  0.5176  1.3867
19529TIP3    H280079   6.425   1.855   3.125  0.3311  0.3643  0.2987
19530TIP3   OH280080   1.576   2.199   0.135  0.5644  0.1150  0.0788
19530TIP3    H180081   1.626   2.278   0.156  2.8518 -1.4258  0.6474
19530TIP3    H280082   1.525   2.181   0.214 -0.1824  1.1756 -0.1568
19531TIP3   OH280083   3.705   1.238   0.879  0.0110  0.0422  0.2284
19531TIP3    H180084   3.759   1.192   0.943  0.6279  1.1988  0.5671
19531TIP3    H280085   3.630   1.181   0.865  1.2746 -1.5378 -0.1661
19532TIP3   OH280086   0.231   3.258  12.878 -0.1468  0.3609 -0.4069
19532TIP3    H180087   0.187   3.332  12.836 -1.1950 -0.2739 -0.4606
19532TIP3    H280088   0.231   3.281  12.971 -1.1990  0.0745 -0.3257
19533TIP3   OH280089   0.268   6.788   2.316  0.2556 -0.0103  0.5067
19533TIP3    H180090   0.227   6.792   2.230  2.5453  0.1578 -0.6061
19533TIP3    H280091   0.201   6.822   2.376 -2.0184 -1.8489 -0.9164
19534TIP3   OH280092   4.987   4.133  12.190 -0.3641 -0.1361 -0.0986
19534TIP3    H180093   5.022   4.083  12.116 -0.1438 -1.5022  0.9188
19534TIP3    H280094   4.902   4.092  12.207 -0.8324  0.7902 -0.1975
19535TIP3   OH280095   6.087   4.381   4.389 -0.5040 -0.0739 -0.2613
19535TIP3    H180096   6.102   4.437   4.313 -0.7099  1.0631  0.5273
19535TIP3    H280097   6.173   4.346   4.410 -0.5582 -0.9585 -1.4362
19536TIP3   OH280098   5.477   6.207   5.586  0.5323 -0.2418  0.2396
19536TIP3    H180099   5.527   6.240   5.511  3.0781 -0.0930  1.9411
19536TIP3    H280100   5.429   6.283   5.618  0.0553 -0.1215 -0.7177
19537TIP3   OH280101   1.875   2.999  12.430 -0.2382 -0.2675 -0.2390
19537TIP3    H180102   1.809   3.015  12.498  2.9234  3.5330  2.1181
19537TIP3    H280103   1.927   2.926  12.464  0.1980  0.4260  0.6096
19538TIP3   OH280104   0.859   5.714   4.012  0.0274 -0.1806 -0.3659
19538TIP3    H180105   0.785   5.762   3.974  0.9553  1.4069 -0.2072
19538TIP3    H280106   0.849   5.727   4.106  0.7440  0.3845 -0.3698
19539TIP3   OH280107   6.320   5.981  11.827  0.1505 -0.6213  0.2153
19539TIP3    H180108   6.390   5.944  11.879  0.4830 -1.4518 -0.8087
19539TIP3    H280109   6.262   5.908  11.807  0.4134 -0.4728 -1.1836
19540TIP3   OH280110   3.598   1.649   4.554  0.1928  0.2950 -0.2100
19540TIP3    H180111   3.624   1.683   4.640 -0.0267  0.7540 -0.3221
19540TIP3    H280112   3.556   1.565   4.574 -0.1427  0.5467  0.1659
19541TIP3   OH280113   0.325   5.931   6.428  0.2247  0.4250  0.1624
19541TIP3    H180114   0.357   5.975   6.349 -0.2145  1.3392  0.4808
19541TIP3    H280115   0.264   5.994   6.467 -0.3601 -0.4508  0.6692
19542TIP3   OH280116   1.462   0.701   5.815  0.8935 -0.2769 -0.7000
19542TIP3    H180117   1.483   0.652   5.735  0.9459  0.4481 -1.1319
19542TIP3    H280118   1.434   0.786   5.784 -0.9669 -0.6338 -0.0368
19543TIP3   OH280119   6.286   2.680   3.100  0.3306  0.3849  0.3319
19543TIP3    H180120   6.335   2.731   3.036 -0.2470  1.6560  0.8870
19543TIP3    H280121   6.207   2.653   3.054  2.3629 -3.3049 -1.1836
19544TIP3   OH280122   5.288   5.257   6.191 -0.2965  0.4092  0.5085
19544TIP3    H180123   5.243   5.176   6.217  2.4978 -0.7624  1.8563
19544TIP3    H280124   5.279   5.315   6.267 -0.1795  0.4588  0.4846
19545TIP3   OH280125   4.759   2.472  14.042  0.6571  0.8572 -0.5308
19545TIP3    H180126   4.683   2.463  14.099  0.8787 -0.7203 -0.4702
19545TIP3    H280127   4.829   2.502  14.099  0.8114 -0.4655 -0.0202
19546TIP3   OH280128   2.263   2.931   2.329 -0.4829  0.0514 -0.2132
19546TIP3    H180129   2.283   2.860   2.390  0.3608 -0.0375 -0.5956
19546TIP3    H280130   2.169   2.921   2.312 -1.2144  1.3828  2.7356
19547TIP3   OH280131   0.505   4.779  17.173  0.0699  0.7377 -0.0751
19547TIP3    H180132   0.593   4.765  17.208  0.5846  1.3043 -1.0989
19547TIP3    H280133   0.482   4.695  17.132  0.0527  0.5300  0.3561
19548TIP3   OH280134   5.642   5.878   4.379 -0.2610 -0.0028 -0.2044
19548TIP3    H180135   5.680   5.950   4.428 -0.6383  1.4313 -1.9612
19548TIP3    H280136   5.614   5.815   4.445  1.9980  0.4789  1.2634
19549TIP3   OH280137   3.744   6.773   4.208  0.0530 -0.4961 -0.3883
19549TIP3    H180138   3.690   6.694   4.209  0.7874 -0.9968  1.3809
19549TIP3    H280139   3.691   6.838   4.161 -1.9778 -1.0505  1.0795
19550TIP3   OH280140   3.509   2.257  15.560  0.5659 -1.1664 -0.1962
19550TIP3    H180141   3.509   2.162  15.552  0.4628 -1.1724 -0.1375
19550TIP3    H280142   3.592   2.278  15.602  0.6374 -1.2219 -0.3114
19551TIP3   OH280143   1.669   0.876   0.717 -0.5278 -0.4001 -0.0917
19551TIP3    H180144   1.697   0.965   0.735 -1.1285 -0.2837  0.2941
19551TIP3    H280145   1.688   0.827   0.797  1.3949 -1.0213 -0.9041
19552TIP3   OH280146   0.141   3.631  11.387  0.3390 -0.2472 -0.4734
19552TIP3    H180147   0.135   3.634  11.291 -1.5566  2.2207 -0.3156
19552TIP3    H280148   0.235   3.629  11.405  0.7127 -0.8958 -2.3819
19553TIP3   OH280149   5.398   2.065   3.930  0.1266 -0.0934  0.1989
19553TIP3    H180150   5.324   2.117   3.900 -1.0600 -1.6217  0.4119
19553TIP3    H280151   5.400   2.078   4.025  0.0877 -0.1061  0.2015
19554TIP3   OH280152   6.215   5.497   2.430  0.6418 -0.4393 -0.4518
19554TIP3    H180153   6.231   5.582   2.388 -2.2469  0.5615  0.3790
19554TIP3    H280154   6.247   5.509   2.520 -0.9744  0.2468  0.0530
19555TIP3   OH280155   0.648   0.412   2.765  0.0158 -0.5840  0.3876
19555TIP3    H180156   0.562   0.448   2.746  1.0763  1.4246 -0.7435
19555TIP3    H280157   0.684   0.390   2.679  0.7200 -1.2441  0.8451
19556TIP3   OH280158   4.208   4.942  14.910  0.2444  0.0244 -0.0817
19556TIP3    H180159   4.164   4.901  14.835 -1.4750 -2.3589  2.1251
19556TIP3    H280160   4.203   5.036  14.892 -3.7193 -0.2780 -1.0804
19557TIP3   OH280161   0.299   6.104   3.211 -0.1692 -0.0494  0.4274
19557TIP3    H180162   0.273   6.171   3.275 -0.1099 -0.3074  0.7217
19557TIP3    H280163   0.260   6.134   3.129  0.7489  0.9004  0.3299
19558TIP3   OH280164   6.604   4.251  15.689 -0.1751 -0.6905  0.3416
19558TIP3    H180165   6.695   4.226  15.709  0.6508  0.2779 -2.0474
19558TIP3    H280166   6.557   4.168  15.684  0.2741 -1.1436  2.8215
19559TIP3   OH280167   6.296   0.271  16.087  0.7365  0.0115 -0.3502
19559TIP3    H180168   6.211   0.289  16.047 -0.1056  1.6899  2.0312
19559TIP3    H280169   6.357   0.267  16.014 -1.1535  0.3783 -1.9782
19560TIP3   OH280170   5.908   2.351  12.707  0.2202  0.2895 -0.2604
19560TIP3    H180171   5.982   2.347  12.769 -0.0848 -0.2612  0.0708
19560TIP3    H280172   5.898   2.444  12.688  0.0816  0.4974  0.8027
19561TIP3   OH280173   2.930   2.647  16.002 -0.3051 -0.0987 -0.2832
19561TIP3    H180174   2.900   2.559  15.977 -0.9844  0.1307 -0.2856
19561TIP3    H280175   2.984   2.633  16.079  0.6218 -0.6581 -1.0239
19562TIP3   OH280176   0.906   4.015  14.485  0.9525  0.7217  0.0651
19562TIP3    H180177   0.864   4.046  14.405  0.4221 -0.6730 -0.2154
19562TIP3    H280178   0.891   4.084  14.549 -1.7706  0.2629 -0.0195
19563TIP3   OH280179   0.878   6.199  17.254 -0.1545 -0.2224  0.5446
19563TIP3    H180180   0.876   6.189  17.159 -0.0349 -0.0914  0.5266
19563TIP3    H280181   0.891   6.111  17.288  1.2251 -0.0902  0.3840
19564TIP3   OH280182   6.174   0.504   0.485  0.2926  0.7027  0.2246
19564TIP3    H180183   6.154   0.449   0.561  0.6278 -0.0042 -0.1975
19564TIP3    H280184   6.245   0.562   0.516  1.0731 -0.2146  0.1697
19565TIP3   OH280185   4.641   2.378  16.742  0.1759 -0.0671 -0.0819
19565TIP3    H180186   4.707   2.416  16.684  1.3964 -1.1610  0.5745
19565TIP3    H280187   4.651   2.283  16.731 -0.6264 -0.2581  0.7547
19566TIP3   OH280188   0.859   4.346  15.450  0.0072 -0.5142 -0.0330
19566TIP3    H180189   0.889   4.404  15.381  0.7568 -0.8568 -0.0022
19566TIP3    H280190   0.840   4.263  15.406 -1.3681 -0.1620 -0.1290
19567TIP3   OH280191   5.295   4.294  13.395 -0.3792  0.7120 -0.0285
19567TIP3    H180192   5.319   4.363  13.334 -0.3235  0.7428  0.0292
19567TIP3    H280193   5.215   4.256  13.358 -0.2144  0.5725 -0.2470
19568TIP3   OH280194   4.475   5.972  13.810  0.1523 -0.2481  0.3601
19568TIP3    H180195   4.488   6.028  13.734  0.5250  0.7438  1.1443
19568TIP3    H280196   4.435   5.893  13.775  1.0181 -0.1108 -0.9750
19569TIP3   OH280197   4.959   4.483  13.386  0.3797 -0.0654 -0.0696
19569TIP3    H180198   4.863   4.482  13.389  0.1428 -1.5702 -4.1872
19569TIP3    H280199   4.984   4.390  13.383  1.8308  0.3298 -0.9655
19570TIP3   OH280200   2.146   1.983   1.445  0.0341 -0.4200 -0.2273
19570TIP3    H180201   2.177   1.936   1.523 -1.4237 -0.5832  0.2664
19570TIP3    H280202   2.175   1.929   1.372  1.9766  0.0659  0.1630
19571TIP3   OH280203   6.570   0.125  14.015  0.3434 -0.4000  0.2546
19571TIP3    H180204   6.523   0.095  14.093  1.1611  2.3251  1.8649
19571TIP3    H280205   6.651   0.073  14.014 -0.0166 -0.9735  0.7886
19572TIP3   OH280206   1.861   1.541   3.609  0.2799  0.0903 -0.3622
19572TIP3    H180207   1.917   1.534   3.532  0.5968  1.5184 -0.2793
19572TIP3    H280208   1.919   1.575   3.678 -0.0063 -1.1470  0.4989
19573TIP3   OH280209   3.686   1.443   5.149  0.0812 -0.4306  0.5370
19573TIP3    H180210   3.713   1.523   5.194  2.9794 -0.9368 -0.2438
19573TIP3    H280211   3.688   1.375   5.216  0.7196 -0.4531  0.4975
19574TIP3   OH280212   3.132   4.452   0.946  0.1067 -0.2188 -0.1385
19574TIP3    H180213   3.109   4.457   1.039 -1.1179  0.8024 -0.4880
19574TIP3    H280214   3.055   4.415   0.904  0.4421 -0.1252 -0.8394
19575TIP3   OH280215   3.869   3.677   6.109 -0.0374  0.0105 -0.3090
19575TIP3    H180216   3.775   3.691   6.105 -0.0887  0.2464  1.3907
19575TIP3    H280217   3.900   3.737   6.177  1.1502 -0.9744  0.0584
19576TIP3   OH280218   0.789   2.745   0.887 -0.0540 -0.1784 -0.2661
19576TIP3    H180219   0.867   2.799   0.873 -0.3497  0.2838 -0.1348
19576TIP3    H280220   0.716   2.806   0.882 -0.5566 -0.9352 -2.3966
19577TIP3   OH280221   1.958   2.727  16.581 -0.7410  0.3209  0.0236
19577TIP3    H180222   1.918   2.673  16.513 -3.2564 -1.0856  2.5013
19577TIP3    H280223   2.004   2.665  16.637 -0.2848  1.2131  0.6505
19578TIP3   OH280224   1.294   1.976   5.700 -0.2455  0.3312  0.4209
19578TIP3    H180225   1.315   1.985   5.793  0.4263  0.1088  0.2938
19578TIP3    H280226   1.210   1.929   5.699 -0.3555  0.5076  0.9142
19579TIP3   OH280227   1.563   3.376  11.601 -0.5348 -0.0428 -0.4999
19579TIP3    H180228   1.548   3.297  11.549  0.8763 -0.4476 -0.3183
19579TIP3    H280229   1.481   3.389  11.649 -1.1732 -0.7456 -1.3813
19580TIP3   OH280230   2.558   2.709   0.204 -0.2443  0.3163  0.0657
19580TIP3    H180231   2.531   2.794   0.170 -0.6417  0.2175  0.1313
19580TIP3    H280232   2.503   2.695   0.281  0.2870  0.3046  0.4504
19581TIP3   OH280233   5.460   6.655   4.813 -0.6237  0.4156  0.7237
19581TIP3    H180234   5.393   6.660   4.882 -0.9085  3.1852  0.2942
19581TIP3    H280235   5.427   6.713   4.744  0.4503 -1.0712 -1.0800
19582TIP3   OH280236   1.998   6.566   4.633 -0.0782  0.2333 -0.5194
19582TIP3    H180237   1.920   6.604   4.673  0.2081  1.2334 -0.9023
19582TIP3    H280238   1.964   6.493   4.580 -0.8015  0.8710 -0.9526
19583TIP3   OH280239   5.307   5.787   5.587  0.3210  0.0684  0.2329
19583TIP3    H180240   5.257   5.712   5.553  2.3729 -1.1921 -0.1410
19583TIP3    H280241   5.384   5.747   5.627  1.7653  2.0134 -0.5329
19584TIP3   OH280242   5.135   4.825  16.583 -0.4774  0.0010  0.1454
19584TIP3    H180243   5.171   4.768  16.516  2.4486  1.2108  0.6266
19584TIP3    H280244   5.104   4.766  16.652 -0.1882 -1.0818 -0.6485
19585TIP3   OH280245   5.212   2.322  13.662 -0.1420 -0.4758 -0.2532
19585TIP3    H180246   5.275   2.280  13.720 -0.4928 -0.3420  0.2273
19585TIP3    H280247   5.160   2.379  13.719 -3.1987 -3.3981  0.0578
19586TIP3   OH280248   3.688   0.293  13.743  0.4150 -0.2715 -0.1637
19586TIP3    H180249   3.662   0.376  13.784 -0.9346 -1.7915  2.1668
19586TIP3    H280250   3.606   0.244  13.734  0.9605 -0.7297 -3.0335
19587TIP3   OH280251   3.381   5.185   2.096  0.0969 -0.4880  0.0638
19587TIP3    H180252   3.379   5.177   2.191 -0.7009  0.8403  0.1742
19587TIP3    H280253   3.288   5.185   2.070  0.2199  1.5177 -0.4727
19588TIP3   OH280254   1.026   5.583  11.807 -0.0352 -0.1719  0.2868
19588TIP3    H180255   0.934   5.609  11.810  0.1711  0.3987  1.9125
19588TIP3    H280256   1.071   5.659  11.770 -0.0058  0.1370  0.9624
19589TIP3   OH280257   0.394   0.674   4.006  0.0319 -0.2201  0.3513
19589TIP3    H180258   0.304   0.673   3.974  0.2922  0.9135 -0.4250
19589TIP3    H280259   0.429   0.588   3.982 -1.6463 -1.7152  3.0311
19590TIP3   OH280260   4.896   3.655  12.482  0.5878 -0.3491 -0.1558
19590TIP3    H180261   4.891   3.616  12.569 -2.6942  0.1027 -0.0924
19590TIP3    H280262   4.819   3.623  12.436  1.2313  0.9774 -2.2491
19591TIP3   OH280263   1.637   5.122   1.521 -0.0161 -0.5229  0.0114
19591TIP3    H180264   1.683   5.148   1.441  0.5940 -2.7707 -0.3934
19591TIP3    H280265   1.624   5.204   1.569  1.5062  0.5638 -1.3922
19592TIP3   OH280266   3.144   6.624   0.334 -0.2275  0.2851  0.1395
19592TIP3    H180267   3.141   6.657   0.424  1.4743  1.6384 -0.2771
19592TIP3    H280268   3.116   6.698   0.280  3.5572  1.1319 -0.7916
19593TIP3   OH280269   1.691   4.430  14.164  0.3710 -0.6475  0.0286
19593TIP3    H180270   1.689   4.523  14.140  0.3999 -0.3656  1.1094
19593TIP3    H280271   1.633   4.388  14.100 -0.8962  0.3435  0.4974
19594TIP3   OH280272   3.535   4.969   0.576 -0.2432  0.4163  0.0765
19594TIP3    H180273   3.569   4.883   0.602 -1.2816 -0.6174 -1.8676
19594TIP3    H280274   3.590   5.032   0.624  0.3159 -1.3126  1.7836
19595TIP3   OH280275   2.240   6.805   4.980  0.3364 -0.6050 -0.4348
19595TIP3    H180276   2.251   6.730   4.921 -2.4004 -0.1462 -1.6099
19595TIP3    H280277   2.164   6.781   5.034  0.3232  0.7197  0.1369
19596TIP3   OH280278   4.770   2.330  16.069 -0.2853 -0.2950  0.3276
19596TIP3    H180279   4.687   2.309  16.112 -0.5099  0.6892  0.3884
19596TIP3    H280280   4.780   2.425  16.082  0.7361 -0.3740  0.1304
19597TIP3   OH280281   5.019   3.888   2.243 -0.0342  0.0523  0.3265
19597TIP3    H180282   5.078   3.932   2.305 -0.5727  1.9813 -0.4759
19597TIP3    H280283   4.934   3.887   2.288  0.1943 -1.0808  0.7432
19598TIP3   OH280284   2.517   0.369  11.705  0.3254 -0.4660  0.2629
19598TIP3    H180285   2.469   0.294  11.671 -1.2167  0.6891 -0.1351
19598TIP3    H280286   2.528   0.350  11.799  2.7666 -2.6705 -0.4071
19599TIP3   OH280287   4.809   2.880  11.679  0.1748 -0.7269 -0.6772
19599TIP3    H180288   4.855   2.957  11.711  0.2842 -1.3734  0.7772
19599TIP3    H280289   4.763   2.846  11.756 -0.9224 -1.3694 -1.5987
19600TIP3   OH280290   0.393   3.113  14.389 -0.9617  0.2909 -0.0084
19600TIP3    H180291   0.388   3.088  14.481  1.3472  1.1218  0.3635
19600TIP3    H280292   0.440   3.042  14.346  1.1772  1.5827  0.1407
19601TIP3   OH280293   2.509   3.821   0.660 -0.0124 -0.3154 -0.2497
19601TIP3    H180294   2.545   3.905   0.689  0.8650 -1.7728  3.1440
19601TIP3    H280295   2.415   3.837   0.654  0.1860  1.0300 -0.1141
19602TIP3   OH280296   6.386   2.292   2.557 -0.4739 -0.7332  0.0101
19602TIP3    H180297   6.363   2.247   2.476  0.9447  1.1082 -1.4588
19602TIP3    H280298   6.302   2.322   2.592 -0.8753  0.8287 -2.2168
19603TIP3   OH280299   5.797   4.461  13.982 -0.0654  0.5219  0.2149
19603TIP3    H180300   5.866   4.527  13.987  0.5188 -0.0457 -0.1336
19603TIP3    H280301   5.845   4.378  13.979 -0.7589  0.1500 -0.5396
19604TIP3   OH280302   2.412   1.255   0.331 -0.2711  0.3811  0.3142
19604TIP3    H180303   2.330   1.230   0.288  0.4781 -1.3965 -0.1129
19604TIP3    H280304   2.403   1.349   0.346 -2.5055  0.1635  0.5156
19605TIP3   OH280305   2.010   1.440   0.373 -0.4188 -0.0110  0.0383
19605TIP3    H180306   1.927   1.431   0.327 -0.5986  0.5528  0.2440
19605TIP3    H280307   1.988   1.433   0.466 -0.0610 -1.1120  0.0451
19606TIP3   OH280308   2.197   4.825  13.518  0.1785 -0.2315  0.0527
19606TIP3    H180309   2.222   4.893  13.455 -3.0113 -0.2259 -1.2967
19606TIP3    H280310   2.162   4.873  13.592  1.2642 -0.3382  0.6541
19607TIP3   OH280311   2.583   3.265   6.134  0.2494  0.0728 -0.4150
19607TIP3    H180312   2.671   3.302   6.142  0.2459  0.3083 -1.3725
19607TIP3    H280313   2.532   3.333   6.091 -0.9086  0.6879  1.8857
19608TIP3   OH280314   0.303   3.071   4.164  0.1562 -0.0780  0.0030
19608TIP3    H180315   0.255   3.000   4.122 -2.0465  2.6493 -2.3436
19608TIP3    H280316   0.253   3.090   4.243 -1.5257  1.3586 -1.3606
19609TIP3   OH280317   5.991   6.211   4.382 -0.3181 -0.1555  0.0801
19609TIP3    H180318   5.904   6.178   4.403 -0.8992  1.0089 -0.4464
19609TIP3    H280319   5.975   6.296   4.340  1.1131  0.4913  0.8069
19610TIP3   OH280320   3.656   2.475  13.350  0.8698 -0.0819  0.8652
19610TIP3    H180321   3.747   2.464  13.378  0.3890  0.2447  2.6020
19610TIP3    H280322   3.653   2.563  13.313  1.0696  0.2219  1.5658
19611TIP3   OH280323   3.497   3.147   2.764 -0.2696  0.0615  0.1260
19611TIP3    H180324   3.519   3.101   2.683 -1.0139 -0.8647  0.4504
19611TIP3    H280325   3.404   3.129   2.778 -0.6504  1.8664  0.1317
19612TIP3   OH280326   2.796   3.663  11.198  0.0682  0.3334 -0.2063
19612TIP3    H180327   2.715   3.640  11.154  0.5340 -0.3218 -0.7320
19612TIP3    H280328   2.769   3.694  11.285 -0.8969  2.0798 -1.0995
19613TIP3   OH280329   1.637   6.767  14.909  0.2883  0.0568 -0.2574
19613TIP3    H180330   1.677   6.850  14.934  0.8761 -0.2897 -0.0235
19613TIP3    H280331   1.611   6.726  14.992 -0.9342  0.4593 -0.4322
19614TIP3   OH280332   5.893   0.619   5.616  0.3508  0.2737  0.1761
19614TIP3    H180333   5.798   0.616   5.605  0.3948  0.0920 -0.1498
19614TIP3    H280334   5.906   0.670   5.696 -0.0114  0.4815  0.1031
19615TIP3   OH280335   3.109   1.996  14.859  0.7220  0.1605 -0.1635
19615TIP3    H180336   3.104   2.036  14.772  1.0001 -0.4243 -0.4558
19615TIP3    H280337   3.154   2.061  14.913 -0.9665  1.2478 -0.0234
19616TIP3   OH280338   3.394   0.191  15.342 -0.4462 -0.0094  0.5897
19616TIP3    H180339   3.321   0.190  15.404  0.5126 -0.5498  1.7257
19616TIP3    H280340   3.385   0.273  15.295 -2.9044 -0.9246 -0.6077
19617TIP3   OH280341   6.189   0.605   0.179 -0.0742 -0.2418 -0.4072
19617TIP3    H180342   6.114   0.640   0.132  0.9449 -0.5679 -2.3302
19617TIP3    H280343   6.151   0.561   0.255 -1.6522  1.4164 -0.1980
19618TIP3   OH280344   2.218   5.495   0.765  0.0257 -0.3770  0.2047
19618TIP3    H180345   2.194   5.577   0.722 -3.3062 -1.1596  0.4141
19618TIP3    H280346   2.251   5.440   0.694  0.5374  0.4951 -0.2471
19619TIP3   OH280347   3.949   1.750  14.791  0.5200 -0.4611  0.4656
19619TIP3    H180348   3.877   1.758  14.728  0.4772 -1.7912  0.3370
19619TIP3    H280349   4.009   1.820  14.768 -0.0708 -0.1968 -0.3036
19620TIP3   OH280350   2.096   3.355   0.333  0.3293  0.7748 -0.6598
19620TIP3    H180351   2.096   3.440   0.289  1.6404 -0.1635 -2.5595
19620TIP3    H280352   2.108   3.291   0.262 -3.7819 -1.2483  0.3090
19621TIP3   OH280353   1.829   5.749  15.638 -0.3362  0.0600  0.3711
19621TIP3    H180354   1.835   5.834  15.594 -1.2938 -0.2592 -0.3793
19621TIP3    H280355   1.735   5.728  15.636 -0.2301 -0.5359  1.4691
19622TIP3   OH280356   4.680   4.638   0.644 -0.3425 -0.6497  0.3202
19622TIP3    H180357   4.592   4.675   0.633 -0.2058  0.3805  2.3798
19622TIP3    H280358   4.717   4.686   0.718  2.1916 -0.6684 -0.8940
19623TIP3   OH280359   2.023   2.332  11.872 -0.6800 -0.6876  0.2564
19623TIP3    H180360   2.060   2.419  11.859 -2.5004  0.3888  1.9100
19623TIP3    H280361   2.032   2.316  11.966 -0.9388 -2.0199  0.0626
19624TIP3   OH280362   2.322   3.841  12.681 -0.1683 -0.1544  0.1191
19624TIP3    H180363   2.258   3.775  12.654  0.8661 -1.0993 -0.0588
19624TIP3    H280364   2.277   3.924  12.667 -1.2057 -0.7866 -0.4189
19625TIP3   OH280365   1.056   5.996   1.934  0.3717 -0.4178 -0.0547
19625TIP3    H180366   1.136   6.049   1.931 -0.2979  0.7115  1.3155
19625TIP3    H280367   0.999   6.037   1.870 -0.1301  0.5232  0.9743
19626TIP3   OH280368   1.920   5.043  12.807  0.4719 -0.2310  0.3590
19626TIP3    H180369   1.977   5.001  12.743 -1.9110 -1.4732 -0.9721
19626TIP3    H280370   1.913   5.133  12.778  1.6595 -0.0876  0.4857
19627TIP3   OH280371   3.441   1.671   3.084  0.4249 -0.3317  0.2602
19627TIP3    H180372   3.486   1.736   3.031 -1.9577  0.5792 -0.7235
19627TIP3    H280373   3.456   1.588   3.038 -0.2720  0.2140 -0.9963
19628TIP3   OH280374   2.837   4.691   2.161  0.0055  0.2176 -0.0517
19628TIP3    H180375   2.744   4.670   2.153  0.1731 -0.5750  0.1016
19628TIP3    H280376   2.882   4.626   2.107  0.4360  0.9793 -0.6320
19629TIP3   OH280377   5.729   0.145   6.043 -0.0927 -0.1258  0.1464
19629TIP3    H180378   5.679   0.071   6.007  0.3522 -0.0794 -0.5763
19629TIP3    H280379   5.736   0.125   6.137 -2.7179  0.5958  0.5337
19630TIP3   OH280380   2.169   5.340  14.823  0.0407  0.4326  0.1203
19630TIP3    H180381   2.163   5.298  14.738 -1.0127 -1.1872  0.9625
19630TIP3    H280382   2.191   5.269  14.884  1.9285  1.7673  1.0313
19631TIP3   OH280383   1.296   4.712   4.709 -0.3768  0.3794 -0.3073
19631TIP3    H180384   1.343   4.656   4.771 -1.1421 -1.0217 -0.9389
19631TIP3    H280385   1.361   4.773   4.675  0.7927 -0.9836 -0.5508
19632TIP3   OH280386   4.038   3.543  16.639 -0.8997 -0.4484  0.2683
19632TIP3    H180387   4.035   3.465  16.694  0.1577 -2.2753 -2.1596
19632TIP3    H280388   4.122   3.584  16.659 -1.2805 -0.1531  1.2601
19633TIP3   OH280389   6.516   0.446  15.608  0.2567  0.1298 -0.0316
19633TIP3    H180390   6.611   0.434  15.602  0.3279  0.9214 -0.4562
19633TIP3    H280391   6.502   0.486  15.694  0.3285  0.2315 -0.0674
19634TIP3   OH280392   4.829   5.721   1.365 -0.1539 -0.4267 -0.7917
19634TIP3    H180393   4.823   5.627   1.381 -2.5500  0.0613  1.5358
19634TIP3    H280394   4.907   5.748   1.415  1.1379 -1.2972 -2.2902
19635TIP3   OH280395   6.482   3.021   9.989  0.0996 -0.2008 -0.3048
19635TIP3    H180396   6.514   3.109  10.008 -0.2535  0.1674 -1.3699
19635TIP3    H280397   6.446   2.989  10.072  0.4256  0.5748  0.1321
19636TIP3   OH280398   5.596   2.798   0.964 -0.3962 -0.3212 -0.6806
19636TIP3    H180399   5.587   2.705   0.983  0.2445 -0.1135  0.6732
19636TIP3    H280400   5.523   2.839   1.010 -0.5175 -0.1188 -1.0509
19637TIP3   OH280401   6.279   2.504   0.042 -0.2659  0.2819 -0.0269
19637TIP3    H180402   6.363   2.529   0.003 -0.5741 -0.9592 -1.5748
19637TIP3    H280403   6.227   2.585   0.040  0.8861  1.0710  0.9899
19638TIP3   OH280404   1.750   4.096  10.870  0.7431  0.5161 -0.0949
19638TIP3    H180405   1.722   4.082  10.780 -0.1217  1.1400  0.0735
19638TIP3    H280406   1.827   4.152  10.864  0.8094  0.3822 -0.4546
19639TIP3   OH280407   0.271   0.075  16.717  0.2817  0.0284 -0.5533
19639TIP3    H180408   0.219   0.025  16.653 -2.0206 -1.5120  2.3933
19639TIP3    H280409   0.357   0.033  16.715 -0.7871 -2.2664 -0.1936
19640TIP3   OH280410   5.370   1.039  12.444  0.2436 -0.1717 -0.5076
19640TIP3    H180411   5.288   1.037  12.494  0.2585 -0.5445 -0.5011
19640TIP3    H280412   5.400   1.130  12.452  1.6551 -0.8366  2.4338
19641TIP3   OH280413   3.658   0.705   6.586  0.2793 -0.1871  0.1088
19641TIP3    H180414   3.606   0.692   6.665  0.2637  0.5586  0.2214
19641TIP3    H280415   3.690   0.795   6.592  0.2046 -0.0951 -0.7791
19642TIP3   OH280416   4.969   2.289  13.511  0.0327  0.1777  0.1517
19642TIP3    H180417   4.981   2.200  13.478 -1.3986  0.9499 -2.5929
19642TIP3    H280418   5.041   2.301  13.573  0.3535 -2.8069  0.4525
19643TIP3   OH280419   4.511   2.948  15.806 -0.0690 -0.3344  0.4332
19643TIP3    H180420   4.529   3.032  15.764 -2.5762  0.5555  1.0669
19643TIP3    H280421   4.511   2.885  15.734 -1.2534  0.6952 -0.4994
19644TIP3   OH280422   6.337   6.678  14.012 -0.5874  0.3973 -0.2311
19644TIP3    H180423   6.271   6.609  14.008 -0.5622  0.4465 -1.6698
19644TIP3    H280424   6.312   6.740  13.942  0.7808  0.5813 -0.5659
19645TIP3   OH280425   5.411   6.449   3.308  0.2854 -0.0933  0.4779
19645TIP3    H180426   5.439   6.362   3.279 -0.4196 -0.5751  1.2338
19645TIP3    H280427   5.375   6.434   3.395  1.7689  1.2282  1.3411
19646TIP3   OH280428   4.615   0.692  11.952  1.0017  0.0480 -0.5252
19646TIP3    H180429   4.648   0.748  12.022 -0.2263  0.8366 -0.5544
19646TIP3    H280430   4.582   0.752  11.886 -2.1166 -0.6420  0.3052
19647TIP3   OH280431   5.567   0.797  11.745 -0.3048 -0.4190 -0.2796
19647TIP3    H180432   5.490   0.782  11.800  0.8748 -2.9230  0.7723
19647TIP3    H280433   5.640   0.798  11.807  0.7579 -0.4043 -1.5233
19648TIP3   OH280434   1.619   3.385   4.417 -0.1237  0.3867  0.0110
19648TIP3    H180435   1.651   3.414   4.331  0.5105  0.0184  0.1220
19648TIP3    H280436   1.639   3.459   4.475  1.2811 -0.1631  0.2453
19649TIP3   OH280437   1.492   6.441   1.952  0.4284  0.7599  0.4636
19649TIP3    H180438   1.506   6.445   1.857  0.9753  0.4269  0.5258
19649TIP3    H280439   1.409   6.487   1.966 -0.2469 -0.2129 -0.2943
19650TIP3   OH280440   1.700   3.857   1.012  0.6565  0.0084 -0.0990
19650TIP3    H180441   1.690   3.778   0.959 -0.2215 -1.0271  1.5838
19650TIP3    H280442   1.664   3.927   0.958 -3.6412 -1.5880  0.5360
19651TIP3   OH280443   0.357   3.305  17.041  0.3407  0.4424 -0.1102
19651TIP3    H180444   0.379   3.308  17.134  2.6243 -0.7327 -0.5710
19651TIP3    H280445   0.371   3.214  17.016  0.1665  0.8351 -1.6885
19652TIP3   OH280446   4.918   4.889   4.551 -0.5099 -0.3596 -0.2475
19652TIP3    H180447   4.989   4.886   4.616 -0.0249 -1.8490 -0.8266
19652TIP3    H280448   4.918   4.980   4.520  1.3783 -0.4157 -0.4882
19653TIP3   OH280449   6.179   1.339  11.496  0.5057  0.3353  0.2860
19653TIP3    H180450   6.194   1.261  11.443  0.3154  0.0385  0.6681
19653TIP3    H280451   6.127   1.397  11.440  1.7005  0.7076 -0.4514
19654TIP3   OH280452   2.595   3.498   3.187  0.4678 -0.0930 -0.2941
19654TIP3    H180453   2.677   3.517   3.141 -0.7582  1.0082 -2.0558
19654TIP3    H280454   2.560   3.420   3.144  0.1008  0.0168 -0.2002
19655TIP3   OH280455   0.206   4.549  11.565 -0.3647  0.5636 -0.4820
19655TIP3    H180456   0.122   4.585  11.538 -0.6800  0.2327  0.0523
19655TIP3    H280457   0.236   4.499  11.489  0.3364  2.3766 -1.4318
19656TIP3   OH280458   6.181   1.880   0.357 -0.0672 -0.6330  0.5711
19656TIP3    H180459   6.095   1.916   0.381 -0.0685 -0.8389  0.8673
19656TIP3    H280460   6.236   1.957   0.342  0.2578 -0.5071  2.3568
19657TIP3   OH280461   6.065   4.045  17.017 -0.6183 -0.0147 -0.2021
19657TIP3    H180462   6.064   4.127  17.066 -1.3285  0.9287 -1.7550
19657TIP3    H280463   6.133   4.056  16.951 -0.6832 -0.6836 -0.3875
19658TIP3   OH280464   5.989   1.750   2.646 -0.3310 -0.1005 -0.5113
19658TIP3    H180465   5.940   1.753   2.728 -2.1137 -2.9719 -1.3615
19658TIP3    H280466   5.941   1.808   2.587  1.5263  2.7608  0.6767
19659TIP3   OH280467   5.767   0.802  13.939 -0.0072  0.3688 -0.2308
19659TIP3    H180468   5.726   0.748  14.006 -1.1550  0.8675 -0.5319
19659TIP3    H280469   5.739   0.891  13.958  2.4199  0.9703  0.6577
19660TIP3   OH280470   2.123   0.710  13.067  0.2173  0.4599 -0.0461
19660TIP3    H180471   2.214   0.706  13.096  0.1265  1.8973  0.4690
19660TIP3    H280472   2.102   0.620  13.042  1.8262  0.1481 -0.3277
19661TIP3   OH280473   3.552   3.269   4.154 -0.1493 -0.5427  0.5283
19661TIP3    H180474   3.646   3.268   4.133 -0.5052 -0.9743 -1.1109
19661TIP3    H280475   3.549   3.299   4.245  1.4671  1.1422  0.0660
19662TIP3   OH280476   4.795   4.581   4.570 -0.1746 -0.1264 -0.5822
19662TIP3    H180477   4.772   4.652   4.509  1.2176  0.3182 -0.6073
19662TIP3    H280478   4.737   4.595   4.645 -0.7663  0.2941 -1.1063
19663TIP3   OH280479   0.603   1.058   3.914  0.1530  0.0609  0.4135
19663TIP3    H180480   0.521   1.009   3.910 -0.2132  0.5335  1.6705
19663TIP3    H280481   0.626   1.058   4.007  0.7348  1.2964  0.2850
19664TIP3   OH280482   3.884   4.454   5.243 -0.2862 -0.0324 -0.0304
19664TIP3    H180483   3.862   4.438   5.334 -1.3525 -0.6518 -0.3899
19664TIP3    H280484   3.844   4.540   5.224 -1.4866 -0.6556 -0.3717
19665TIP3   OH280485   4.236   5.104  17.246  0.5336  0.3336  0.1674
19665TIP3    H180486   4.149   5.102  17.206  1.5151  0.5079 -2.0831
19665TIP3    H280487   4.219   5.114  17.339 -1.9381 -2.3128  0.0924
19666TIP3   OH280488   1.346   0.546   6.139  0.5926 -0.6358  0.2451
19666TIP3    H180489   1.315   0.456   6.143  1.4835 -0.9136  0.9821
19666TIP3    H280490   1.325   0.583   6.225 -1.8711  0.5664 -0.8370
19667TIP3   OH280491   0.768   4.520  16.014  0.1252 -0.2395  0.0373
19667TIP3    H180492   0.793   4.443  15.962  0.3576  0.7735 -1.3672
19667TIP3    H280493   0.832   4.587  15.990 -1.0605  0.9025  0.0507
19668TIP3   OH280494   3.693   0.322   0.875  0.5601  0.1326 -0.5634
19668TIP3    H180495   3.624   0.386   0.889  0.8155  0.2247  0.3107
19668TIP3    H280496   3.704   0.318   0.780  0.3751  1.2012 -0.6341
19669TIP3   OH280497   2.320   1.478  15.826 -0.0343  0.4699 -0.0977
19669TIP3    H180498   2.338   1.571  15.819 -1.4046  0.6729 -1.1996
19669TIP3    H280499   2.315   1.461  15.921  2.4361  1.0287  0.1770
19670TIP3   OH280500   0.165   3.719  16.404  0.1511  0.4801  0.7419
19670TIP3    H180501   0.222   3.790  16.375 -0.6314  0.1586 -1.6375
19670TIP3    H280502   0.157   3.733  16.499  2.7360  1.5414  0.8572
19671TIP3   OH280503   3.372   0.049  11.563  0.7451  0.2948 -0.8879
19671TIP3    H180504   3.277   0.049  11.578  0.6697 -1.4882 -1.2967
19671TIP3    H280505   3.385   0.110  11.490 -0.2364 -0.4988 -1.7359
19672TIP3   OH280506   0.998   3.041  16.511  0.0498  0.2602 -0.6224
19672TIP3    H180507   0.959   3.083  16.587 -0.7967 -0.4249 -0.6611
19672TIP3    H280508   0.943   3.068  16.438  1.4299  1.7007 -1.1560
19673TIP3   OH280509   6.249   5.830  16.751 -0.1700  0.1419  0.8640
19673TIP3    H180510   6.301   5.753  16.726 -1.5233  0.1553 -2.2316
19673TIP3    H280511   6.260   5.836  16.846  1.6803 -2.5990  0.9046
19674TIP3   OH280512   5.720   6.132  16.606 -0.3085  0.1329 -0.0594
19674TIP3    H180513   5.778   6.095  16.539 -1.4357 -1.3412 -0.2484
19674TIP3    H280514   5.661   6.190  16.557 -1.4365 -1.3004 -0.4596
19675TIP3   OH280515   0.313   6.179   0.884 -0.2448  0.2836 -0.0889
19675TIP3    H180516   0.278   6.099   0.924 -1.0745  1.1109  0.8578
19675TIP3    H280517   0.396   6.152   0.846  0.2284 -0.6822  1.5935
19676TIP3   OH280518   4.223   1.747  16.044 -0.0253 -0.0553  0.3619
19676TIP3    H180519   4.200   1.658  16.068 -1.4180  0.3239  0.4979
19676TIP3    H280520   4.218   1.796  16.126 -2.0799  0.7017 -0.1945
19677TIP3   OH280521   1.977   4.932  14.935 -0.5368  0.2363 -0.6182
19677TIP3    H180522   1.904   4.918  14.994 -0.0524 -0.8602 -0.2735
19677TIP3    H280523   1.937   4.936  14.848 -0.9426 -1.0357 -0.5038
19678TIP3   OH280524   4.101   2.954  17.252  0.2876 -0.1884  0.0356
19678TIP3    H180525   4.039   2.903  17.199  0.5540  0.9512 -1.3869
19678TIP3    H280526   4.045   3.015  17.302  0.1365 -0.3599  0.0749
19679TIP3   OH280527   5.387   1.627   3.765  0.1949  0.2553  0.6462
19679TIP3    H180528   5.350   1.705   3.806 -1.5883 -0.7862  1.1146
19679TIP3    H280529   5.416   1.656   3.679  0.9678  1.7562  1.3965
19680TIP3   OH280530   1.380   0.880   3.177 -0.5304  0.2402  0.1226
19680TIP3    H180531   1.387   0.971   3.148 -3.3068  0.9363  1.4633
19680TIP3    H280532   1.335   0.835   3.106  0.6711 -0.0820 -0.4560
19681TIP3   OH280533   1.264   2.937   2.315 -0.4621  0.3667  0.1002
19681TIP3    H180534   1.297   3.018   2.278  2.2150 -0.3731  0.7286
19681TIP3    H280535   1.263   2.875   2.241  0.8170  0.0506  0.3332
19682TIP3   OH280536   3.956   6.706  14.977  0.0550 -0.2869  0.9796
19682TIP3    H180537   3.943   6.800  14.961 -1.7727 -0.6149  0.3594
19682TIP3    H280538   3.911   6.664  14.904  0.0722 -1.6646  1.7631
19683TIP3   OH280539   2.209   3.237   3.706 -0.0913 -0.1885 -0.4527
19683TIP3    H180540   2.144   3.206   3.643 -0.7391 -0.8816  0.5536
19683TIP3    H280541   2.193   3.332   3.711 -0.0131 -0.1204 -1.3484
19684TIP3   OH280542   4.522   4.693   5.097  0.0048  0.2953 -0.6905
19684TIP3    H180543   4.610   4.684   5.133  0.1208  1.2827 -0.7171
19684TIP3    H280544   4.516   4.785   5.070 -0.7379  0.0264 -1.4682
19685TIP3   OH280545   4.200   4.347  13.914  0.2715  0.2469 -0.2169
19685TIP3    H180546   4.188   4.285  13.986 -0.0413  0.5557 -0.0033
19685TIP3    H280547   4.237   4.425  13.955  1.1601  0.0188 -0.5679
19686TIP3   OH280548   6.726   1.111  11.229  0.3801 -0.1341 -0.0796
19686TIP3    H180549   6.747   1.181  11.168 -0.3088  0.5347  0.4427
19686TIP3    H280550   6.661   1.058  11.183 -2.5474  2.1543  1.2291
19687TIP3   OH280551   0.810   3.497   5.053 -0.2010  0.5559  0.4174
19687TIP3    H180552   0.733   3.452   5.088  0.7954 -1.9904 -0.5955
19687TIP3    H280553   0.874   3.495   5.124 -0.2481  0.6416  0.4631
19688TIP3   OH280554   6.715   6.288  13.010  0.0180  0.6418 -0.1310
19688TIP3    H180555   6.693   6.288  12.917  1.5580 -0.1503 -0.5145
19688TIP3    H280556   6.810   6.302  13.012 -0.1041  1.3096  1.3531
19689TIP3   OH280557   2.480   3.706  15.874 -0.2302  0.3360 -0.0140
19689TIP3    H180558   2.388   3.687  15.857 -0.6040  2.1677 -0.1713
19689TIP3    H280559   2.511   3.744  15.792  1.6132 -3.3990 -1.1769
19690TIP3   OH280560   4.550   6.261   5.693 -0.2310  0.0113 -0.1943
19690TIP3    H180561   4.553   6.167   5.671  0.1214 -0.2040  0.7795
19690TIP3    H280562   4.524   6.303   5.611 -3.1104 -1.1942  0.0312
19691TIP3   OH280563   1.144   1.993  15.783 -0.4711  0.0490 -0.1048
19691TIP3    H180564   1.144   1.977  15.689 -1.4827 -0.2420 -0.0661
19691TIP3    H280565   1.135   2.087  15.792  2.5686  0.4083 -0.3149
19692TIP3   OH280566   3.159   2.483   3.311  0.3170  0.1360 -0.2046
19692TIP3    H180567   3.169   2.399   3.357  1.4086 -0.6510 -1.7791
19692TIP3    H280568   3.140   2.458   3.221 -1.0972  1.6252 -0.3314
19693TIP3   OH280569   4.580   5.322   0.305 -0.1472  1.0806  0.0320
19693TIP3    H180570   4.646   5.273   0.256 -0.0825  0.7241  0.4668
19693TIP3    H280571   4.544   5.385   0.242 -0.6158  0.1129 -0.6905
19694TIP3   OH280572   2.712   3.150  12.282  0.0339 -0.0654  0.0626
19694TIP3    H180573   2.634   3.204  12.290  0.3759  0.5832 -0.8426
19694TIP3    H280574   2.720   3.134  12.188  0.2040 -1.2890  0.2817
19695TIP3   OH280575   2.329   6.167  14.065 -0.5450 -0.2239  0.3991
19695TIP3    H180576   2.411   6.155  14.113 -1.5529 -1.1748  1.9271
19695TIP3    H280577   2.289   6.244  14.105 -0.1000  0.6326 -0.7872
19696TIP3   OH280578   2.444   5.200   5.892  0.2618 -0.2862 -0.0200
19696TIP3    H180579   2.457   5.204   5.987  0.5671 -0.2187 -0.0655
19696TIP3    H280580   2.371   5.140   5.881 -1.1377  1.2934  0.3836
19697TIP3   OH280581   5.939   4.520  11.340  0.6794  0.0423 -0.6514
19697TIP3    H180582   5.873   4.461  11.377  1.0627  1.1854  2.0465
19697TIP3    H280583   5.887   4.591  11.301  0.2667 -0.4563 -1.0166
19698TIP3   OH280584   4.857   1.236   1.318 -0.0405 -0.1592 -0.3777
19698TIP3    H180585   4.824   1.273   1.400 -0.2256 -1.8301  0.3344
19698TIP3    H280586   4.881   1.146   1.341  1.6544 -0.0735 -1.7316
19699TIP3   OH280587   0.907   6.414  13.715  0.1238  0.1068 -0.4171
19699TIP3    H180588   0.864   6.389  13.797  2.4909  1.0013  1.1475
19699TIP3    H280589   0.930   6.506  13.728  0.0583  0.4156 -2.3232
19700TIP3   OH280590   3.497   2.171  16.943  0.0361  0.6694  0.2769
19700TIP3    H180591   3.574   2.117  16.962 -0.5881 -0.2878  0.1313
19700TIP3    H280592   3.468   2.142  16.856 -0.5804  0.9131  0.3995
19701TIP3   OH280593   6.461   2.873  14.375 -0.3839  0.1775 -0.1125
19701TIP3    H180594   6.518   2.949  14.363 -1.3474  1.0409  0.7247
19701TIP3    H280595   6.498   2.806  14.318  1.7166  0.6005  0.7209
19702TIP3   OH280596   3.862   6.487   5.583 -0.0701  0.4830 -0.4291
19702TIP3    H180597   3.817   6.448   5.507  1.7357 -0.3785 -1.0981
19702TIP3    H280598   3.853   6.421   5.652  0.0757  0.3551 -0.5312
19703TIP3   OH280599   2.220   5.953   1.789 -0.0551  0.2069 -0.5239
19703TIP3    H180600   2.276   5.939   1.866 -1.4008 -2.5230  0.0203
19703TIP3    H280601   2.133   5.967   1.825 -0.6082 -0.5884 -1.5073
19704TIP3   OH280602   0.512   4.055  11.088  0.2490 -0.4892 -0.1521
19704TIP3    H180603   0.417   4.045  11.086  0.3327 -1.0247 -1.5814
19704TIP3    H280604   0.545   3.971  11.119  0.1837  0.2619  2.0438
19705TIP3   OH280605   0.735   6.599  15.566 -0.9884 -0.0532  0.1031
19705TIP3    H180606   0.768   6.669  15.509 -0.0551 -0.6736 -0.1329
19705TIP3    H280607   0.796   6.526  15.552 -0.9669 -0.3407  1.6056
19706TIP3   OH280608   4.835   4.132  17.286  0.0179  0.3429 -0.1849
19706TIP3    H180609   4.863   4.207  17.336 -0.0598  0.3268 -0.1171
19706TIP3    H280610   4.854   4.056  17.342  0.3809  0.2894 -0.3792
19707TIP3   OH280611   2.039   6.797   5.704 -0.1081 -0.3055 -0.6329
19707TIP3    H180612   1.973   6.804   5.635 -0.0903  0.9848 -0.5289
19707TIP3    H280613   1.996   6.748   5.774 -0.8368  0.2152 -0.7082
19708TIP3   OH280614   1.818   1.799   2.203  0.3477 -0.3625 -0.7794
19708TIP3    H180615   1.891   1.861   2.191  1.2707 -1.4006 -0.6465
19708TIP3    H280616   1.789   1.815   2.293  2.3291 -1.9246  0.1705
19709TIP3   OH280617   1.047   3.231  15.883  0.4712  0.0187 -0.2837
19709TIP3    H180618   1.088   3.201  15.964  0.4734  0.4377 -0.1280
19709TIP3    H280619   1.119   3.238  15.820  0.2873 -1.4602 -0.6629
19710TIP3   OH280620   4.496   3.741  14.784  0.0540 -0.4073  0.0056
19710TIP3    H180621   4.487   3.835  14.774  0.7761 -0.5973 -2.6526
19710TIP3    H280622   4.406   3.707  14.781 -0.0537 -0.0178 -1.4857
19711TIP3   OH280623   1.670   1.666  16.236  0.6573  0.0000 -0.3929
19711TIP3    H180624   1.588   1.715  16.222 -0.2788 -0.9017  1.7306
19711TIP3    H280625   1.737   1.733  16.243  0.0315  0.7798 -1.6957
19712TIP3   OH280626   0.404   1.588  15.105  0.2048 -0.6381 -0.4275
19712TIP3    H180627   0.317   1.582  15.065  0.0394  1.3950 -0.3910
19712TIP3    H280628   0.387   1.577  15.199  0.0728 -0.9148 -0.4823
19713TIP3   OH280629   2.757   5.048   5.706 -0.2580 -0.6597  0.2010
19713TIP3    H180630   2.833   5.101   5.684 -0.4268 -0.5715 -0.1738
19713TIP3    H280631   2.682   5.097   5.671 -0.4218 -1.0933 -0.0601
19714TIP3   OH280632   0.632   5.538   3.868  0.0662 -0.2354 -0.2916
19714TIP3    H180633   0.656   5.452   3.902  1.7275 -0.1092 -1.0994
19714TIP3    H280634   0.637   5.596   3.944 -0.9305 -0.8194  0.2277
19715TIP3   OH280635   2.140   3.684  14.960 -0.0111  0.0268 -0.1126
19715TIP3    H180636   2.086   3.733  14.898 -0.7268 -0.3133  0.2302
19715TIP3    H280637   2.104   3.707  15.046 -0.2793 -0.9994  0.0578
19716TIP3   OH280638   0.882   6.549  12.029 -0.1580 -0.3966 -0.3994
19716TIP3    H180639   0.931   6.468  12.042  0.1205 -0.2738 -0.6765
19716TIP3    H280640   0.810   6.544  12.092 -0.3567 -1.0262 -0.6697
19717TIP3   OH280641   2.917   4.858  13.693 -0.0340 -0.4820 -0.1209
19717TIP3    H180642   2.970   4.900  13.626  0.4309  3.1533  2.4056
19717TIP3    H280643   2.833   4.905  13.690  0.0343 -0.1860  1.8785
19718TIP3   OH280644   0.492   3.367  11.563  0.4799 -0.0995  0.3884
19718TIP3    H180645   0.416   3.321  11.598 -0.1989 -0.6091 -1.6840
19718TIP3    H280646   0.473   3.459  11.579 -0.2648 -0.2603  0.4531
19719TIP3   OH280647   6.281   2.130  15.388  0.4660 -0.3906 -0.0676
19719TIP3    H180648   6.315   2.046  15.359  0.0968 -1.0142  1.2347
19719TIP3    H280649   6.324   2.146  15.472 -1.6652 -0.7403  1.1441
19720TIP3   OH280650   5.290   4.061   4.378  0.5049  0.3835  0.0307
19720TIP3    H180651   5.273   4.153   4.362  0.7847  0.4344  0.0351
19720TIP3    H280652   5.282   4.051   4.473  0.7918  0.4649  0.0626
19721TIP3   OH280653   3.335   1.827  12.254  0.1545  0.1966  0.0982
19721TIP3    H180654   3.392   1.762  12.293 -0.4172 -1.0487 -1.1252
19721TIP3    H280655   3.330   1.897  12.319 -0.0059 -1.4135  1.8392
19722TIP3   OH280656   0.394   1.936   6.315 -0.1851  0.5222 -0.2812
19722TIP3    H180657   0.327   1.883   6.359 -1.3041  2.3955  0.3192
19722TIP3    H280658   0.353   2.022   6.303  1.5448  1.2189 -1.3787
19723TIP3   OH280659   5.678   4.057  11.354  0.0196  0.0559  0.0351
19723TIP3    H180660   5.723   3.977  11.325  1.0638  0.1858  1.2258
19723TIP3    H280661   5.635   4.091  11.276  0.8483 -0.8465 -0.8231
19724TIP3   OH280662   5.652   5.425  11.757 -0.2953  0.5449  0.1953
19724TIP3    H180663   5.711   5.360  11.794 -0.5152  0.6310  0.6978
19724TIP3    H280664   5.670   5.423  11.663  1.9757  1.9970  0.5513
19725TIP3   OH280665   1.095   1.200   6.488 -0.1416 -0.0064 -0.1824
19725TIP3    H180666   1.018   1.216   6.543 -0.3715  0.3068 -0.5878
19725TIP3    H280667   1.105   1.281   6.438 -1.1205 -0.9823 -2.0241
19726TIP3   OH280668   2.056   4.276  14.080 -0.3219  0.6864  0.3732
19726TIP3    H180669   2.015   4.191  14.063 -0.8785  0.5102  2.5020
19726TIP3    H280670   2.129   4.280  14.018 -1.7315 -0.2800 -1.4241
19727TIP3   OH280671   4.539   3.665  11.946 -0.1253 -0.0441 -0.1534
19727TIP3    H180672   4.604   3.708  12.001  2.4656  0.0043 -3.0872
19727TIP3    H280673   4.513   3.731  11.882 -0.4309 -1.0884 -1.1386
19728TIP3   OH280674   4.369   0.815  12.134 -0.0021 -0.0901 -0.3393
19728TIP3    H180675   4.447   0.783  12.180 -0.0045 -1.1966 -1.0906
19728TIP3    H280676   4.365   0.763  12.054 -0.7682  0.8854 -0.9560
19729TIP3   OH280677   3.247   3.401  14.581 -0.3754 -0.3537 -0.1093
19729TIP3    H180678   3.335   3.438  14.584 -1.0611  1.3014  0.0035
19729TIP3    H280679   3.207   3.440  14.503 -0.6879 -1.8336 -0.7000
19730TIP3   OH280680   6.656   4.013  16.792  0.1961 -0.4870  0.4476
19730TIP3    H180681   6.673   4.068  16.869  0.5739 -0.4662  0.3522
19730TIP3    H280682   6.678   3.925  16.821 -1.1673 -0.7075  0.8518
19731TIP3   OH280683   5.002   5.728  10.774  0.0651 -0.7888  0.3909
19731TIP3    H180684   4.941   5.730  10.700  0.2405 -1.1570  0.2332
19731TIP3    H280685   5.083   5.691  10.737 -0.4561 -2.7712  1.2131
19732TIP3   OH280686   1.069   0.515   5.867  0.4866 -0.4233 -0.1184
19732TIP3    H180687   1.024   0.530   5.783 -0.5402 -0.0355  0.4849
19732TIP3    H280688   1.151   0.474   5.843  0.4828  0.2548 -1.3779
19733TIP3   OH280689   6.183   4.359   1.026  0.5070  0.5106 -0.5514
19733TIP3    H180690   6.143   4.342   0.940  0.9619 -0.3431 -0.5974
19733TIP3    H280691   6.108   4.368   1.085  0.2080  0.5046 -0.9214
19734TIP3   OH280692   3.963   2.143  14.861 -0.0161 -0.0643  0.1700
19734TIP3    H180693   3.919   2.084  14.799  0.6763  0.2533 -0.6360
19734TIP3    H280694   3.901   2.214  14.875  0.3661  0.5648 -1.2383
19735TIP3   OH280695   6.426   6.093   2.231 -0.9172  0.9337 -0.1969
19735TIP3    H180696   6.512   6.063   2.259 -0.5834  1.9409 -0.1120
19735TIP3    H280697   6.443   6.138   2.148 -1.5432  0.0623 -0.8062
19736TIP3   OH280698   3.787   6.093  12.356  0.1690 -0.6158 -0.4512
19736TIP3    H180699   3.776   6.059  12.267  1.0052  0.5169 -0.9956
19736TIP3    H280700   3.706   6.140  12.374  0.7320  0.7299 -1.3338
19737TIP3   OH280701   0.480   5.534   1.437 -0.2734 -0.0430 -0.1704
19737TIP3    H180702   0.439   5.605   1.387  1.6426  1.3885  0.2498
19737TIP3    H280703   0.517   5.476   1.370 -1.1796 -0.2623 -0.4919
19738TIP3   OH280704   3.729   3.862  16.802  0.2064 -0.1680 -0.0360
19738TIP3    H180705   3.814   3.906  16.805 -0.3032  0.7144  1.3048
19738TIP3    H280706   3.730   3.802  16.876  0.0190 -0.8321 -0.5639
19739TIP3   OH280707   5.094   2.509  12.353  0.2891  0.4093  0.3508
19739TIP3    H180708   5.102   2.526  12.447  0.9021 -1.4368  0.6494
19739TIP3    H280709   5.181   2.530  12.317  0.3659  0.1334  0.3699
19740TIP3   OH280710   6.395   6.668  12.599  0.8215 -0.4888 -0.4574
19740TIP3    H180711   6.447   6.696  12.524 -0.8806  0.1017 -1.4465
19740TIP3    H280712   6.305   6.687  12.574  0.2382 -0.1530  1.8111
19741TIP3   OH280713   6.429   4.383   0.429 -0.2486  0.1171  0.5407
19741TIP3    H180714   6.396   4.356   0.514 -0.1343 -0.7032  0.3308
19741TIP3    H280715   6.512   4.337   0.419  1.8079  3.4332  1.7653
19742TIP3   OH280716   6.060   2.404   3.244  0.7849 -0.3371  0.3965
19742TIP3    H180717   6.141   2.417   3.292  1.9850 -2.1243 -1.0445
19742TIP3    H280718   6.008   2.346   3.300  1.5404 -1.1750  0.2484
19743TIP3   OH280719   3.862   1.164  17.120  0.0174  0.4530  0.2018
19743TIP3    H180720   3.957   1.178  17.111  0.0596 -0.0281 -0.0893
19743TIP3    H280721   3.842   1.095  17.058 -0.5353  0.5696  0.2518
19744TIP3   OH280722   1.923   4.808   6.058 -0.2388  0.3966  0.2029
19744TIP3    H180723   1.850   4.748   6.045 -0.7312  0.9935  0.2018
19744TIP3    H280724   1.882   4.892   6.077  0.4458  0.6166  0.7437
19745TIP3   OH280725   0.275   5.160  17.097 -0.1989 -0.2203 -0.0886
19745TIP3    H180726   0.352   5.143  17.152 -0.5614  0.8144  0.7516
19745TIP3    H280727   0.203   5.114  17.141 -0.3041 -0.1813 -0.2192
19746TIP3   OH280728   2.671   3.221   2.260 -0.2481  0.3622 -0.1649
19746TIP3    H180729   2.660   3.260   2.173  1.7142  0.2624 -0.4792
19746TIP3    H280730   2.617   3.142   2.257 -0.3857  0.4839 -1.2104
19747TIP3   OH280731   0.457   5.172  12.485  0.1237 -0.0969 -0.3617
19747TIP3    H180732   0.449   5.236  12.415  1.5889 -0.5536 -0.9815
19747TIP3    H280733   0.475   5.089  12.440 -1.3839 -0.8691  0.4430
19748TIP3   OH280734   5.217   4.114   6.087 -0.1038  0.6881  0.3881
19748TIP3    H180735   5.211   4.167   6.007  0.6147 -0.5060 -0.4711
19748TIP3    H280736   5.310   4.113   6.108 -0.2087  0.4089  0.8383
19749TIP3   OH280737   0.492   2.380  12.501  0.2500  0.2236 -0.1012
19749TIP3    H180738   0.473   2.412  12.590 -0.6578 -0.1880 -0.1479
19749TIP3    H280739   0.504   2.286  12.511  0.4381  0.2166 -0.3762
19750TIP3   OH280740   2.991   5.234  12.451  0.4885  0.0499 -0.3157
19750TIP3    H180741   2.964   5.148  12.482 -1.2665  0.5541 -0.3601
19750TIP3    H280742   2.919   5.292  12.477  1.3271  1.3751 -0.8976
19751TIP3   OH280743   0.021   5.057  13.958 -0.3472 -0.0625  0.1203
19751TIP3    H180744   0.021   5.131  14.019 -0.8176  0.0626 -0.0288
19751TIP3    H280745   0.018   5.097  13.872 -0.7063 -0.2591  0.0413
19752TIP3   OH280746   0.925   0.054  16.330 -0.6830 -0.5477  0.6398
19752TIP3    H180747   0.993   0.118  16.349 -0.9338  0.3835 -1.5418
19752TIP3    H280748   0.969  -0.031  16.340  0.3150  0.0014  0.9929
19753TIP3   OH280749   5.139   2.642  12.618  0.2867  0.5950 -0.1990
19753TIP3    H180750   5.154   2.569  12.678  0.2208  0.7891  0.0563
19753TIP3    H280751   5.060   2.684  12.651  1.1259  1.6479  0.5392
19754TIP3   OH280752   2.864   5.636   3.601 -0.0035 -0.3376 -0.0567
19754TIP3    H180753   2.826   5.596   3.522 -1.3988  0.7472  0.0491
19754TIP3    H280754   2.792   5.636   3.665  0.2514  1.4675  0.2442
19755TIP3   OH280755   4.345   4.550  16.016  0.5819  0.9579 -0.2314
19755TIP3    H180756   4.327   4.496  15.939  1.0190  1.1376 -0.4592
19755TIP3    H280757   4.319   4.638  15.990  0.3772  0.9545 -0.0446
19756TIP3   OH280758   3.263   1.521   1.938 -0.0433 -0.1789 -0.0997
19756TIP3    H180759   3.252   1.452   1.872 -1.2179 -0.8930  0.8215
19756TIP3    H280760   3.216   1.596   1.903 -0.5813 -0.5234 -0.1189
19757TIP3   OH280761   2.211   2.186  16.537  0.0112  0.1659 -0.3783
19757TIP3    H180762   2.202   2.202  16.630  0.8328 -0.3745 -0.2017
19757TIP3    H280763   2.189   2.093  16.526  0.2024  0.1533 -0.6761
19758TIP3   OH280764   0.961   4.489   1.873 -0.1989  0.1099  0.5966
19758TIP3    H180765   1.004   4.497   1.959 -0.0881 -0.6372  0.6138
19758TIP3    H280766   0.916   4.404   1.876  0.2692 -0.1768 -0.2882
19759TIP3   OH280767   4.906   3.846   5.743  0.1157  0.3106  0.2249
19759TIP3    H180768   4.868   3.849   5.831  0.4435  2.3592  0.3324
19759TIP3    H280769   4.941   3.935   5.729  0.3607 -0.0804 -1.8390
19760TIP3   OH280770   1.248   0.905   1.795 -0.2097  0.4553 -0.5581
19760TIP3    H180771   1.275   0.947   1.713 -0.1314 -0.2425 -0.8888
19760TIP3    H280772   1.163   0.865   1.775  0.0359 -0.1306 -0.4348
19761TIP3   OH280773   5.936   4.290   5.595  0.3196 -0.2237 -0.1865
19761TIP3    H180774   5.978   4.246   5.670  1.7514  1.9872  0.3519
19761TIP3    H280775   5.843   4.287   5.615  0.4977 -1.8165  0.4914
19762TIP3   OH280776   0.806   1.928   0.877  0.3781  0.1050  0.0903
19762TIP3    H180777   0.846   1.879   0.948  1.2816  1.1265  0.3059
19762TIP3    H280778   0.789   2.015   0.914  0.0019  0.3562 -0.6606
19763TIP3   OH280779   4.047   1.474   2.278  0.1535  0.0461  0.4479
19763TIP3    H180780   3.955   1.490   2.257  0.8723  2.4974 -1.1242
19763TIP3    H280781   4.064   1.531   2.354  0.6799  0.5966 -0.0768
19764TIP3   OH280782   6.205   6.074  15.283 -0.1696  1.0002 -0.0831
19764TIP3    H180783   6.173   6.039  15.199  1.3005 -2.5759  0.7799
19764TIP3    H280784   6.138   6.050  15.346  0.3701  0.6218  0.3508
19765TIP3   OH280785   1.349   5.536  17.258 -0.0824 -0.3525 -0.0979
19765TIP3    H180786   1.398   5.474  17.204 -0.4890 -0.9882  0.2603
19765TIP3    H280787   1.257   5.510  17.247 -0.1942 -0.2513  0.6128
19766TIP3   OH280788   5.298   5.079  15.198  0.2479  0.0524 -0.1663
19766TIP3    H180789   5.221   5.124  15.233  0.3299  0.2778 -0.2737
19766TIP3    H280790   5.266   4.994  15.169 -0.2776  0.7634 -1.7222
19767TIP3   OH280791   4.697   0.002  15.671  0.3940 -0.2541  0.4341
19767TIP3    H180792   4.639  -0.056  15.620  0.6943 -0.6227  0.5105
19767TIP3    H280793   4.742  -0.057  15.731  3.3587 -0.5106 -1.8983
19768TIP3   OH280794   1.163   4.369   5.081 -0.2434 -0.5677 -0.6524
19768TIP3    H180795   1.165   4.350   5.175  0.0658 -1.1971 -0.7785
19768TIP3    H280796   1.256   4.377   5.057 -0.3845  3.3971 -0.1748
19769TIP3   OH280797   0.013   4.313  16.547 -0.2378  0.9695 -0.2226
19769TIP3    H180798   0.037   4.398  16.510 -0.4678  1.5076  0.8557
19769TIP3    H280799   0.088   4.287  16.600 -0.0742  0.3855 -0.7349
19770TIP3   OH280800   0.383   5.206  15.606 -0.2096  0.8457  0.4129
19770TIP3    H180801   0.371   5.274  15.539  0.1438  2.1725  1.6571
19770TIP3    H280802   0.365   5.251  15.689 -2.2076 -1.1549  1.1221
19771TIP3   OH280803   3.897   4.493  15.179  0.1306  0.1167 -0.3919
19771TIP3    H180804   3.806   4.478  15.207  0.3499  1.7322  1.2584
19771TIP3    H280805   3.935   4.405  15.177 -0.9920 -0.4192  0.5898
19772TIP3   OH280806   3.254   2.714   3.145  0.3016  0.0602  0.0286
19772TIP3    H180807   3.202   2.634   3.150  1.5692 -0.8537 -1.0929
19772TIP3    H280808   3.199   2.775   3.094 -0.2638 -0.4183  0.0563
19773TIP3   OH280809   0.573   1.180  15.673 -0.2285 -0.2152  0.1900
19773TIP3    H180810   0.667   1.188  15.690 -0.3509 -1.4371  1.5383
19773TIP3    H280811   0.557   1.238  15.599  1.4638  0.5353  0.3942
19774TIP3   OH280812   5.038   3.790   4.087 -0.2446 -0.1972 -0.2170
19774TIP3    H180813   5.124   3.783   4.128  0.0044 -0.1859 -0.7352
19774TIP3    H280814   4.999   3.868   4.127 -0.0164 -0.2006  0.0155
19775TIP3   OH280815   5.763   1.784   4.613  0.1849 -0.4370  0.1390
19775TIP3    H180816   5.711   1.704   4.625  1.0929 -1.0433  0.1069
19775TIP3    H280817   5.853   1.752   4.606  0.7649  0.7293  1.9572
19776TIP3   OH280818   4.135   2.458  14.385  0.1742  0.4678  0.2730
19776TIP3    H180819   4.160   2.536  14.336  0.0689  1.4295  1.7343
19776TIP3    H280820   4.079   2.490  14.455 -0.0136 -0.9452  0.7882
19777TIP3   OH280821   3.257   5.219   4.528  0.6426 -0.2826 -0.2174
19777TIP3    H180822   3.341   5.181   4.555  1.5302 -1.3082 -4.0255
19777TIP3    H280823   3.191   5.157   4.559  1.5167 -0.9065  0.4025
19778TIP3   OH280824   2.337   4.228   5.156  0.9409 -0.0666  0.4317
19778TIP3    H180825   2.262   4.180   5.190  0.5153 -0.6838 -1.3338
19778TIP3    H280826   2.411   4.167   5.167  1.3099  0.6898  2.5370
19779TIP3   OH280827   4.501   0.945   3.288  0.0358  0.0397 -0.0893
19779TIP3    H180828   4.448   0.889   3.344 -0.2961 -0.1422 -0.5812
19779TIP3    H280829   4.496   1.031   3.330 -0.1956 -0.0989  0.1729
19780TIP3   OH280830   6.075   3.217   1.244  0.2187 -0.1878 -0.0606
19780TIP3    H180831   6.091   3.157   1.317  2.5135 -1.0317 -1.1917
19780TIP3    H280832   6.141   3.193   1.179 -0.2115  2.1545 -1.4148
19781TIP3   OH280833   0.910   2.247   1.561 -0.0024  0.0166  0.9175
19781TIP3    H180834   0.967   2.305   1.613  0.6787 -0.1602  0.3716
19781TIP3    H280835   0.895   2.172   1.617  0.4249 -0.0010  1.0136
19782TIP3   OH280836   2.996   4.939  12.090 -0.3150  0.0911  0.1916
19782TIP3    H180837   2.911   4.969  12.122 -0.4420  0.3454 -0.3780
19782TIP3    H280838   3.009   4.986  12.008 -0.2952 -1.0516 -0.4711
19783TIP3   OH280839   5.964   5.662  16.383  0.1650 -0.3057 -0.5615
19783TIP3    H180840   5.904   5.727  16.420  0.1177 -0.3636 -0.5357
19783TIP3    H280841   6.028   5.715  16.333  1.5745 -0.0473  1.4502
19784TIP3   OH280842   6.344   1.090   2.786  0.2311  0.2338  0.4992
19784TIP3    H180843   6.308   1.005   2.763 -1.3478  1.0542 -0.1450
19784TIP3    H280844   6.314   1.105   2.876 -0.1793  0.4653  0.3247
19785TIP3   OH280845   0.806   1.180   1.594  0.0283  0.9908  0.2108
19785TIP3    H180846   0.734   1.135   1.550  1.1746 -0.2011 -0.5030
19785TIP3    H280847   0.827   1.254   1.537  0.9573 -0.0675 -0.8536
19786TIP3   OH280848   4.999   0.427  15.387 -0.2731 -0.6684  0.0297
19786TIP3    H180849   5.060   0.370  15.340  1.0687 -0.4113  1.4146
19786TIP3    H280850   5.027   0.422  15.478 -1.3397  0.7115  0.4527
19787TIP3   OH280851   1.852   4.571  15.573  0.3105 -0.1132 -0.1178
19787TIP3    H180852   1.948   4.575  15.579  0.3203  0.0734 -0.4451
19787TIP3    H280853   1.825   4.662  15.560  0.0451 -0.0792  0.6323
19788TIP3   OH280854   4.226   2.812  15.042 -0.3806  0.0435 -0.1267
19788TIP3    H180855   4.314   2.802  15.078 -0.1759  1.4653 -0.2190
19788TIP3    H280856   4.194   2.895  15.078 -1.3387 -0.0090 -0.8208
19789TIP3   OH280857   2.467   2.699  15.498 -0.2100  0.3869  0.0624
19789TIP3    H180858   2.378   2.704  15.462  0.3485  1.1650 -1.2661
19789TIP3    H280859   2.520   2.667  15.425  0.4523 -1.0535  1.1467
19790TIP3   OH280860   3.467   1.236   1.043  0.2215  0.4472  0.5840
19790TIP3    H180861   3.531   1.302   1.071 -1.3670  1.8724  0.9008
19790TIP3    H280862   3.425   1.274   0.966  0.4557 -0.9290 -0.2366
19791TIP3   OH280863   6.323   4.483   5.040 -0.6701  0.4219 -0.3215
19791TIP3    H180864   6.252   4.503   5.101  0.1511  1.9234  0.1530
19791TIP3    H280865   6.401   4.521   5.080  0.0764  0.4522 -1.7728
19792TIP3   OH280866   2.212   3.405   4.678 -0.1393  0.0377  0.0284
19792TIP3    H180867   2.128   3.413   4.723  0.1161 -0.4534  0.5926
19792TIP3    H280868   2.267   3.354   4.737  0.1953 -0.6284 -0.8487
19793TIP3   OH280869   3.987   5.312  16.405 -0.7288 -0.7717  0.2626
19793TIP3    H180870   3.991   5.299  16.310  1.8601  0.4453  0.1434
19793TIP3    H280871   4.001   5.225  16.442  1.5749 -0.7898 -0.5146
19794TIP3   OH280872   2.399   1.768   2.069  0.0253  0.2848 -0.0484
19794TIP3    H180873   2.485   1.726   2.075 -1.3327 -3.1503 -2.8290
19794TIP3    H280874   2.372   1.781   2.160  1.9156 -1.9938  0.8909
19795TIP3   OH280875   5.069   6.450   5.454 -0.5703 -0.3234  0.1301
19795TIP3    H180876   5.092   6.531   5.499 -0.3253  1.0913 -2.3934
19795TIP3    H280877   5.027   6.396   5.520 -0.7154  1.8667  1.8837
19796TIP3   OH280878   1.548   1.437  11.124 -0.4918 -0.1007  0.0553
19796TIP3    H180879   1.532   1.501  11.056 -0.3883 -1.9741 -1.7699
19796TIP3    H280880   1.625   1.470  11.170 -0.7677  1.3507 -0.5148
19797TIP3   OH280881   5.867   4.133   1.113  0.6519 -0.1197  0.1557
19797TIP3    H180882   5.839   4.117   1.022 -0.2037  1.2440  0.1660
19797TIP3    H280883   5.860   4.047   1.155  1.7436 -0.9146 -1.2354
19798TIP3   OH280884   2.315   0.699   6.878  0.4864 -0.6234  0.0135
19798TIP3    H180885   2.388   0.757   6.855  2.1772 -1.4764  2.9761
19798TIP3    H280886   2.256   0.755   6.928  0.6824 -0.6919  0.3287
19799TIP3   OH280887   0.541   4.802  15.941  0.4015  0.1930 -0.0601
19799TIP3    H180888   0.513   4.750  15.866 -0.6552  1.7317 -0.7580
19799TIP3    H280889   0.502   4.759  16.017 -0.7086  0.1382 -0.6619
19800TIP3   OH280890   3.783   0.747   5.576 -0.1103  0.5133 -0.0577
19800TIP3    H180891   3.737   0.823   5.540 -1.4716  1.4403  3.4695
19800TIP3    H280892   3.751   0.673   5.524 -0.8079  1.9730 -1.7698
19801TIP3   OH280893   4.540   2.209  14.166  0.5749 -0.0685 -0.6036
19801TIP3    H180894   4.626   2.178  14.194  0.3687  0.9182  1.2019
19801TIP3    H280895   4.534   2.298  14.200 -0.8576  0.1444 -1.3716
19802TIP3   OH280896   2.634   6.437   2.866  0.0866 -0.9994 -0.4102
19802TIP3    H180897   2.650   6.343   2.869 -0.0361 -1.0526 -1.3213
19802TIP3    H280898   2.701   6.471   2.806 -0.0572 -0.5529 -0.3197
19803TIP3   OH280899   3.791   0.298  12.819 -0.4086 -0.2125 -0.2680
19803TIP3    H180900   3.831   0.289  12.906 -3.0256 -0.2719  0.9594
19803TIP3    H280901   3.749   0.214  12.803 -2.8587  0.9389 -0.0533
19804TIP3   OH280902   3.141   2.305  16.512 -0.1086  0.1246 -0.2796
19804TIP3    H180903   3.122   2.274  16.423 -1.6856  1.4718 -0.4291
19804TIP3    H280904   3.104   2.238  16.569 -0.3057 -0.0611 -0.6206
19805TIP3   OH280905   4.533   4.699   3.774 -0.3855 -0.0157  0.0255
19805TIP3    H180906   4.478   4.756   3.719 -1.0351 -1.4918 -0.8907
19805TIP3    H280907   4.504   4.718   3.863 -0.8327  0.8477 -0.2895
19806TIP3   OH280908   0.352   0.086   4.486  0.0656 -0.2868 -0.8445
19806TIP3    H180909   0.423   0.116   4.430  1.4940  0.9583  1.5390
19806TIP3    H280910   0.363  -0.009   4.491  2.3630  0.0258  0.4884
19807TIP3   OH280911   6.382   3.231  13.848 -0.5533 -0.0305  0.0876
19807TIP3    H180912   6.341   3.243  13.933 -0.3736 -2.4857  0.5676
19807TIP3    H280913   6.471   3.201  13.868 -1.9009 -5.2038 -0.8130
19808TIP3   OH280914   5.131   1.727   4.840 -0.0710  0.5506  0.0233
19808TIP3    H180915   5.114   1.680   4.758  0.5605 -0.9631  0.7412
19808TIP3    H280916   5.049   1.719   4.889  0.2466 -0.4032  0.4189
19809TIP3   OH280917   2.735   0.985   2.015  0.2871  0.7665 -0.2125
19809TIP3    H180918   2.747   0.892   2.037 -0.1172  1.0757  1.4042
19809TIP3    H280919   2.794   1.031   2.075 -1.0906  1.6730  0.4730
19810TIP3   OH280920   4.075   1.635   0.857 -0.3846 -0.0544  0.0316
19810TIP3    H180921   4.056   1.554   0.810  1.6592  0.1277 -1.1575
19810TIP3    H280922   4.116   1.607   0.939  2.1359 -0.2302 -1.2301
19811TIP3   OH280923   4.233   0.523  16.052 -0.8566  0.0012 -0.2972
19811TIP3    H180924   4.263   0.560  16.135  0.5159 -1.9026  0.1027
19811TIP3    H280925   4.146   0.489  16.070 -0.3682 -0.8407  0.5234
19812TIP3   OH280926   1.142   6.219  15.508 -0.1750  0.3674  0.1959
19812TIP3    H180927   1.135   6.253  15.419  1.2361  1.1032  0.3372
19812TIP3    H280928   1.200   6.282  15.552 -0.0974 -0.5076  1.3525
19813TIP3   OH280929   0.950   6.462   2.833 -0.0160  0.0354 -0.2691
19813TIP3    H180930   0.859   6.437   2.818 -0.0980  0.6457 -0.8371
19813TIP3    H280931   1.000   6.414   2.766  0.4372 -2.5652  1.8775
19814TIP3   OH280932   4.715   2.296   3.726 -0.3249 -0.3145 -0.4999
19814TIP3    H180933   4.781   2.255   3.671 -0.4535 -0.1842 -0.7509
19814TIP3    H280934   4.762   2.321   3.806  0.3908  1.5980 -1.4922
19815TIP3   OH280935   0.863   5.760   0.622 -0.5182  0.0360  0.5195
19815TIP3    H180936   0.830   5.674   0.597 -0.4023 -0.2584  1.3467
19815TIP3    H280937   0.911   5.744   0.703 -0.3340  0.8498  0.5740
19816TIP3   OH280938   1.930   2.848  16.962  0.1285  0.2677 -0.0177
19816TIP3    H180939   1.966   2.937  16.966  0.7487  0.0198 -0.1421
19816TIP3    H280940   2.006   2.791  16.949 -0.1401 -0.3918  1.2226
19817TIP3   OH280941   4.961   6.695   4.896  0.0200 -0.8007 -0.4045
19817TIP3    H180942   4.900   6.767   4.910  1.3996  0.1923  0.6414
19817TIP3    H280943   4.906   6.621   4.869 -1.4113  0.6266 -1.4721
19818TIP3   OH280944   1.824   1.640   1.194 -0.0189 -0.3790  0.5112
19818TIP3    H180945   1.742   1.596   1.173  0.4866 -0.9812 -0.2291
19818TIP3    H280946   1.849   1.604   1.279 -0.9925  0.5066  1.1926
19819TIP3   OH280947   0.589   3.823   2.174  0.0910 -0.1722  0.3246
19819TIP3    H180948   0.626   3.739   2.146 -0.6639 -0.7011  0.8925
19819TIP3    H280949   0.594   3.879   2.097  1.2746 -0.5120  0.1524
19820TIP3   OH280950   3.992   0.367   0.862  1.2214 -0.8280  0.0665
19820TIP3    H180951   3.934   0.436   0.830  2.4377  0.4522  0.5817
19820TIP3    H280952   3.941   0.321   0.928  1.7431  2.1368  2.6631
19821TIP3   OH280953   1.772   6.818   4.221 -0.6455  0.3780  0.3579
19821TIP3    H180954   1.795   6.780   4.306  3.4420 -1.4368 -1.4299
19821TIP3    H280955   1.804   6.908   4.226  0.1380  0.0928  0.5331
19822TIP3   OH280956   3.993   2.673   4.928  0.3788  0.1658  0.1234
19822TIP3    H180957   3.907   2.713   4.916  0.0928 -0.9384 -1.6243
19822TIP3    H280958   3.999   2.658   5.022  0.5801  4.4026  0.9106
19823TIP3   OH280959   1.774   5.605  11.328 -0.9457  0.2860 -0.1333
19823TIP3    H180960   1.819   5.678  11.286 -1.4898  1.0907  0.6860
19823TIP3    H280961   1.718   5.569  11.259 -1.5604  1.3691 -0.2045
19824TIP3   OH280962   5.295   2.266   6.062  0.0843 -0.2518 -0.1297
19824TIP3    H180963   5.299   2.358   6.039  0.2296 -0.4427 -0.8858
19824TIP3    H280964   5.303   2.264   6.157  0.7516  0.4709 -0.1680
19825TIP3   OH280965   2.187   0.157   3.694  0.6090  1.0756  0.1761
19825TIP3    H180966   2.245   0.124   3.626 -1.0816  0.3518 -0.9545
19825TIP3    H280967   2.152   0.078   3.736 -0.2793  1.4837  0.2093
19826TIP3   OH280968   5.630   5.309  12.674 -0.1207  0.1685  0.1016
19826TIP3    H180969   5.538   5.288  12.689  0.0820  0.2652  1.5358
19826TIP3    H280970   5.634   5.404  12.681  0.0377  0.1861 -0.2295
19827TIP3   OH280971   0.373   5.911  12.283  0.1870  0.0674  0.1343
19827TIP3    H180972   0.418   5.843  12.234  0.7074  1.8651 -1.9601
19827TIP3    H280973   0.283   5.908  12.251  0.0768 -0.0125  0.4512
19828TIP3   OH280974   1.534   6.425   2.237 -0.3932 -0.3274  0.3564
19828TIP3    H180975   1.575   6.412   2.151  1.8119 -0.8380  1.4692
19828TIP3    H280976   1.466   6.491   2.221 -0.4255 -0.8525 -1.8967
19829TIP3   OH280977   0.155   4.471   2.541  0.1468  0.2131 -0.2219
19829TIP3    H180978   0.134   4.505   2.629  1.0328  0.3609 -0.0693
19829TIP3    H280979   0.236   4.515   2.517  0.3446 -0.4561 -0.7804
19830TIP3   OH280980   0.459   1.543  14.260 -0.7298  0.1651  0.0365
19830TIP3    H180981   0.386   1.540  14.321 -0.2090  1.7315  0.7593
19830TIP3    H280982   0.526   1.486  14.299 -1.3489 -0.8472 -0.3633
19831TIP3   OH280983   6.387   3.496  16.694 -0.0187 -0.8526  0.5449
19831TIP3    H180984   6.369   3.455  16.778  1.8233 -0.2436  1.2717
19831TIP3    H280985   6.381   3.425  16.630 -1.5028 -1.2984  1.1719
19832TIP3   OH280986   4.607   1.153  13.296  0.2196  0.2541 -0.1012
19832TIP3    H180987   4.552   1.154  13.374 -0.3141 -1.8720 -0.4037
19832TIP3    H280988   4.697   1.150  13.330 -0.0492 -2.1864  0.4801
19833TIP3   OH280989   5.591   3.075  13.278 -0.6298  0.3446  0.2211
19833TIP3    H180990   5.654   3.017  13.319 -1.0809  0.4901  1.1316
19833TIP3    H280991   5.579   3.039  13.190  0.7443  0.3426  0.0294
19834TIP3   OH280992   0.345   2.186  15.314 -0.1201 -0.6971 -0.4869
19834TIP3    H180993   0.268   2.220  15.359 -0.8714 -1.7027 -0.9966
19834TIP3    H280994   0.404   2.261  15.309 -1.2728  0.2248 -0.5543
19835TIP3   OH280995   2.209   4.933  17.263  0.2091  0.1588 -0.0235
19835TIP3    H180996   2.199   4.898  17.174 -0.0114  1.8027 -0.6617
19835TIP3    H280997   2.229   4.856  17.316 -0.1138 -0.9227 -1.4137
19836TIP3   OH280998   0.919   5.006   5.770 -0.2764 -0.2782  0.1024
19836TIP3    H180999   0.937   5.003   5.676 -0.4450 -0.0868  0.0631
19836TIP3    H281000   0.919   4.915   5.798 -1.7482 -0.4460 -0.3733
19837TIP3   OH281001   1.716   6.424   0.890  0.1227 -0.2737  0.1504
19837TIP3    H181002   1.632   6.444   0.931  0.2109 -0.9935  0.6903
19837TIP3    H281003   1.775   6.405   0.964  0.1391 -2.1173 -0.3078
19838TIP3   OH281004   0.043   5.529   5.123  0.1536  0.6856  0.1319
19838TIP3    H181005  -0.008   5.566   5.196 -0.4000 -3.6970  2.1419
19838TIP3    H281006  -0.020   5.477   5.074  1.4403  0.0892 -0.9221
19839TIP3   OH281007   4.479   3.299   6.650 -0.2331 -0.6363  0.3260
19839TIP3    H181008   4.436   3.337   6.574 -0.4560  0.3595  0.9413
19839TIP3    H281009   4.418   3.312   6.722  1.7452  2.2894  1.5541
19840TIP3   OH281010   0.618   0.917   6.691  0.3025  0.1535  0.2592
19840TIP3    H181011   0.525   0.911   6.713  0.4776 -1.2914  0.7211
19840TIP3    H281012   0.625   0.990   6.630 -1.1995  0.0042 -0.1004
19841TIP3   OH281013   3.466   2.943  16.230  0.1758  0.4419  0.0135
19841TIP3    H181014   3.502   2.903  16.150  0.6844 -1.5903  1.2019
19841TIP3    H281015   3.499   3.033  16.229  2.6843 -0.4220 -0.5958
19842TIP3   OH281016   3.029   1.623   2.848  0.2240  0.0441  0.5582
19842TIP3    H181017   3.085   1.572   2.789 -0.1060  0.6864 -0.3261
19842TIP3    H281018   2.941   1.611   2.811  0.3021  2.3107 -0.4305
19843TIP3   OH281019   4.204   3.512  15.432 -0.3210 -0.3230  0.2586
19843TIP3    H181020   4.288   3.517  15.385  0.0988 -1.3598  0.8636
19843TIP3    H281021   4.140   3.492  15.364  0.1406 -0.8865 -0.0205
19844TIP3   OH281022   5.357   6.662   3.149  0.0668  0.3793  0.4451
19844TIP3    H181023   5.306   6.631   3.073  1.2423  0.1951 -0.2756
19844TIP3    H281024   5.357   6.588   3.209  0.2670  0.0560  0.0473
19845TIP3   OH281025   3.109   3.608   1.267  0.4061 -0.3385  0.7993
19845TIP3    H181026   3.054   3.544   1.311 -2.0184  0.6556 -0.6841
19845TIP3    H281027   3.137   3.564   1.187 -0.3649  0.0581  0.3074
19846TIP3   OH281028   5.675   1.261   5.886  0.0322 -0.3734  0.2202
19846TIP3    H181029   5.763   1.270   5.924 -0.7835 -1.1123  2.4142
19846TIP3    H281030   5.690   1.247   5.793  2.2873 -1.2190  0.6738
19847TIP3   OH281031   4.013   5.222   4.470  0.4672  0.3105  0.1001
19847TIP3    H181032   3.948   5.292   4.462  0.5793  0.5570  1.3144
19847TIP3    H281033   4.096   5.264   4.450  0.5717  0.5970  1.1256
19848TIP3   OH281034   2.741   6.658   5.344 -0.5864 -0.1068 -0.2922
19848TIP3    H181035   2.693   6.688   5.422 -2.4550 -1.2449 -0.9661
19848TIP3    H281036   2.673   6.650   5.277  0.7737 -0.5518 -1.6185
19849TIP3   OH281037   3.040   3.946  15.504  0.0242 -0.1269  0.1676
19849TIP3    H181038   3.070   3.980  15.589  0.2030  0.4669 -0.1295
19849TIP3    H281039   3.115   3.959  15.446 -1.1699  2.4297 -0.8693
19850TIP3   OH281040   2.676   2.872   0.981  0.2605 -0.0283  0.1191
19850TIP3    H181041   2.676   2.881   0.886  0.7210 -1.0752  0.0059
19850TIP3    H281042   2.637   2.786   0.997 -1.7362  1.0100  0.9907
19851TIP3   OH281043   0.067   1.419   3.615  0.0103 -0.4043  0.6361
19851TIP3    H181044   0.142   1.473   3.642  0.1182 -0.6934  0.9111
19851TIP3    H281045  -0.008   1.462   3.657 -0.0700  0.2848 -0.1930
19852TIP3   OH281046   4.617   2.890   2.625  0.2435  0.0089 -0.3583
19852TIP3    H181047   4.629   2.929   2.539 -1.3562  1.4745  0.0587
19852TIP3    H281048   4.677   2.937   2.682 -0.2970  0.5476 -0.2351
19853TIP3   OH281049   0.329   5.476   4.609 -0.0311  0.4034  0.6342
19853TIP3    H181050   0.385   5.399   4.596 -0.2610  0.6382 -1.9434
19853TIP3    H281051   0.278   5.455   4.688  1.1087 -1.3580  0.9349
19854TIP3   OH281052   2.776   6.075  14.751 -0.8221  0.0873  0.4975
19854TIP3    H181053   2.768   6.166  14.722  1.4673  0.4233  0.8198
19854TIP3    H281054   2.805   6.081  14.842  1.2388 -0.9233 -0.0603
19855TIP3   OH281055   2.959   2.856   6.100  0.1861  0.2094 -0.0142
19855TIP3    H181056   2.960   2.951   6.088  1.6649  0.0082 -1.5813
19855TIP3    H281057   2.988   2.843   6.191  0.5721  1.2155  0.0109
19856TIP3   OH281058   4.351   3.389   4.930 -0.1690  0.0401  0.2885
19856TIP3    H181059   4.430   3.424   4.971 -0.3155 -0.8701  1.3780
19856TIP3    H281060   4.290   3.463   4.928  0.2728  0.4170  0.5663
19857TIP3   OH281061   2.167   6.504   1.696  0.0572 -0.8543  0.1336
19857TIP3    H181062   2.195   6.480   1.785 -1.1470 -0.4362  0.6304
19857TIP3    H281063   2.213   6.586   1.677 -1.3189  0.1839  1.2084
19858TIP3   OH281064   1.538   2.565  12.779  0.0947  0.3878 -0.4490
19858TIP3    H181065   1.455   2.592  12.741 -0.2821 -0.1869 -0.0598
19858TIP3    H281066   1.560   2.484  12.733  0.4401  0.5375 -0.5492
19859TIP3   OH281067   0.619   0.054   3.045 -0.2540  0.2919 -0.6961
19859TIP3    H181068   0.525   0.042   3.063  0.1274 -1.1799  0.4024
19859TIP3    H281069   0.658   0.065   3.131  0.4399  2.2443 -1.2274
19860TIP3   OH281070   0.141   2.605   6.151 -0.4152 -0.0353 -0.5747
19860TIP3    H181071   0.169   2.571   6.236 -0.4767 -0.6117 -0.7826
19860TIP3    H281072   0.213   2.662   6.123 -0.9215  1.0901  0.4011
19861TIP3   OH281073   4.511   2.924  15.484 -0.6819 -0.2077 -0.3078
19861TIP3    H181074   4.511   2.838  15.525 -2.0221  0.4414  1.1391
19861TIP3    H281075   4.592   2.965  15.514 -0.4778 -0.6350 -0.2699
19862TIP3   OH281076   2.443   0.139  13.592  0.3093  0.5433  0.9201
19862TIP3    H181077   2.477   0.080  13.524  1.5273 -1.0740  2.8699
19862TIP3    H281078   2.504   0.213  13.592 -2.0641  2.6721 -2.5635
19863TIP3   OH281079   2.618   6.706  16.954 -0.6515  0.0789  0.2412
19863TIP3    H181080   2.663   6.782  16.917 -1.2959  0.4031  0.1083
19863TIP3    H281081   2.551   6.684  16.889  0.4078 -1.4436 -0.3519
19864TIP3   OH281082   2.229   1.171   4.370  0.9038 -0.2696 -0.6601
19864TIP3    H181083   2.179   1.245   4.335 -0.2997 -1.3628 -1.3347
19864TIP3    H281084   2.292   1.150   4.301 -1.0156 -1.9917 -1.9485
19865TIP3   OH281085   2.002   0.220  16.084  0.2993  0.2810  0.1212
19865TIP3    H181086   2.063   0.267  16.142  0.8382 -0.1732 -0.0725
19865TIP3    H281087   2.038   0.234  15.996  0.0576  0.1108 -0.0063
19866TIP3   OH281088   4.953   2.173  15.162 -0.1031 -0.1377 -0.0068
19866TIP3    H181089   5.042   2.183  15.127  0.3722  2.1520  1.7079
19866TIP3    H281090   4.950   2.083  15.195  1.9957  0.1246  0.9830
19867TIP3   OH281091   1.501   6.407   0.376 -0.0631  0.4243 -0.2269
19867TIP3    H181092   1.466   6.390   0.463  0.0108  1.9635  0.1234
19867TIP3    H281093   1.424   6.413   0.319 -0.2310  1.3830  0.0971
19868TIP3   OH281094   5.720   6.696  16.756  0.2406 -0.4655 -0.1246
19868TIP3    H181095   5.813   6.683  16.775 -0.3092 -1.9477  1.8112
19868TIP3    H281096   5.708   6.664  16.667  1.3659 -1.5111  0.0831
19869TIP3   OH281097   5.483   2.018   4.476  0.1061  0.5127  0.6613
19869TIP3    H181098   5.564   1.971   4.494 -0.3466 -0.4757  0.1458
19869TIP3    H281099   5.414   1.964   4.514 -0.3170  1.3717  1.1445
19870TIP3   OH281100   5.595   1.700   3.515 -0.2463  0.0777 -0.2392
19870TIP3    H181101   5.552   1.616   3.498  0.3234 -0.1613 -0.5472
19870TIP3    H281102   5.548   1.763   3.460  0.6920 -0.4410 -1.6867
19871TIP3   OH281103   2.666   6.555   0.663 -0.1461  0.1935 -0.1573
19871TIP3    H181104   2.659   6.503   0.582  0.4995  1.0737 -0.7927
19871TIP3    H281105   2.575   6.563   0.694 -0.4415  0.1111 -0.9715
19872TIP3   OH281106   5.551   2.713  13.767 -0.5796  0.0950  0.4575
19872TIP3    H181107   5.521   2.677  13.683 -1.8263  0.0473  0.9216
19872TIP3    H281108   5.631   2.664  13.786  1.1531  1.8770 -1.9738
19873TIP3   OH281109   4.753   2.852  12.897 -0.5074 -0.6408  0.3748
19873TIP3    H181110   4.752   2.827  12.990  1.5017  0.1199  0.6437
19873TIP3    H281111   4.710   2.937  12.894 -0.3595 -0.5540  0.6645
19874TIP3   OH281112   4.741   3.160   1.789  0.4155  0.1778 -0.9447
19874TIP3    H181113   4.722   3.067   1.791 -0.5772  0.3627 -1.3415
19874TIP3    H281114   4.814   3.169   1.728  3.0251 -0.7409  1.8834
19875TIP3   OH281115   3.858   6.774  11.133  0.1902  0.2895 -0.0718
19875TIP3    H181116   3.887   6.784  11.043 -1.0472 -0.5305 -0.5795
19875TIP3    H281117   3.938   6.775  11.185  0.9168  0.6467 -1.1870
19876TIP3   OH281118   0.591   5.363   1.283 -0.5122 -0.3981  0.1588
19876TIP3    H181119   0.672   5.326   1.318 -0.8116 -0.2837  1.0028
19876TIP3    H281120   0.563   5.301   1.216  0.9263  0.2048 -1.0044
19877TIP3   OH281121   6.555   2.368   0.334  0.2401  0.2520 -0.2186
19877TIP3    H181122   6.649   2.380   0.344  0.3865 -0.6453 -0.4101
19877TIP3    H281123   6.544   2.273   0.330 -0.4749  0.3862 -2.0931
19878TIP3   OH281124   1.073   6.037  15.218 -0.0614 -0.2688 -0.0139
19878TIP3    H181125   1.154   6.047  15.268 -0.8355  2.5894  0.7338
19878TIP3    H281126   1.099   6.055  15.127  0.4421 -1.0259 -0.0322
19879TIP3   OH281127   5.442   0.608   5.065 -0.6357  0.6700 -0.0262
19879TIP3    H181128   5.403   0.580   5.147  1.1059 -0.8574  0.3212
19879TIP3    H281129   5.526   0.647   5.090  0.2025 -0.3886 -1.1044
19880TIP3   OH281130   0.371   2.347  11.931 -0.6794 -0.0254 -0.0760
19880TIP3    H181131   0.343   2.372  11.843  0.3682 -0.3454 -0.4997
19880TIP3    H281132   0.462   2.375  11.936 -0.6272 -0.3451  0.7858
19881TIP3   OH281133   5.624   2.257  11.769 -0.6967  0.8498 -0.4701
19881TIP3    H181134   5.569   2.307  11.709  0.8185 -0.4800 -3.0704
19881TIP3    H281135   5.708   2.302  11.767 -0.3302  0.1784 -0.1456
19882TIP3   OH281136   2.467   5.332   4.926 -0.3670 -0.1173 -0.2023
19882TIP3    H181137   2.526   5.366   4.993  0.4570 -0.8760 -0.5318
19882TIP3    H281138   2.394   5.294   4.976 -1.1779  1.8622  0.1746
19883TIP3   OH281139   5.492   0.255  15.006  0.6698  0.2873  0.3421
19883TIP3    H181140   5.572   0.203  15.019  0.4296  0.3802  2.4116
19883TIP3    H281141   5.498   0.323  15.073 -1.4777 -0.1041  0.9517
19884TIP3   OH281142   5.570   4.649   3.927  0.2314 -0.0523  0.2981
19884TIP3    H181143   5.495   4.663   3.869  0.7177 -1.3209 -0.6462
19884TIP3    H281144   5.571   4.555   3.943  1.3120  0.0262  0.7418
19885TIP3   OH281145   3.044   1.676  15.924  0.4173  0.0386 -0.0756
19885TIP3    H181146   3.099   1.643  15.854 -0.3541  1.7461 -1.5301
19885TIP3    H281147   2.966   1.621  15.921  0.6265 -0.2474 -0.2056
19886TIP3   OH281148   4.116   2.702  14.829 -0.0554 -0.4700 -0.1345
19886TIP3    H181149   4.141   2.720  14.920 -1.1788 -0.2917  0.1485
19886TIP3    H281150   4.140   2.781  14.782  0.2648 -0.4519  0.0531
19887TIP3   OH281151   0.992   6.559   3.391  0.3487  0.0391  0.2819
19887TIP3    H181152   1.062   6.597   3.444  1.5487  0.1980 -1.3404
19887TIP3    H281153   0.923   6.537   3.453  1.9139 -0.2764  1.9527
19888TIP3   OH281154   3.201   5.549  16.795  0.0415 -0.0900 -0.0388
19888TIP3    H181155   3.130   5.560  16.858  0.6955 -1.1288  0.8865
19888TIP3    H281156   3.277   5.526  16.848  0.5950 -1.0242 -1.2079
19889TIP3   OH281157   6.678   0.522  12.894  0.1673  0.1996 -0.2434
19889TIP3    H181158   6.728   0.446  12.924 -3.0993 -2.4341 -1.1390
19889TIP3    H281159   6.740   0.595  12.899  2.5959 -1.9452  3.3297
19890TIP3   OH281160   3.254   1.025  15.397  0.1486  0.1477  0.3294
19890TIP3    H181161   3.283   0.934  15.394  1.0366  0.4049  0.8446
19890TIP3    H281162   3.285   1.063  15.314 -1.3291 -0.3370 -0.4555
19891TIP3   OH281163   2.605   2.839   2.526  0.0357  0.0999 -0.3402
19891TIP3    H181164   2.514   2.809   2.522 -0.3039  0.5378  2.7491
19891TIP3    H281165   2.602   2.920   2.577  2.0923  0.4053 -0.6456
19892TIP3   OH281166   4.458   0.424   5.888 -0.1533 -0.0427  0.6811
19892TIP3    H181167   4.400   0.350   5.871 -0.3011 -0.0136  1.0412
19892TIP3    H281168   4.546   0.389   5.872 -0.3001  0.0664 -0.3800
19893TIP3   OH281169   4.688   2.447   5.348 -0.4886 -0.1858  0.4697
19893TIP3    H181170   4.730   2.383   5.290 -0.2063 -0.4231  0.9358
19893TIP3    H281171   4.701   2.411   5.436  0.5828  1.0540  0.8227
19894TIP3   OH281172   1.460   2.762  15.878  0.3341 -0.4248  0.2628
19894TIP3    H181173   1.370   2.731  15.865  0.7932 -0.4493 -3.2963
19894TIP3    H281174   1.451   2.856  15.893 -0.2565 -0.2473 -1.0897
19895TIP3   OH281175   3.280   2.719   4.473  0.3385 -0.0415  0.8873
19895TIP3    H181176   3.371   2.692   4.460  0.1379 -1.3204  2.0635
19895TIP3    H281177   3.228   2.643   4.448 -0.4814  1.0167 -0.7577
19896TIP3   OH281178   6.663   4.544   0.715  0.2570  0.2092 -0.2971
19896TIP3    H181179   6.678   4.516   0.625 -0.0718  0.7726 -0.5295
19896TIP3    H281180   6.606   4.620   0.707  0.0649  0.1408  0.3995
19897TIP3   OH281181   4.086   2.414   2.827 -0.4135  0.3228  0.3467
19897TIP3    H181182   4.010   2.417   2.769 -1.6795  0.5611  1.9571
19897TIP3    H281183   4.066   2.479   2.895  0.1709 -1.2090  2.0330
19898TIP3   OH281184   4.203   4.415  12.503  0.6688 -0.1891  0.1227
19898TIP3    H181185   4.170   4.471  12.573  1.9098 -1.0770  1.4418
19898TIP3    H281186   4.291   4.450  12.484  0.7763 -0.6494 -0.2289
19899TIP3   OH281187   4.740   4.846   4.009 -0.0743  0.5547 -0.3083
19899TIP3    H181188   4.788   4.833   3.928  0.1027  0.8255 -0.2482
19899TIP3    H281189   4.665   4.786   4.003  0.2133  0.2131 -0.4475
19900TIP3   OH281190   4.307   1.188  14.100  0.5750  0.0319 -0.1124
19900TIP3    H181191   4.369   1.217  14.168 -0.8090  0.3192  1.0545
19900TIP3    H281192   4.221   1.195  14.142 -0.2753 -0.1049 -1.8009
19901TIP3   OH281193   0.027   0.419   1.892  0.2420 -0.3989  0.5371
19901TIP3    H181194  -0.024   0.498   1.911  0.3087 -0.6359  1.7495
19901TIP3    H281195  -0.010   0.386   1.810 -2.4874 -1.2976  2.0624
19902TIP3   OH281196   0.223   1.617   4.451 -0.4976  0.1243 -0.3360
19902TIP3    H181197   0.305   1.660   4.428  0.0966 -0.7471  0.1324
19902TIP3    H281198   0.159   1.653   4.390 -0.0512  1.8036  0.1556
19903TIP3   OH281199   2.678   4.393   3.945 -0.5703  0.2905  0.3100
19903TIP3    H181200   2.734   4.352   3.879  1.0868  0.3673  1.6080
19903TIP3    H281201   2.701   4.486   3.941 -1.2576  0.4545  0.2347
19904TIP3   OH281202   5.719   0.285   0.561 -0.1801  0.5068  0.5378
19904TIP3    H181203   5.769   0.362   0.532 -1.9654  1.9429  1.1282
19904TIP3    H281204   5.734   0.220   0.493  2.0889  1.0672  0.4674
19905TIP3   OH281205   6.309   3.172   5.840 -0.0835 -0.5144  0.3511
19905TIP3    H181206   6.234   3.200   5.787  0.0812  0.5541  0.6635
19905TIP3    H281207   6.361   3.117   5.782 -0.6997 -0.6137 -0.1137
19906TIP3   OH281208   4.352   6.741   3.047 -0.2231  0.4484 -0.0199
19906TIP3    H181209   4.356   6.676   3.116 -1.1761  0.9096  0.4777
19906TIP3    H281210   4.443   6.751   3.018  0.2161  0.4551  1.3546
19907TIP3   OH281211   3.802   3.553  12.521 -0.4745 -0.1831  0.9452
19907TIP3    H181212   3.752   3.634  12.510  0.6186  0.2824 -0.7638
19907TIP3    H281213   3.760   3.491  12.461  0.3370 -0.1005  0.2900
19908TIP3   OH281214   6.053   1.327   1.761  0.0764  0.3339 -0.4031
19908TIP3    H181215   6.054   1.404   1.704 -0.6071  0.1984 -0.6017
19908TIP3    H281216   6.027   1.255   1.704  0.9638 -0.0938 -0.2712
19909TIP3   OH281217   2.546   3.392   5.813  0.3838 -0.1195 -0.0093
19909TIP3    H181218   2.618   3.444   5.776  1.2657  1.3335  3.5013
19909TIP3    H281219   2.580   3.303   5.817  1.7265  0.4028  0.7973
19910TIP3   OH281220   2.300   1.148   1.838  0.9355 -0.0903 -0.2101
19910TIP3    H181221   2.380   1.111   1.801  2.2659  2.7449 -0.2767
19910TIP3    H281222   2.329   1.190   1.919 -1.0070 -1.4877  1.2475
19911TIP3   OH281223   0.459   0.581  11.897  0.0953  0.1867  0.0367
19911TIP3    H181224   0.386   0.581  11.835 -0.0507 -1.2885  0.1874
19911TIP3    H281225   0.512   0.656  11.872 -0.1836 -0.1501 -1.6186
19912TIP3   OH281226   4.864   4.403  13.848 -0.3406  0.4663  0.3334
19912TIP3    H181227   4.933   4.344  13.880  0.1584  0.5358 -0.5863
19912TIP3    H281228   4.911   4.467  13.794 -1.0097  1.1054  0.4972
19913TIP3   OH281229   0.893   3.519  15.663  0.2678 -0.3005  0.1183
19913TIP3    H181230   0.908   3.594  15.720  1.9024 -0.8272  0.4104
19913TIP3    H281231   0.830   3.550  15.598  0.2777  1.0520  0.7375
19914TIP3   OH281232   5.711   3.470   1.347  0.2881 -0.4766  0.4932
19914TIP3    H181233   5.731   3.397   1.405  0.1712 -0.5843  0.3974
19914TIP3    H281234   5.649   3.434   1.283  0.8952 -0.5302 -0.0707
19915TIP3   OH281235   1.436   3.478  12.952 -0.4998 -0.2984  0.1306
19915TIP3    H181236   1.343   3.492  12.933 -0.4156 -2.3579 -2.1018
19915TIP3    H281237   1.479   3.487  12.867  1.3297  0.4306  1.1207
19916TIP3   OH281238   5.582   4.095   2.762 -0.2294  0.5094  0.3296
19916TIP3    H181239   5.536   4.084   2.845  2.6895 -0.8481  1.8415
19916TIP3    H281240   5.640   4.020   2.756 -0.5281  0.4671 -3.0890
19917TIP3   OH281241   1.595   6.731   2.647  0.3495  0.4121 -0.2305
19917TIP3    H181242   1.567   6.821   2.665 -1.7604 -0.3334  0.3224
19917TIP3    H281243   1.550   6.707   2.566  1.0773 -0.0835 -0.4922
19918TIP3   OH281244   0.723   3.266   3.946 -0.4152  0.0234  0.1801
19918TIP3    H181245   0.637   3.262   3.903 -0.5628 -0.2857  0.5018
19918TIP3    H281246   0.765   3.343   3.908 -1.3380  0.9300  0.9586
19919TIP3   OH281247   6.288   6.593   0.151 -0.2563 -0.1793  0.6832
19919TIP3    H181248   6.302   6.509   0.194  3.5662 -0.3347 -0.7179
19919TIP3    H281249   6.239   6.572   0.072 -0.7050 -0.8600  1.1356
19920TIP3   OH281250   4.612   2.850   6.519  0.1072 -0.1493  0.1436
19920TIP3    H181251   4.586   2.781   6.580 -0.9622 -0.4342 -0.6169
19920TIP3    H281252   4.585   2.931   6.562  2.3402 -0.1012  1.5285
19921TIP3   OH281253   0.281   4.876  16.928 -0.3048  0.0038  0.7755
19921TIP3    H181254   0.265   4.897  17.020 -1.7406  2.7683 -0.0338
19921TIP3    H281255   0.366   4.915  16.909  0.1054 -0.7844  0.9985
19922TIP3   OH281256   3.644   3.545   1.349  0.0949 -0.2342 -0.1391
19922TIP3    H181257   3.557   3.554   1.388 -0.1953 -2.1465 -0.2953
19922TIP3    H281258   3.644   3.607   1.276 -1.0036  0.0361  0.0729
19923TIP3   OH281259   5.956   5.548  11.800 -0.1806 -0.7252 -0.3970
19923TIP3    H181260   5.945   5.478  11.865 -1.4715  0.4260  0.6460
19923TIP3    H281261   5.972   5.501  11.718 -0.0981 -2.2333  0.4464
19924TIP3   OH281262   4.295   4.463   3.771  1.2857 -0.6297 -0.6151
19924TIP3    H181263   4.380   4.447   3.813  1.4262 -0.7908 -0.9531
19924TIP3    H281264   4.314   4.533   3.708  0.7141  0.7611  0.7492
19925TIP3   OH281265   6.600   5.049   2.635 -0.2125  0.8516 -0.5888
19925TIP3    H181266   6.692   5.023   2.642 -0.3683  0.6701  0.9493
19925TIP3    H281267   6.562   4.984   2.576 -0.1810 -1.3776  1.7514
19926TIP3   OH281268   1.443   4.148  16.065 -0.2364  1.0217  0.4682
19926TIP3    H181269   1.409   4.223  16.113 -1.7121  1.4377 -1.1842
19926TIP3    H281270   1.385   4.139  15.990  1.0302 -0.6426 -0.3462
19927TIP3   OH281271   2.336   3.349  15.365  0.3148 -0.1641  0.4655
19927TIP3    H181272   2.326   3.403  15.443  0.1007 -0.0435  0.3517
19927TIP3    H281273   2.248   3.319  15.344 -0.1636  2.6631 -1.8075
19928TIP3   OH281274   3.848   3.395   3.316  0.1213  0.5576  0.4502
19928TIP3    H181275   3.930   3.384   3.268  0.3878  2.1205  0.5373
19928TIP3    H281276   3.785   3.427   3.251 -0.4013 -0.5310  0.4075
19929TIP3   OH281277   6.059   2.208  15.136 -0.2813 -0.6615  0.6122
19929TIP3    H181278   5.994   2.266  15.095 -0.5754 -1.0800  0.4859
19929TIP3    H281279   6.082   2.252  15.218  0.3026  0.1785  0.0113
19930TIP3   OH281280   3.716   0.251  11.859  0.4399  0.1245  0.5320
19930TIP3    H181281   3.746   0.232  11.771 -0.4981  1.1158 -0.0153
19930TIP3    H281282   3.778   0.315  11.893  0.0430  0.7384  0.1045
19931TIP3   OH281283   1.686   3.153  13.649  0.4057 -0.1496  0.3277
19931TIP3    H181284   1.699   3.203  13.569  0.5093  0.6472  0.8346
19931TIP3    H281285   1.596   3.121  13.644  0.7509 -0.9979 -0.5983
19932TIP3   OH281286   5.201   2.764  11.770 -0.5217 -0.0356  0.0049
19932TIP3    H181287   5.288   2.727  11.779 -0.5933  0.7422  4.9764
19932TIP3    H281288   5.215   2.850  11.731  0.9073  0.0244  0.6459
19933TIP3   OH281289   0.670   4.528   3.699 -0.4903  0.5300  0.0942
19933TIP3    H181290   0.753   4.569   3.673 -0.8283  1.4500  0.4600
19933TIP3    H281291   0.603   4.577   3.651 -0.7766 -0.7222 -0.8144
19934TIP3   OH281292   0.102   3.952   5.376 -0.2760 -0.2770 -0.1873
19934TIP3    H181293   0.027   3.899   5.405 -0.5625  2.2230  4.0348
19934TIP3    H281294   0.179   3.903   5.404 -0.4994  0.5260  1.8673
19935TIP3   OH281295   1.846   4.667  14.658  0.5596  0.1202  0.4308
19935TIP3    H181296   1.911   4.606  14.624 -1.5533 -1.8718 -0.1306
19935TIP3    H281297   1.851   4.658  14.753  1.4824  0.3957  0.4103
19936TIP3   OH281298   0.460   3.771   2.895  0.3336 -0.3800 -0.4660
19936TIP3    H181299   0.423   3.730   2.817 -1.1270 -1.8190  0.9723
19936TIP3    H281300   0.397   3.839   2.919  0.2132 -0.6876  0.1059
19937TIP3   OH281301   2.616   0.131   2.579  0.1153 -0.8177  0.2437
19937TIP3    H181302   2.683   0.067   2.602 -0.7982 -1.3630  1.4279
19937TIP3    H281303   2.546   0.117   2.643 -2.5098 -2.4165 -2.7903
19938TIP3   OH281304   2.053   4.760  15.498 -0.2195 -0.1964  0.2351
19938TIP3    H181305   2.063   4.803  15.583 -0.9067 -0.7221  0.5860
19938TIP3    H281306   2.104   4.679  15.507 -0.0905 -0.1352  0.0591
19939TIP3   OH281307   1.721   4.668  11.937 -0.8831 -0.3791 -0.1552
19939TIP3    H181308   1.726   4.764  11.928  0.9341 -0.4060  0.2795
19939TIP3    H281309   1.627   4.650  11.947 -1.5948  0.9815 -3.8375
19940TIP3   OH281310   3.551   4.654   1.258  0.1003 -0.0060 -0.3262
19940TIP3    H181311   3.578   4.742   1.283 -1.2627 -0.2200  2.0698
19940TIP3    H281312   3.628   4.599   1.273  0.4850  0.5335 -0.3556
19941TIP3   OH281313   1.794   0.466  14.956  0.2260  0.3887  0.0186
19941TIP3    H181314   1.748   0.441  14.875 -1.5840 -2.9359  1.9744
19941TIP3    H281315   1.746   0.543  14.987  2.4315  3.2531 -3.2110
19942TIP3   OH281316   5.664   3.847   2.070 -0.5454 -0.2292  0.2510
19942TIP3    H181317   5.606   3.921   2.050 -1.7823 -1.0299  0.7845
19942TIP3    H281318   5.721   3.840   1.994 -0.7140  0.9981  0.0005
19943TIP3   OH281319   3.058   6.577   2.600  0.0612 -0.4915  0.3553
19943TIP3    H181320   2.990   6.628   2.557 -0.1307 -0.2870  0.8974
19943TIP3    H281321   3.131   6.576   2.538 -0.5374 -0.9542 -0.3420
19944TIP3   OH281322   2.500   2.439   3.883  0.1459  0.4259  0.4122
19944TIP3    H181323   2.480   2.519   3.834  0.1519  0.9166  1.1993
19944TIP3    H281324   2.557   2.389   3.825 -1.6749 -0.0438 -1.0196
19945TIP3   OH281325   6.380   0.505  13.386 -0.3151  0.2211 -0.3837
19945TIP3    H181326   6.326   0.573  13.428  1.3118  0.5587  1.2262
19945TIP3    H281327   6.465   0.546  13.374  0.7962 -1.6564  0.9575
19946TIP3   OH281328   6.041   5.646   2.737 -0.3501 -0.4317  0.3706
19946TIP3    H181329   6.064   5.690   2.819  1.3393 -0.4376 -0.0975
19946TIP3    H281330   6.063   5.710   2.669  0.8334 -1.4927 -0.2403
19947TIP3   OH281331   6.225   6.346  15.276  0.3046 -0.1661 -0.4954
19947TIP3    H181332   6.254   6.258  15.300 -0.4684 -0.0414  0.9925
19947TIP3    H281333   6.133   6.349  15.302  0.3531  1.1227 -0.4192
19948TIP3   OH281334   0.732   1.832  12.563  0.2525  1.1321 -0.5879
19948TIP3    H181335   0.788   1.813  12.487 -0.1123  0.5685 -0.7103
19948TIP3    H281336   0.793   1.867  12.628  1.0832 -1.2468 -0.0317
19949TIP3   OH281337   0.172   1.646   6.548 -0.2147  0.0353 -0.3127
19949TIP3    H181338   0.188   1.617   6.458 -1.4606 -1.9171  0.0469
19949TIP3    H281339   0.101   1.709   6.541  1.4866  1.9071 -0.9609
19950TIP3   OH281340   1.764   1.918   2.445  0.4244 -0.1835 -0.0556
19950TIP3    H181341   1.702   1.904   2.517 -0.6525  0.0029 -0.9397
19950TIP3    H281342   1.741   2.004   2.410  0.4303 -0.6317 -1.1506
19951TIP3   OH281343   1.755   4.535   2.514 -0.2438 -0.0389 -0.8363
19951TIP3    H181344   1.671   4.526   2.559 -1.2753  1.2520 -2.4549
19951TIP3    H281345   1.776   4.629   2.521 -0.1161  0.0637 -2.5061
19952TIP3   OH281346   0.420   3.231   0.026  0.6898 -0.2039  0.1574
19952TIP3    H181347   0.378   3.199   0.105  0.6532 -2.5045 -0.7665
19952TIP3    H281348   0.503   3.183   0.020 -0.1877 -1.5204 -2.2165
19953TIP3   OH281349   6.532   3.041  13.501  0.6541  0.5934  0.0790
19953TIP3    H181350   6.456   2.986  13.519  0.7121  0.2388 -0.7381
19953TIP3    H281351   6.504   3.130  13.523  0.0006  0.4659 -0.2233
19954TIP3   OH281352   4.930   2.902  13.859 -0.4933  0.6675  0.0825
19954TIP3    H181353   4.969   2.904  13.772  1.9918  1.4383  1.1563
19954TIP3    H281354   4.898   2.813  13.870 -0.2707  0.4068 -1.3815
19955TIP3   OH281355   3.234   4.930   1.864 -0.5987  0.1790  0.1337
19955TIP3    H181356   3.317   4.926   1.912  0.0899 -0.6597 -1.0859
19955TIP3    H281357   3.199   5.016   1.883 -0.7250 -0.4182  2.7575
19956TIP3   OH281358   3.260   1.183  12.266  0.0923 -0.1236 -0.3758
19956TIP3    H181359   3.246   1.184  12.361  0.5705 -2.7026 -0.2600
19956TIP3    H281360   3.174   1.204  12.229 -0.3500 -0.1771  0.6000
19957TIP3   OH281361   3.385   0.788   3.065 -0.5327 -0.5571  0.5396
19957TIP3    H181362   3.471   0.819   3.091 -0.7091  0.9682 -0.6373
19957TIP3    H281363   3.401   0.701   3.028  0.5895 -0.0367 -0.2370
19958TIP3   OH281364   5.389   0.686   4.057  0.5917  0.3511 -0.4200
19958TIP3    H181365   5.467   0.666   4.005  1.3298 -1.3037  1.2865
19958TIP3    H281366   5.420   0.690   4.147 -1.3342 -0.4862  0.3030
19959TIP3   OH281367   6.743   0.629   4.523 -0.1990  0.2037  0.5404
19959TIP3    H181368   6.706   0.548   4.560  0.5173  0.2403  1.3253
19959TIP3    H281369   6.718   0.697   4.585 -0.3134  0.5083  0.1621
19960TIP3   OH281370   3.416   6.307   1.885  0.4134  0.2716  0.4060
19960TIP3    H181371   3.503   6.268   1.887 -0.7155 -2.3298  1.0687
19960TIP3    H281372   3.396   6.315   1.791 -0.1208 -2.7210  0.2057
19961TIP3   OH281373   5.538   3.918   1.606 -0.1994  0.2075 -0.3020
19961TIP3    H181374   5.457   3.939   1.653  1.1706  0.4205  2.0517
19961TIP3    H281375   5.605   3.971   1.649  1.6484 -1.9301 -0.4770
19962TIP3   OH281376   6.644   4.769   2.209  0.2421 -0.1445 -0.1307
19962TIP3    H181377   6.674   4.682   2.235  0.9311 -0.1603 -0.9525
19962TIP3    H281378   6.553   4.755   2.182  0.3218 -0.5910 -0.1730
19963TIP3   OH281379   3.401   5.219   4.830 -0.5963  0.0934 -0.4376
19963TIP3    H181380   3.440   5.260   4.908 -0.0691  0.9589 -1.1402
19963TIP3    H281381   3.446   5.261   4.757 -0.4890 -1.3158 -1.1952
19964TIP3   OH281382   2.460   3.844  16.824  0.3614  0.0372  0.2848
19964TIP3    H181383   2.541   3.856  16.873 -0.4028 -0.1710  1.6119
19964TIP3    H281384   2.458   3.751  16.803  0.6817  0.1254 -0.1625
19965TIP3   OH281385   1.572   2.648   0.146 -0.1075  0.0668  0.1712
19965TIP3    H181386   1.648   2.613   0.099 -0.2146  0.0351  0.0214
19965TIP3    H281387   1.575   2.606   0.232 -1.8456 -2.5256 -0.9644
19966TIP3   OH281388   1.920   6.140  12.344 -0.1485 -0.1477  0.1245
19966TIP3    H181389   1.881   6.138  12.256 -0.3799 -0.3285  0.2294
19966TIP3    H281390   1.845   6.141  12.403  0.0076 -0.0841  0.3206
19967TIP3   OH281391   2.132   2.241  13.562  0.2515  0.3663 -0.4015
19967TIP3    H181392   2.121   2.243  13.657 -0.7631 -0.0554 -0.5039
19967TIP3    H281393   2.200   2.307  13.545 -1.5460  2.4823  0.3684
19968TIP3   OH281394   5.414   5.504   3.186 -0.8316  0.1185  0.2703
19968TIP3    H181395   5.337   5.489   3.240 -1.4490  1.7875 -0.1122
19968TIP3    H281396   5.408   5.596   3.161  1.0676  0.1543 -0.1161
19969TIP3   OH281397   3.839   5.413  15.863 -0.2282  0.5178 -0.6272
19969TIP3    H181398   3.770   5.385  15.923 -0.1902 -0.3870 -1.0007
19969TIP3    H281399   3.860   5.502  15.891  0.9197 -0.4551  1.7090
19970TIP3   OH281400   6.377   3.571  15.475 -0.1055 -0.2255 -0.5321
19970TIP3    H181401   6.306   3.568  15.411 -0.5591  1.4448 -0.1364
19970TIP3    H281402   6.446   3.621  15.433 -0.0289  0.0480 -0.0867
19971TIP3   OH281403   2.783   2.751   2.320  0.2759  0.0878  0.3580
19971TIP3    H181404   2.743   2.711   2.242  1.5495  2.2607 -1.4867
19971TIP3    H281405   2.712   2.755   2.384 -1.2255 -0.2985 -1.2465
19972TIP3   OH281406   5.414   4.319   2.827 -0.2135  0.7210  0.0122
19972TIP3    H181407   5.422   4.401   2.777  0.5703 -0.0938 -1.2168
19972TIP3    H281408   5.383   4.255   2.764  0.8676 -0.3484  0.5351
19973TIP3   OH281409   0.508   5.896  13.415 -0.6114  0.6739 -0.1950
19973TIP3    H181410   0.495   5.846  13.495 -1.7942 -0.1519 -0.8912
19973TIP3    H281411   0.465   5.980  13.432  1.2876  1.4646  0.9337
19974TIP3   OH281412   5.171   0.199   2.041  0.4185  0.3653 -0.4929
19974TIP3    H181413   5.213   0.145   2.108  1.1044  2.0535  0.4871
19974TIP3    H281414   5.230   0.193   1.966  2.2366  2.3071  0.7005
19975TIP3   OH281415   5.083   3.596  14.802  0.0649 -0.1121  0.4955
19975TIP3    H181416   5.081   3.529  14.870 -0.3536  0.2921  0.8852
19975TIP3    H281417   5.069   3.678  14.849 -0.1899  0.1734 -0.0740
19976TIP3   OH281418   1.200   4.107  14.037 -0.4798  0.1156  0.3024
19976TIP3    H181419   1.288   4.100  13.999 -1.1654 -1.4652 -1.0710
19976TIP3    H281420   1.214   4.098  14.131  0.7461 -0.9554  0.0365
19977TIP3   OH281421   4.963   0.172  16.702  0.4882 -0.0250  0.0452
19977TIP3    H181422   4.957   0.236  16.772  0.4932  1.4471 -1.2753
19977TIP3    H281423   4.896   0.198  16.639  1.3434 -0.5567 -1.1022
19978TIP3   OH281424   0.282   6.642   5.711  0.2599  0.1829 -0.7456
19978TIP3    H181425   0.220   6.699   5.665  0.5748  0.4003 -0.9027
19978TIP3    H281426   0.291   6.567   5.653 -2.5405 -1.5014  0.8878
19979TIP3   OH281427   2.899   6.431   2.357 -0.4814  0.4769 -0.3213
19979TIP3    H181428   2.889   6.511   2.305  1.4383  0.1312 -1.2572
19979TIP3    H281429   2.967   6.453   2.421 -0.5531 -0.1391 -0.0329
19980TIP3   OH281430   3.309   4.877   3.607 -0.7556  0.4681 -0.3262
19980TIP3    H181431   3.217   4.881   3.581 -0.3652  0.4933 -1.7578
19980TIP3    H281432   3.321   4.950   3.668 -2.1068 -0.6321  1.2693
19981TIP3   OH281433   1.780   0.849  16.800 -0.3752 -0.1391 -0.0918
19981TIP3    H181434   1.846   0.784  16.779 -0.9868 -0.8314  0.0907
19981TIP3    H281435   1.697   0.801  16.795 -0.8687  0.7225 -0.3660
19982TIP3   OH281436   1.419   0.904  15.821 -0.2504  0.0450 -0.0792
19982TIP3    H181437   1.388   0.836  15.762  0.5566  0.6698 -1.2189
19982TIP3    H281438   1.507   0.925  15.791 -0.8917  2.3994 -0.4723
19983TIP3   OH281439   3.291   2.733   3.912 -0.2177  0.0288 -0.1010
19983TIP3    H181440   3.272   2.822   3.943  0.5141  0.0790  0.1992
19983TIP3    H281441   3.295   2.680   3.991 -0.5129 -0.2501 -0.2707
19984TIP3   OH281442   5.483   2.174   1.745  0.5887 -0.7761  0.3177
19984TIP3    H181443   5.528   2.098   1.708 -0.0798 -0.2850 -1.5940
19984TIP3    H281444   5.402   2.180   1.694  0.7749  1.3778  0.2435
19985TIP3   OH281445   2.475   5.832   5.127  0.2444  0.6091 -0.2682
19985TIP3    H181446   2.545   5.827   5.192 -0.2783  0.8017  0.3104
19985TIP3    H281447   2.447   5.923   5.128  0.7770  0.7855 -1.3421
19986TIP3   OH281448   3.857   2.771   5.834  0.3969  0.0190 -0.2559
19986TIP3    H181449   3.843   2.859   5.799  2.5966  0.9849  1.2108
19986TIP3    H281450   3.929   2.736   5.782 -2.3567 -2.1116 -2.8261
19987TIP3   OH281451   1.216   3.576  14.836 -0.5842  0.0812 -0.2095
19987TIP3    H181452   1.165   3.560  14.757 -3.0580 -2.8439  1.8097
19987TIP3    H281453   1.291   3.516  14.829 -0.4236  0.3407 -0.6766
19988TIP3   OH281454   6.621   6.422   3.390 -0.3959 -0.0015  0.1592
19988TIP3    H181455   6.642   6.411   3.297  2.7486 -1.2020  0.9350
19988TIP3    H281456   6.621   6.333   3.425 -1.0686  0.4762  1.3983
19989TIP3   OH281457   2.989   2.879  14.529 -0.0596 -0.2050 -0.0321
19989TIP3    H181458   3.059   2.919  14.580 -0.0178  0.5104 -0.6335
19989TIP3    H281459   2.924   2.853  14.594  0.5243 -0.3906  0.4810
19990TIP3   OH281460   4.452   6.251   5.328  0.0148  0.2274  0.8537
19990TIP3    H181461   4.414   6.303   5.399  1.2196  0.0162  1.6626
19990TIP3    H281462   4.546   6.253   5.343  0.1856 -1.0733  0.1267
19991TIP3   OH281463   4.877   2.128  15.931 -0.1740  0.1573 -0.1923
19991TIP3    H181464   4.805   2.065  15.927 -1.1936  1.2789  0.4073
19991TIP3    H281465   4.838   2.207  15.968  1.1003  1.1436 -0.9311
19992TIP3   OH281466   6.262   0.069   0.647  0.2669  0.4802 -0.6929
19992TIP3    H181467   6.243   0.034   0.560 -1.2785  0.6286 -0.4363
19992TIP3    H281468   6.212   0.151   0.651 -0.9011 -0.2827  0.8873
19993TIP3   OH281469   4.705   5.257   0.065  0.0140 -0.0925  0.1597
19993TIP3    H181470   4.712   5.352   0.055  1.6321 -0.3120 -1.1575
19993TIP3    H281471   4.637   5.231   0.003 -0.1167  0.1557  0.1995
19994TIP3   OH281472   1.955   0.683   4.836  0.0041  0.2039  0.1376
19994TIP3    H181473   2.037   0.635   4.830  0.2219  0.6491 -0.5344
19994TIP3    H281474   1.970   0.748   4.904 -0.2299 -0.5612  0.9203
19995TIP3   OH281475   4.803   2.574  15.090  0.5768 -0.5452  0.5328
19995TIP3    H181476   4.760   2.641  15.037  2.2514 -1.0510 -1.5498
19995TIP3    H281477   4.767   2.586  15.178 -1.0447  1.3978 -0.3465
19996TIP3   OH281478   2.999   0.740   3.830  0.5503  0.3626  0.1647
19996TIP3    H181479   2.997   0.704   3.741  0.6251 -0.6420  0.5623
19996TIP3    H281480   2.921   0.795   3.835 -0.4543 -1.0150  0.0621
19997TIP3   OH281481   5.064   0.371  10.613 -0.0109  0.1192  0.2357
19997TIP3    H181482   4.987   0.332  10.656 -0.7408 -0.5097 -1.5987
19997TIP3    H281483   5.032   0.401  10.528  1.7288  0.0151 -0.4856
19998TIP3   OH281484   4.383   1.040   4.947  0.1299  0.3073 -0.4440
19998TIP3    H181485   4.431   0.958   4.963  1.9268  1.1480 -1.4211
19998TIP3    H281486   4.311   1.014   4.889  2.8913  0.0033 -3.9323
19999TIP3   OH281487   2.795   6.608  11.951  0.1800  0.0403  0.0212
19999TIP3    H181488   2.800   6.579  11.860  0.7076  0.2602 -0.0238
19999TIP3    H281489   2.881   6.587  11.987 -0.0714 -0.1645  0.5050
20000TIP3   OH281490   6.026   5.531   4.160  0.1026  0.4215 -0.5794
20000TIP3    H181491   6.002   5.541   4.068  0.8187  2.3999 -0.5831
20000TIP3    H281492   6.094   5.464   4.161 -2.7486 -2.6064 -0.9903
20001TIP3   OH281493   3.833   5.442  13.501 -0.1108 -0.1825 -0.5463
20001TIP3    H181494   3.805   5.467  13.589 -0.1006  0.6593 -0.7816
20001TIP3    H281495   3.789   5.358  13.485 -0.3136 -0.2138  0.1583
20002TIP3   OH281496   2.826   2.445   6.567 -0.1008  0.5508  0.4720
20002TIP3    H181497   2.871   2.466   6.485 -0.8830  1.1616  0.1858
20002TIP3    H281498   2.806   2.352   6.561  0.9475  0.3172  0.5197
20003TIP3   OH281499   0.679   0.741   0.120 -0.3163 -0.1440  0.6872
20003TIP3    H181500   0.722   0.821   0.152 -0.6037  0.2147  0.1877
20003TIP3    H281501   0.656   0.693   0.199 -0.6612  0.5401  1.0091
20004TIP3   OH281502   2.482   4.913   4.139 -0.4108 -0.3095  0.2698
20004TIP3    H181503   2.412   4.849   4.131 -0.1857 -0.4122 -0.9084
20004TIP3    H281504   2.455   4.969   4.212 -0.8829 -1.3849  0.9392
20005TIP3   OH281505   5.319   2.745  14.543  0.0462  0.4196 -0.2551
20005TIP3    H181506   5.277   2.814  14.594  0.8435 -1.6587  3.4336
20005TIP3    H281507   5.408   2.778  14.526 -1.2253  2.4690 -3.1854
20006TIP3   OH281508   1.586   0.741  11.511  0.5627 -0.6593  0.3973
20006TIP3    H181509   1.602   0.834  11.524 -0.0290 -0.5718  0.5201
20006TIP3    H281510   1.543   0.713  11.592 -1.4751 -0.5042 -0.5960
20007TIP3   OH281511   0.389   6.327  12.771  0.0216  0.4138 -0.0333
20007TIP3    H181512   0.350   6.414  12.772  0.6906  0.7241 -1.1320
20007TIP3    H281513   0.371   6.293  12.684  0.1927 -0.3685  0.2297
20008TIP3   OH281514   2.860   1.827   1.515  0.8260  0.6673  0.2865
20008TIP3    H181515   2.773   1.822   1.476  0.5673  0.0598  0.9369
20008TIP3    H281516   2.889   1.736   1.523  2.3188  0.9188 -1.6710
20009TIP3   OH281517   0.783   1.320   0.426 -0.0401  0.6634  0.3071
20009TIP3    H181518   0.784   1.272   0.509  0.5302 -0.4374 -0.3259
20009TIP3    H281519   0.843   1.272   0.370  2.4456  3.4806  0.4114
20010TIP3   OH281520   6.716   3.229   1.067 -0.3327  0.3924  0.2556
20010TIP3    H181521   6.645   3.275   1.112 -0.6085 -1.4421  1.7302
20010TIP3    H281522   6.795   3.254   1.113 -0.5906 -1.3104  1.6694
20011TIP3   OH281523   3.083   6.435  15.235  0.0666  0.1406 -0.0665
20011TIP3    H181524   3.118   6.418  15.322 -0.1492  2.1333  0.4209
20011TIP3    H281525   3.160   6.458  15.183 -0.1508  1.7343  0.3059
20012TIP3   OH281526   4.796   1.814  14.336 -0.1795  0.1169  0.2193
20012TIP3    H181527   4.746   1.800  14.255 -0.1648  2.3407 -0.2131
20012TIP3    H281528   4.839   1.730  14.352  0.2081 -0.2425 -2.3753
20013TIP3   OH281529   4.546   4.535   1.803 -0.5344  0.5878 -0.0197
20013TIP3    H181530   4.606   4.482   1.751  0.4597  0.4553  1.2484
20013TIP3    H281531   4.594   4.617   1.819  0.0392 -0.1758  2.4553
20014TIP3   OH281532   2.510   6.306  12.280  0.6041  0.0401  0.2657
20014TIP3    H181533   2.594   6.352  12.271 -0.0684  1.3258  0.4581
20014TIP3    H281534   2.453   6.369  12.325 -0.2089 -1.1466  0.9109
20015TIP3   OH281535   4.798   2.333  14.704 -0.4253 -0.3621  0.0959
20015TIP3    H181536   4.809   2.428  14.713 -1.7191  0.0520 -2.3027
20015TIP3    H281537   4.710   2.316  14.737 -0.0556 -0.8064  0.8775
20016TIP3   OH281538   0.370   1.169   1.956 -0.1920 -0.3242  0.1083
20016TIP3    H181539   0.392   1.254   1.994  0.2988 -0.4842  0.1873
20016TIP3    H281540   0.275   1.170   1.948 -0.1129  0.6310 -0.8340
20017TIP3   OH281541   5.338   2.402   1.339  0.3970  0.7597  0.2682
20017TIP3    H181542   5.243   2.391   1.344  0.5954 -0.7968  0.8124
20017TIP3    H281543   5.359   2.389   1.247 -0.2310  4.0164 -0.4123
20018TIP3   OH281544   5.979   6.313   2.206  0.6152 -0.4409 -0.2518
20018TIP3    H181545   5.896   6.284   2.170  0.3477 -0.6345  0.5118
20018TIP3    H281546   6.041   6.303   2.134  0.3321 -1.9700 -0.2934
20019TIP3   OH281547   6.227   5.285   2.910 -0.0577 -0.0284  0.2402
20019TIP3    H181548   6.135   5.309   2.918  0.2020  1.0516  0.0758
20019TIP3    H281549   6.267   5.315   2.992 -0.1888 -2.1434  1.1125
20020TIP3   OH281550   2.831   1.290   3.943  0.2024 -0.2197 -0.5027
20020TIP3    H181551   2.872   1.255   3.864  0.9372 -2.6848  0.8980
20020TIP3    H281552   2.743   1.252   3.944 -0.3896  1.1076 -0.9523
20021TIP3   OH281553   5.955   0.222  16.474  0.7324  0.4136  0.8149
20021TIP3    H181554   5.878   0.270  16.444  1.1946  0.1983 -0.8180
20021TIP3    H281555   6.023   0.289  16.485  0.6167  0.4714  1.1536
20022TIP3   OH281556   0.252   1.894   6.626 -0.7946  0.4007 -0.3091
20022TIP3    H181557   0.242   1.799   6.633 -0.3612  0.4872  1.7615
20022TIP3    H281558   0.162   1.927   6.625 -0.9396  0.0387  0.2721
20023TIP3   OH281559   5.289   4.406  15.767 -0.8167  0.2337 -0.3114
20023TIP3    H181560   5.233   4.413  15.844 -1.0723 -1.0207 -0.3805
20023TIP3    H281561   5.292   4.495  15.731 -1.6607  0.5748  0.4645
20024TIP3   OH281562   1.027   6.006  15.632 -0.3164 -0.1602 -0.1983
20024TIP3    H181563   1.065   6.086  15.596 -0.4950  0.4607  0.9609
20024TIP3    H281564   0.937   6.004  15.598  0.8014 -1.8585 -3.3114
20025TIP3   OH281565   0.130   2.374  13.538 -0.3095 -0.0622  0.6439
20025TIP3    H181566   0.095   2.323  13.611 -0.4951  0.1799  0.7234
20025TIP3    H281567   0.056   2.424  13.505 -0.2302 -0.1852  0.2756
20026TIP3   OH281568   0.128   0.005   4.795  0.3647 -0.3588 -0.0958
20026TIP3    H181569   0.205   0.062   4.790  0.0161  0.1169 -0.0622
20026TIP3    H281570   0.141  -0.058   4.724  0.0669  0.6243 -1.0500
20027TIP3   OH281571   6.676   5.586   2.028  0.1608  0.0201 -0.3530
20027TIP3    H181572   6.687   5.507   1.975  0.2294 -1.4325  1.7553
20027TIP3    H281573   6.588   5.580   2.063  0.2993  0.6895  0.1291
20028TIP3   OH281574   0.840   2.313  15.390 -1.0296 -0.3403  0.3558
20028TIP3    H181575   0.911   2.292  15.451 -0.2014 -1.1167 -0.8669
20028TIP3    H281576   0.819   2.230  15.348 -1.4528  0.2387 -0.5795
20029TIP3   OH281577   6.226   0.520  14.207 -0.0155  0.3786 -0.0305
20029TIP3    H181578   6.297   0.569  14.166 -0.3566  0.7481 -0.1781
20029TIP3    H281579   6.147   0.548  14.161  0.0172 -1.7196 -1.4269
20030TIP3   OH281580   6.358   3.104  12.097 -0.1744  0.0611 -0.1682
20030TIP3    H181581   6.360   3.200  12.102 -0.5475  0.0464  0.2617
20030TIP3    H281582   6.308   3.077  12.174 -1.4344 -0.3980 -1.1211
20031TIP3   OH281583   1.539   6.616   6.553 -0.1560 -0.6837 -0.0132
20031TIP3    H181584   1.478   6.649   6.618  1.2004  1.3150  0.2721
20031TIP3    H281585   1.501   6.641   6.469 -0.8596 -1.4709  0.0540
20032TIP3   OH281586   5.589   1.857  15.135  0.0509  0.0014 -0.1493
20032TIP3    H181587   5.673   1.877  15.093  0.3818 -0.1155  0.4544
20032TIP3    H281588   5.527   1.916  15.093  0.7134  1.1418  0.4516
20033TIP3   OH281589   2.142   3.670  16.441 -0.7217  0.3862 -0.2358
20033TIP3    H181590   2.140   3.641  16.350  0.4076 -1.4885  0.3101
20033TIP3    H281591   2.204   3.743  16.442  0.3827 -0.5295 -0.7250
20034TIP3   OH281592   3.460   3.655  13.307  0.0340  0.0049 -0.0402
20034TIP3    H181593   3.375   3.621  13.335 -0.4691  1.0594 -0.2537
20034TIP3    H281594   3.446   3.684  13.217  0.7850 -0.3580 -0.2784
20035TIP3   OH281595   0.792   1.169   0.640 -0.4322  0.1291  0.8403
20035TIP3    H181596   0.814   1.091   0.589  1.0239  0.9273  0.2021
20035TIP3    H281597   0.839   1.157   0.722  0.4039  0.6852  0.4446
20036TIP3   OH281598   3.462   0.368  12.088 -0.3698  0.2442  0.5729
20036TIP3    H181599   3.507   0.432  12.032 -1.0030  1.0852  1.0288
20036TIP3    H281600   3.480   0.397  12.177 -1.5864  0.4285  0.7652
20037TIP3   OH281601   2.859   0.950  17.196 -0.0639  0.5558  0.9658
20037TIP3    H181602   2.834   0.956  17.288 -1.5757  1.2136  0.5140
20037TIP3    H281603   2.776   0.951  17.148  0.7630  1.4694 -0.4751
20038TIP3   OH281604   5.670   2.957  16.273 -0.4734  0.0722 -0.2291
20038TIP3    H181605   5.731   2.986  16.205  2.9152 -1.1099  2.1583
20038TIP3    H281606   5.653   3.035  16.326 -2.9375  0.9400 -2.1914
20039TIP3   OH281607   0.765   1.908  12.170  0.2984 -0.3287  0.4400
20039TIP3    H181608   0.833   1.877  12.230  0.4628  0.6980  0.7913
20039TIP3    H281609   0.734   1.829  12.126  3.3444 -0.5546 -1.4449
20040TIP3   OH281610   3.225   1.432  16.472  0.5237  0.6532  0.3612
20040TIP3    H181611   3.225   1.527  16.486  1.4433  0.7379 -0.1966
20040TIP3    H281612   3.251   1.395  16.556  0.3701  0.9068  0.5190
20041TIP3   OH281613   2.681   6.099  12.386  0.0994  0.0618 -0.0714
20041TIP3    H181614   2.608   6.160  12.396 -0.0915 -0.1263 -0.3093
20041TIP3    H281615   2.643   6.013  12.405 -0.0102 -0.1683 -1.3288
20042TIP3   OH281616   3.381   6.227  13.739  0.0470  0.3438  0.2034
20042TIP3    H181617   3.323   6.302  13.725 -1.5304 -0.8932 -0.1580
20042TIP3    H281618   3.368   6.172  13.662  1.3801 -0.1684  0.3350
20043TIP3   OH281619   3.701   1.247   5.341  0.0570  0.0990 -0.3480
20043TIP3    H181620   3.733   1.289   5.422 -1.0137  1.4395 -0.6049
20043TIP3    H281621   3.647   1.174   5.371 -0.2451  0.5253  0.1539
20044TIP3   OH281622   3.537   5.827  13.445  0.3381  0.0243  0.3679
20044TIP3    H181623   3.535   5.922  13.439  0.5046  0.1745  2.3573
20044TIP3    H281624   3.444   5.802  13.451  0.3386  0.1512  0.9472
20045TIP3   OH281625   0.188   0.795  17.255  0.0511 -0.4639  0.4541
20045TIP3    H181626   0.181   0.742  17.334 -0.0989 -0.5295  0.3983
20045TIP3    H281627   0.279   0.824  17.253  0.4561 -1.7285 -0.1568
20046TIP3   OH281628   3.297   1.345   0.324 -0.7668  1.2426  0.2656
20046TIP3    H181629   3.279   1.427   0.280  0.6826  0.8321 -1.1279
20046TIP3    H281630   3.248   1.279   0.274 -0.8794  1.0736  0.5947
20047TIP3   OH281631   6.425   6.185   6.267  0.2681  0.1411 -0.0924
20047TIP3    H181632   6.485   6.127   6.315  1.4004  0.9885 -0.4575
20047TIP3    H281633   6.369   6.223   6.335  1.9249  1.4072  0.5866
20048TIP3   OH281634   1.464   3.646  12.386  0.0881  0.2845  0.1660
20048TIP3    H181635   1.443   3.665  12.478 -0.2391 -0.8149  0.3315
20048TIP3    H281636   1.477   3.551  12.384  0.4510  0.3515 -0.8605
20049TIP3   OH281637   6.101   5.034  12.739 -0.0145  0.2040  0.3012
20049TIP3    H181638   6.181   5.084  12.724 -0.5929  1.6019  1.7100
20049TIP3    H281639   6.030   5.096  12.721 -0.7754 -0.7820 -0.1502
20050TIP3   OH281640   3.534   4.813  12.123  0.4107 -0.1313 -0.1642
20050TIP3    H181641   3.503   4.741  12.068 -0.6503  0.3850 -0.2606
20050TIP3    H281642   3.609   4.848  12.075  2.0962 -2.3127  0.7786
20051TIP3   OH281643   6.655   2.738   4.179 -0.4803 -0.1037  0.2833
20051TIP3    H181644   6.660   2.828   4.145  0.3163 -0.1042  0.3954
20051TIP3    H281645   6.745   2.716   4.201 -0.5762 -1.2041 -0.4210
20052TIP3   OH281646   2.899   3.150   6.410  0.5151  0.1586  0.1470
20052TIP3    H181647   2.951   3.132   6.488  1.2473 -0.5720 -0.4968
20052TIP3    H281648   2.946   3.105   6.339 -1.0843 -0.6526 -0.4123
20053TIP3   OH281649   2.307   5.864  16.767 -0.3654  0.1040 -0.0928
20053TIP3    H181650   2.219   5.894  16.743 -0.1848  0.5836 -0.1620
20053TIP3    H281651   2.344   5.831  16.685  0.4167  2.1543 -0.6015
20054TIP3   OH281652   2.478   4.691   3.389 -0.5188 -0.6819  0.4970
20054TIP3    H181653   2.476   4.652   3.302 -0.9287  0.5144 -0.0533
20054TIP3    H281654   2.386   4.697   3.415 -0.6293  1.6462 -0.2612
20055TIP3   OH281655   3.206   1.997   2.380 -0.1732 -0.2527  0.1310
20055TIP3    H181656   3.142   2.067   2.371  1.4949  1.6257  2.2248
20055TIP3    H281657   3.165   1.933   2.438 -1.0611 -0.2240 -0.4565
20056TIP3   OH281658   4.744   5.899   5.028 -0.2701 -0.0086 -0.0801
20056TIP3    H181659   4.674   5.883   4.965 -0.8045 -1.7649  0.9202
20056TIP3    H281660   4.698   5.912   5.111  0.5901 -1.9344  0.7263
20057TIP3   OH281661   6.181   3.874  11.542 -0.2630 -0.2590 -0.2149
20057TIP3    H181662   6.136   3.958  11.553 -0.9885 -0.4112 -1.8511
20057TIP3    H281663   6.115   3.816  11.503  0.6038 -1.2144 -0.2759
20058TIP3   OH281664   2.859   2.060   3.881 -0.1018  0.2838  0.5956
20058TIP3    H181665   2.867   2.150   3.850  1.1080  0.4095  1.2656
20058TIP3    H281666   2.800   2.066   3.957 -0.4651  0.4208  0.3083
20059TIP3   OH281667   0.691   5.019   6.280  0.7538 -0.0149 -0.1146
20059TIP3    H181668   0.762   4.990   6.337 -0.4312  0.1734  1.4973
20059TIP3    H281669   0.664   5.103   6.316 -2.3531 -1.5141  1.2495
20060TIP3   OH281670   5.119   4.592  15.211  0.2329  0.1078 -0.3702
20060TIP3    H181671   5.183   4.624  15.148  0.0228  1.0739 -0.0941
20060TIP3    H281672   5.109   4.663  15.274 -1.6814  0.2629 -0.8233
20061TIP3   OH281673   4.795   1.801  16.076  0.1576  0.2768  0.2754
20061TIP3    H181674   4.889   1.780  16.072  0.5003  1.3053  2.3236
20061TIP3    H281675   4.754   1.720  16.104  0.3711 -0.2875 -0.9898
20062TIP3   OH281676   0.704   2.097   2.551 -0.0004 -0.0768  0.1870
20062TIP3    H181677   0.656   2.177   2.574 -2.5572 -0.9942 -1.8585
20062TIP3    H281678   0.722   2.105   2.457  1.7018 -0.9248  0.4069
20063TIP3   OH281679   6.771   5.626   3.159  0.1435 -0.2419  0.7945
20063TIP3    H181680   6.691   5.665   3.194  0.6409  1.3870  0.1872
20063TIP3    H281681   6.834   5.629   3.231  1.2182  3.2556 -0.1471
20064TIP3   OH281682   0.351   6.505   4.129 -0.0280  0.0915 -0.5447
20064TIP3    H181683   0.418   6.437   4.124 -1.0784 -1.0186 -0.0398
20064TIP3    H281684   0.306   6.501   4.045 -2.5841 -2.5435  0.8337
20065TIP3   OH281685   0.786   6.248  16.964 -0.1671  0.5273  0.1791
20065TIP3    H181686   0.804   6.159  16.932 -0.8844  0.1391  0.8462
20065TIP3    H281687   0.856   6.301  16.926 -0.3508 -0.1287 -1.1097
20066TIP3   OH281688   6.397   6.575   6.135 -0.0226  0.2723 -0.7924
20066TIP3    H181689   6.460   6.638   6.102  0.3130  0.7768  0.7835
20066TIP3    H281690   6.449   6.513   6.186 -0.7267  0.3938  0.0818
20067TIP3   OH281691   3.153   4.087  11.884  0.5370 -0.2498  0.3519
20067TIP3    H181692   3.212   4.122  11.817 -0.5180  0.8211 -0.0495
20067TIP3    H281693   3.130   4.000  11.852 -0.4835  0.5079 -1.0349
20068TIP3   OH281694   1.601   3.537  17.260  0.4419 -0.8256  0.1068
20068TIP3    H181695   1.624   3.630  17.264  0.4283 -0.7591 -1.2177
20068TIP3    H281696   1.552   3.528  17.178  0.6219 -2.0439  0.1290
20069TIP3   OH281697   0.576   5.116  15.982  0.0507 -0.1306  0.3924
20069TIP3    H181698   0.627   5.193  15.957  2.0700 -0.6466  2.7243
20069TIP3    H281699   0.640   5.046  15.990 -1.7149 -1.9784 -1.2050
20070TIP3   OH281700   5.389   6.183  11.738 -0.4177 -0.2230 -0.5444
20070TIP3    H181701   5.411   6.249  11.672 -2.1566  1.8097  0.8184
20070TIP3    H281702   5.314   6.136  11.701 -0.1957 -0.3598 -0.8215
20071TIP3   OH281703   4.980   1.424  11.161  0.5942  0.3830  0.5187
20071TIP3    H181704   5.013   1.485  11.095  1.4281 -0.3576  0.2404
20071TIP3    H281705   5.056   1.369  11.183  0.1798  0.2525  1.6764
20072TIP3   OH281706   2.659   5.501  16.923 -0.3257  0.1342 -0.1812
20072TIP3    H181707   2.601   5.497  16.847 -0.4124 -0.1940 -0.0942
20072TIP3    H281708   2.712   5.422  16.917  2.5747  2.1343 -2.2147
20073TIP3   OH281709   3.835   6.373   3.162  0.1728 -0.4484  0.5969
20073TIP3    H181710   3.880   6.367   3.246  0.2993 -1.1856  0.4813
20073TIP3    H281711   3.768   6.440   3.175 -0.1182 -0.8976  1.4268
20074TIP3   OH281712   0.874   4.530   3.105  0.0239 -0.2607  0.2645
20074TIP3    H181713   0.915   4.545   3.019 -0.9672  1.6839  0.0908
20074TIP3    H281714   0.787   4.495   3.084 -0.1386  0.0162  0.4779
20075TIP3   OH281715   3.811   6.111   6.288 -0.0160 -0.2824  0.7383
20075TIP3    H181716   3.795   6.038   6.349 -1.7591  0.4440  1.1742
20075TIP3    H281717   3.749   6.179   6.315  0.0150  0.5001 -1.1105
20076TIP3   OH281718   1.064   5.892  13.200  0.4750 -0.4208  0.8005
20076TIP3    H181719   1.049   5.958  13.132  0.4492 -1.3167 -0.0761
20076TIP3    H281720   1.156   5.905  13.225  0.8874 -0.9937 -0.3906
20077TIP3   OH281721   2.686   4.853  15.854 -0.5169  0.1500 -0.2127
20077TIP3    H181722   2.737   4.934  15.864 -1.6572  0.8000  0.4871
20077TIP3    H281723   2.615   4.878  15.795 -1.9496  0.1828  1.4989
20078TIP3   OH281724   1.281   1.815  15.427  0.0689  0.3433 -0.1546
20078TIP3    H181725   1.268   1.895  15.377  0.6223 -0.3286 -1.3876
20078TIP3    H281726   1.211   1.757  15.397 -1.3437  0.8969  1.9122
20079TIP3   OH281727   2.088   0.641  16.432 -0.1413 -0.4793  0.1028
20079TIP3    H181728   2.181   0.639  16.412 -0.2269  0.7039 -0.4163
20079TIP3    H281729   2.062   0.549  16.432  1.0492 -0.8239  0.3772
20080TIP3   OH281730   2.154   1.268   0.990  0.0046  0.8362 -0.3466
20080TIP3    H181731   2.191   1.331   0.928 -0.0309  1.6436  0.4458
20080TIP3    H281732   2.112   1.322   1.057  0.5377 -0.0195  0.6891
20081TIP3   OH281733   2.085   2.832  15.721 -0.2279 -0.2860 -0.1566
20081TIP3    H181734   2.091   2.893  15.647 -1.5531  1.0001  0.7784
20081TIP3    H281735   2.142   2.871  15.788 -1.2689  0.0664  0.5292
20082TIP3   OH281736   1.019   5.857  12.850 -0.2777 -0.2587 -0.9203
20082TIP3    H181737   0.951   5.839  12.915 -0.9293  2.6875 -0.7322
20082TIP3    H281738   0.974   5.905  12.780  1.1830 -0.0565 -1.7516
20083TIP3   OH281739   6.753   2.982   3.284 -0.4204  0.2031  0.0476
20083TIP3    H181740   6.682   2.920   3.301  0.9209 -1.4392 -0.1000
20083TIP3    H281741   6.747   3.047   3.353 -0.7211 -1.1675  1.3339
20084TIP3   OH281742   4.896   1.716  15.451 -0.0848  0.5009  0.1246
20084TIP3    H181743   4.911   1.727  15.545 -1.9086 -0.6306  0.5881
20084TIP3    H281744   4.965   1.657  15.422  0.7323  1.1860  0.6692
20085TIP3   OH281745   3.314   4.463  14.378 -0.6420 -0.1150  0.3901
20085TIP3    H181746   3.230   4.499  14.348  0.0817  1.4135  0.1485
20085TIP3    H281747   3.378   4.533  14.360  0.7607 -1.4327  0.1396
20086TIP3   OH281748   6.358   1.029  13.840  0.1742 -0.0932  0.5986
20086TIP3    H181749   6.434   1.086  13.828 -0.0397 -0.3018 -1.8944
20086TIP3    H281750   6.283   1.088  13.840  0.1078 -0.1784  0.0653
20087TIP3   OH281751   3.918   3.393  14.839  0.2160  0.3647  0.5649
20087TIP3    H181752   3.838   3.439  14.811  1.4351  2.5434  0.5266
20087TIP3    H281753   3.903   3.302  14.816 -0.6569  1.3622 -3.1702
20088TIP3   OH281754   5.730   2.369   1.299  0.6224  0.3069  0.0128
20088TIP3    H181755   5.824   2.378   1.316  0.8578 -0.5863 -0.7736
20088TIP3    H281756   5.689   2.432   1.357  1.7206  0.7544  0.3113
20089TIP3   OH281757   4.516   2.968   3.352  0.1310  0.2411  0.2669
20089TIP3    H181758   4.479   2.899   3.408 -0.9077  0.7174  0.1936
20089TIP3    H281759   4.522   2.929   3.266 -0.0830  0.1053  0.3123
20090TIP3   OH281760   5.169   5.724   0.308 -0.5818  0.1472  0.0341
20090TIP3    H181761   5.190   5.798   0.251  1.3712  1.0757  1.8480
20090TIP3    H281762   5.251   5.674   0.312 -1.0051 -0.4701  1.1289
20091TIP3   OH281763   5.048   1.350  16.125 -0.0921 -0.0556 -0.5683
20091TIP3    H181764   5.069   1.354  16.218 -1.7813 -1.4080 -0.1045
20091TIP3    H281765   5.103   1.280  16.091  0.9027  0.7870 -0.6939
20092TIP3   OH281766   6.615   5.223   2.080  0.1027 -0.3588 -0.0552
20092TIP3    H181767   6.708   5.209   2.099  0.0949 -0.8646 -0.3853
20092TIP3    H281768   6.614   5.265   1.994  0.0903  0.9983  0.5957
20093TIP3   OH281769   4.810   0.859  13.839 -0.0034  0.4218  0.2914
20093TIP3    H181770   4.716   0.843  13.846 -0.6465  3.4104 -0.7674
20093TIP3    H281771   4.832   0.905  13.920  0.3757  0.4815  0.1526
20094TIP3   OH281772   5.143   2.343  13.131 -0.6565 -0.6735 -0.2781
20094TIP3    H181773   5.235   2.363  13.114 -1.2453  2.1309 -0.4660
20094TIP3    H281774   5.134   2.250  13.111  1.9627 -0.8015 -1.0022
20095TIP3   OH281775   2.915   2.501  14.493  0.2087  0.1361  0.5513
20095TIP3    H181776   2.980   2.521  14.560  0.8960 -2.3148  0.6939
20095TIP3    H281777   2.837   2.474  14.541  0.4427 -0.8466  0.4091
20096TIP3   OH281778   0.385   2.449  16.589  0.1046 -0.1983  0.2621
20096TIP3    H181779   0.307   2.394  16.583 -1.2669  1.8445 -1.3771
20096TIP3    H281780   0.381   2.504  16.511  3.5833 -0.5120 -0.1902
20097TIP3   OH281781   4.470   0.921   2.358  0.1342 -0.0574 -0.5196
20097TIP3    H181782   4.520   0.901   2.279 -0.9227 -1.6425 -0.8083
20097TIP3    H281783   4.387   0.873   2.347 -0.3239  0.2967  1.2065
20098TIP3   OH281784   1.229   0.786   5.676  0.0050  0.0053  0.2467
20098TIP3    H181785   1.248   0.766   5.584 -0.8219 -2.0054  0.4732
20098TIP3    H281786   1.151   0.842   5.672  0.0457  0.0308 -0.2874
20099TIP3   OH281787   6.012   4.645   4.820 -0.1964  0.4646 -0.0986
20099TIP3    H181788   6.000   4.610   4.732  1.0571 -1.7324  0.5663
20099TIP3    H281789   6.087   4.705   4.812 -0.3497  0.5974 -0.5868
20100TIP3   OH281790   4.168   5.351   4.130  0.6553  0.2909  0.3856
20100TIP3    H181791   4.089   5.405   4.141  0.1366 -0.0518 -1.3864
20100TIP3    H281792   4.212   5.355   4.215 -0.3215  2.0038  0.8508
20101TIP3   OH281793   4.398   0.806   5.109 -0.0336  0.1486  0.0034
20101TIP3    H181794   4.310   0.822   5.141 -0.0284  1.8327 -0.7630
20101TIP3    H281795   4.440   0.755   5.178 -0.8756  1.3557  1.4350
20102TIP3   OH281796   0.962   6.800  15.012 -0.2581 -0.4060 -0.8962
20102TIP3    H181797   0.902   6.787  15.086  0.1581 -0.0730 -0.4972
20102TIP3    H281798   0.919   6.867  14.958  0.3214  0.7214  0.0153
20103TIP3   OH281799   2.887   1.820  15.575  0.1686 -0.0623 -0.0024
20103TIP3    H181800   2.819   1.846  15.637  0.7650  1.5005  0.0118
20103TIP3    H281801   2.873   1.876  15.499  2.1611  1.0999  0.4679
20104TIP3   OH281802   0.327   3.579  14.314 -0.4131 -0.0303  0.3525
20104TIP3    H181803   0.273   3.551  14.387 -0.2119  1.8528  1.2703
20104TIP3    H281804   0.413   3.595  14.353  0.0354 -0.2282 -0.5396
20105TIP3   OH281805   0.140   1.592   1.414 -0.7930 -0.4879 -0.4968
20105TIP3    H181806   0.090   1.626   1.488 -0.1496 -0.0293 -0.2713
20105TIP3    H281807   0.136   1.497   1.423  1.9573 -0.4333  1.9260
20106TIP3   OH281808   5.456   5.526  12.124  1.0175  0.2397  0.3469
20106TIP3    H181809   5.546   5.551  12.143  2.4852 -2.5505 -2.4884
20106TIP3    H281810   5.442   5.444  12.172  0.1293  0.4589  0.4801
20107TIP3   OH281811   3.019   3.094   0.941  0.6466 -0.1974  0.3249
20107TIP3    H181812   2.953   3.037   0.982 -0.0154  0.5655  0.3308
20107TIP3    H281813   2.992   3.099   0.849  0.5494  0.3187  0.3802
20108TIP3   OH281814   0.995   4.768  13.831 -0.3669 -0.9374  0.2224
20108TIP3    H181815   1.055   4.800  13.899  1.6597 -1.7502 -1.1373
20108TIP3    H281816   0.969   4.847  13.784 -1.4104 -0.4227  1.6273
20109TIP3   OH281817   0.647   3.351   4.642 -0.2965  0.3442  0.2543
20109TIP3    H181818   0.587   3.344   4.568  0.8331 -0.1920 -0.6255
20109TIP3    H281819   0.590   3.364   4.718 -1.4772  0.6413 -0.6708
20110TIP3   OH281820   5.504   5.542  13.475  0.4496 -0.2329  0.0665
20110TIP3    H181821   5.411   5.557  13.492 -0.3295 -3.2383 -1.2054
20110TIP3    H281822   5.543   5.541  13.562 -0.7334  0.7574  0.6384
20111TIP3   OH281823   0.818   5.557  16.249  0.3337 -0.1148  0.1096
20111TIP3    H181824   0.784   5.574  16.161  0.3557  0.3863  0.1971
20111TIP3    H281825   0.742   5.570  16.307  1.0939  2.9010  0.5082
20112TIP3   OH281826   1.044   5.540   3.906  0.1690 -0.2661 -0.5763
20112TIP3    H181827   0.975   5.590   3.949  0.5784 -0.5109  0.3949
20112TIP3    H281828   1.000   5.496   3.833 -0.3599  0.8347 -0.9315
20113TIP3   OH281829   2.015   4.876   5.781  0.4241 -0.2417  0.3755
20113TIP3    H181830   1.949   4.815   5.747 -0.0400 -1.3857  3.1474
20113TIP3    H281831   1.969   4.924   5.850  2.5659 -1.2957  2.5845
20114TIP3   OH281832   1.652   6.147  13.414 -0.3841  0.1877 -0.5530
20114TIP3    H181833   1.631   6.236  13.387 -0.0299  0.2922 -0.4952
20114TIP3    H281834   1.571   6.113  13.451 -0.2816  0.8174  0.2852
20115TIP3   OH281835   4.486   1.720   3.094  0.0130  0.0050 -0.4831
20115TIP3    H181836   4.537   1.721   3.013  0.8669  1.6219  0.0626
20115TIP3    H281837   4.422   1.650   3.081  2.3843 -2.1001 -1.1565
20116TIP3   OH281838   0.571   3.185   5.802  0.0018 -0.2637  0.8076
20116TIP3    H181839   0.646   3.131   5.827  0.5484 -0.5762 -1.4416
20116TIP3    H281840   0.608   3.272   5.787 -0.4160  0.0567  1.5897
20117TIP3   OH281841   1.486   1.266  14.949  0.6396  0.3878 -0.0419
20117TIP3    H181842   1.392   1.254  14.966  0.7871 -0.2841  0.3359
20117TIP3    H281843   1.525   1.270  15.036  0.9185  1.0150 -0.1983
20118TIP3   OH281844   1.226   3.207   6.196  0.4167  0.5451  0.4492
20118TIP3    H181845   1.248   3.220   6.104  1.4018  1.8087  0.8450
20118TIP3    H281846   1.134   3.183   6.195  0.4095  0.5661 -0.8629
20119TIP3   OH281847   0.181   1.379  12.555  0.2750  0.3883  0.0739
20119TIP3    H181848   0.200   1.292  12.590  3.0233  1.4360  1.3336
20119TIP3    H281849   0.171   1.434  12.633 -1.1999  1.2694 -0.7175
20120TIP3   OH281850   4.817   0.109   4.805  0.1414 -0.5366  0.1969
20120TIP3    H181851   4.834   0.179   4.868  0.3406 -0.9262  0.5759
20120TIP3    H281852   4.733   0.132   4.767 -0.8395 -1.2431  1.8869
20121TIP3   OH281853   0.472   1.939  17.149  0.0184  0.2495 -0.5326
20121TIP3    H181854   0.415   1.868  17.179  1.5159 -1.9828 -2.7522
20121TIP3    H281855   0.557   1.918  17.187  0.3604  1.1160 -0.8187
20122TIP3   OH281856   5.187   3.704  11.251  0.5321  0.2685 -0.0175
20122TIP3    H181857   5.119   3.758  11.291 -0.6278 -0.2275 -1.2811
20122TIP3    H281858   5.253   3.694  11.319 -0.4685  1.1063  1.0936
20123TIP3   OH281859   1.131   2.550  14.462  0.0350 -0.1767 -0.0011
20123TIP3    H181860   1.140   2.603  14.383  0.0729 -0.1126  0.0466
20123TIP3    H281861   1.199   2.483  14.453  0.2731  0.0454  0.1454
20124TIP3   OH281862   2.369   6.640   1.120 -0.0320  0.6304 -0.0917
20124TIP3    H181863   2.391   6.574   1.054  0.0617 -0.0487  0.6151
20124TIP3    H281864   2.454   6.671   1.151 -0.0619  1.7117 -1.0247
20125TIP3   OH281865   0.349   5.899  14.495 -0.6757 -0.2504 -0.1428
20125TIP3    H181866   0.271   5.868  14.541  0.0324 -0.4082  0.9653
20125TIP3    H281867   0.414   5.913  14.564  0.0114  0.6972 -0.9661
20126TIP3   OH281868   4.469   2.475   1.654  0.0772 -0.0243 -0.1821
20126TIP3    H181869   4.524   2.412   1.607  1.1127  1.5964 -1.1624
20126TIP3    H281870   4.530   2.543   1.683 -1.1035  0.7633  0.4987
20127TIP3   OH281871   1.421   6.148  11.244 -0.4844 -0.8180 -0.3110
20127TIP3    H181872   1.381   6.234  11.251  2.4737  0.6740 -1.1126
20127TIP3    H281873   1.394   6.116  11.158 -1.2487 -0.5509 -0.1769
20128TIP3   OH281874   3.660   0.466   3.261  0.6961  0.0762 -0.2483
20128TIP3    H181875   3.634   0.470   3.353  0.3480 -1.7279 -0.2505
20128TIP3    H281876   3.580   0.444   3.213  1.0983 -0.0923 -0.8603
20129TIP3   OH281877   5.645   4.982   2.429 -0.0503 -0.2752  1.2673
20129TIP3    H181878   5.563   4.994   2.476  1.0716  0.4464  3.0940
20129TIP3    H281879   5.650   5.056   2.369 -1.2926 -0.9815  0.2598
20130TIP3   OH281880   4.220   1.735  12.111  0.1500 -0.0090  0.1565
20130TIP3    H181881   4.204   1.723  12.018 -0.7097 -0.3216  0.3463
20130TIP3    H281882   4.312   1.711  12.123 -0.2607 -1.8515 -0.2786
20131TIP3   OH281883   4.227   5.458  16.719  0.1951  0.5531  0.0807
20131TIP3    H181884   4.265   5.438  16.634  0.8190 -1.2554  0.7648
20131TIP3    H281885   4.302   5.469  16.778 -0.2615  0.6426  0.6584
20132TIP3   OH281886   5.033   5.569   0.112 -0.0624  0.2669 -0.2287
20132TIP3    H181887   5.066   5.636   0.172  0.3999  1.6128 -1.9599
20132TIP3    H281888   4.937   5.577   0.118 -0.0185  0.4569  0.2466
20133TIP3   OH281889   5.316   5.482  13.265 -0.4023 -0.0499 -0.7364
20133TIP3    H181890   5.310   5.432  13.346  0.4131 -1.1290 -1.3283
20133TIP3    H281891   5.404   5.463  13.231 -0.0063  1.9289 -0.8827
20134TIP3   OH281892   0.111   2.071   5.347 -0.4646  0.2573  0.5109
20134TIP3    H181893   0.092   2.007   5.416 -2.2729  0.0873 -0.1223
20134TIP3    H281894   0.206   2.082   5.350 -0.1012 -2.5603  0.5615
20135TIP3   OH281895   3.909   0.966   5.693 -0.2201  0.5950 -0.1849
20135TIP3    H181896   3.999   0.935   5.694 -0.1895  0.6883  0.1562
20135TIP3    H281897   3.858   0.891   5.661 -0.1716  0.1227  0.8176
20136TIP3   OH281898   3.928   2.024  14.603  0.1782 -0.1826  0.0874
20136TIP3    H181899   4.015   1.991  14.625  0.2398  0.6594  1.2023
20136TIP3    H281900   3.878   1.947  14.578  0.2046 -1.2236  3.0186
20137TIP3   OH281901   0.118   6.232  15.048  0.4642  0.4427  0.0245
20137TIP3    H181902   0.090   6.185  14.970  2.7853 -2.3408  0.7903
20137TIP3    H281903   0.055   6.208  15.116 -0.3797  1.2533 -0.4682
20138TIP3   OH281904   2.649   0.752   2.691 -0.3292  0.1232 -0.2365
20138TIP3    H181905   2.684   0.667   2.716 -0.2535 -0.0157 -0.8137
20138TIP3    H281906   2.723   0.812   2.700 -0.1989  0.0034 -0.5181
20139TIP3   OH281907   2.581   0.124  11.265 -0.0652  0.0089  1.0283
20139TIP3    H181908   2.670   0.103  11.239  0.5225  1.4956  1.7670
20139TIP3    H281909   2.563   0.065  11.339 -0.4664 -1.7356 -0.4299
20140TIP3   OH281910   1.606   0.358  12.395  0.1011 -0.5384 -0.2072
20140TIP3    H181911   1.531   0.342  12.337  1.0076  0.0262 -1.5430
20140TIP3    H281912   1.679   0.378  12.336  1.3423 -1.1959  1.0829
20141TIP3   OH281913   2.460   5.448   2.067 -0.6683  0.2241 -0.1903
20141TIP3    H181914   2.397   5.513   2.035 -1.5269 -0.3209  0.3983
20141TIP3    H281915   2.486   5.399   1.990 -2.2541 -0.6689 -0.1622
20142TIP3   OH281916   1.752   1.776   6.118 -0.8888 -0.2829 -0.2250
20142TIP3    H181917   1.815   1.720   6.072 -0.5218  0.2668 -0.3926
20142TIP3    H281918   1.790   1.789   6.204 -1.3058 -0.8468  0.0502
20143TIP3   OH281919   0.128   5.770   6.285  0.0856  0.3881 -0.4950
20143TIP3    H181920   0.178   5.851   6.299  0.8353 -0.2200  0.4310
20143TIP3    H281921   0.040   5.791   6.316  0.5032  0.5806  0.5910
20144TIP3   OH281922   0.723   0.985   0.279  0.5749 -0.0308  0.0290
20144TIP3    H181923   0.759   1.071   0.258  1.2664 -0.1214  0.8091
20144TIP3    H281924   0.770   0.958   0.358 -0.5335 -0.5682  0.5147
20145TIP3   OH281925   0.616   2.612   2.928 -0.0651 -0.2229 -0.0416
20145TIP3    H181926   0.593   2.653   3.012  1.8606  1.2587 -0.2211
20145TIP3    H281927   0.541   2.556   2.909 -2.0779  2.0041  0.9907
20146TIP3   OH281928   3.051   1.080  16.528 -0.0109  0.7827 -0.4526
20146TIP3    H181929   3.139   1.099  16.496  0.0418  0.9522 -0.2175
20146TIP3    H281930   3.064   1.011  16.593 -0.0893  0.5894 -0.6438
20147TIP3   OH281931   4.907   0.048  13.081 -0.2776  0.4089  0.0456
20147TIP3    H181932   4.974   0.033  13.147 -0.5716  0.1276  0.2789
20147TIP3    H281933   4.956   0.072  13.002  0.0137  2.5718  0.8422
20148TIP3   OH281934   4.016   2.848   2.909  0.4614  0.2023 -0.4687
20148TIP3    H181935   4.026   2.889   2.994 -1.1859  2.2423 -1.2377
20148TIP3    H281936   3.968   2.766   2.927  1.2240  0.0052  0.6937
20149TIP3   OH281937   4.718   3.955  15.368 -0.5504 -0.4296  0.1373
20149TIP3    H181938   4.708   4.040  15.413 -4.6845 -1.4954  1.4348
20149TIP3    H281939   4.740   3.894  15.438  1.0275 -0.7001 -0.5833
20150TIP3   OH281940   4.125   6.462   4.141  0.3916 -0.4315  0.2244
20150TIP3    H181941   4.121   6.514   4.222 -1.5976 -0.2447  0.0356
20150TIP3    H281942   4.141   6.373   4.171  0.7358 -0.1919  0.7607
20151TIP3   OH281943   1.455   0.063  13.722 -0.1361  0.0527 -0.2515
20151TIP3    H181944   1.427   0.031  13.808  0.3176 -0.1418 -0.1734
20151TIP3    H281945   1.529   0.007  13.699  0.2623  0.6426 -0.4001
20152TIP3   OH281946   3.909   5.589   3.154  0.4309 -0.0752  0.2933
20152TIP3    H181947   3.943   5.615   3.240  3.2132 -0.6226 -0.5959
20152TIP3    H281948   3.895   5.671   3.107 -2.1830  0.2850  1.6209
20153TIP3   OH281949   4.602   6.754  11.465 -0.1754  0.6722 -0.4494
20153TIP3    H181950   4.680   6.706  11.492 -0.1585  0.3749 -1.0441
20153TIP3    H281951   4.573   6.712  11.384 -1.6004  0.0500  0.3574
20154TIP3   OH281952   6.342   5.397   0.880  0.1303 -0.1896  0.0580
20154TIP3    H181953   6.403   5.438   0.819 -2.4168  0.9712 -1.8436
20154TIP3    H281954   6.356   5.303   0.869  0.6934  0.0475 -1.3153
20155TIP3   OH281955   4.599   3.948   3.837 -0.2910  0.1578  0.0858
20155TIP3    H181956   4.520   3.903   3.808 -1.1188  0.6399  1.5578
20155TIP3    H281957   4.625   3.902   3.917  1.5734 -0.7177 -0.9904
20156TIP3   OH281958   6.037   1.281   2.936  0.4908 -0.5988 -0.1465
20156TIP3    H181959   6.074   1.233   2.862 -0.0636 -0.2130 -0.6775
20156TIP3    H281960   5.970   1.337   2.897  1.8916  1.4280  0.2993
20157TIP3   OH281961   5.663   1.289  16.894  0.4003 -0.9304 -0.1671
20157TIP3    H181962   5.608   1.264  16.968  0.8012 -1.4269 -0.0334
20157TIP3    H281963   5.688   1.206  16.854 -0.5494 -0.6334 -1.4025
20158TIP3   OH281964   4.601   5.881   5.294 -0.0161  0.4449 -0.2261
20158TIP3    H181965   4.598   5.799   5.245 -0.1761  0.1387  0.2993
20158TIP3    H281966   4.683   5.877   5.343 -1.0180 -0.3273  1.4096
20159TIP3   OH281967   2.041   6.148   2.460  0.3397  0.6656  0.1197
20159TIP3    H181968   2.099   6.210   2.504  0.2221  0.1049  1.0828
20159TIP3    H281969   2.021   6.083   2.527 -0.4943  0.2402 -0.5390
20160TIP3   OH281970   0.422   2.049  13.975  0.3705  0.1630  0.5195
20160TIP3    H181971   0.353   1.984  13.964  0.1695  0.2826  1.0539
20160TIP3    H281972   0.421   2.070  14.068  0.1011  1.3033  0.2637
20161TIP3   OH281973   5.202   3.028  11.819  0.1115 -0.1650  0.4602
20161TIP3    H181974   5.108   3.042  11.830  0.0351  0.7417 -1.2324
20161TIP3    H281975   5.232   3.104  11.770  1.5336 -0.9517  0.0839
20162TIP3   OH281976   3.018   0.164   4.110 -0.2299 -0.0096  0.0979
20162TIP3    H181977   3.028   0.078   4.070 -0.3283  0.2827 -0.5639
20162TIP3    H281978   2.972   0.216   4.044 -1.0242  0.2756  0.8691
20163TIP3   OH281979   3.571   4.340  17.089  0.1540  0.2530  0.3788
20163TIP3    H181980   3.594   4.433  17.089 -1.7094  0.7454 -2.1363
20163TIP3    H281981   3.518   4.329  17.168 -1.8261  1.9059 -0.7037
20164TIP3   OH281982   4.749   4.868  16.214  0.2985  0.1465 -0.0864
20164TIP3    H181983   4.752   4.880  16.309 -0.8390 -1.9844  0.2440
20164TIP3    H281984   4.656   4.868  16.193  0.4129 -2.5977 -0.7470
20165TIP3   OH281985   6.198   6.229   1.602  0.6192 -0.0281 -0.0729
20165TIP3    H181986   6.147   6.273   1.669  2.3842  0.3468  1.0719
20165TIP3    H281987   6.211   6.140   1.636  0.8327 -0.0777 -0.2778
20166TIP3   OH281988   6.006   3.298   0.217 -0.1348  0.1441  0.0663
20166TIP3    H181989   5.999   3.393   0.217  0.0685  0.1601  0.2309
20166TIP3    H281990   5.919   3.268   0.244 -0.7312  0.2304 -1.6835
20167TIP3   OH281991   3.456   2.597   1.067  0.1465 -0.0313 -0.5340
20167TIP3    H181992   3.499   2.644   0.996  0.7149  0.0969 -0.1082
20167TIP3    H281993   3.391   2.658   1.101  0.3380  0.1513 -0.4999
20168TIP3   OH281994   1.277   3.712   1.831  0.2435  0.5045  0.0402
20168TIP3    H181995   1.321   3.796   1.822 -0.4664  1.0760  1.7127
20168TIP3    H281996   1.287   3.690   1.924 -1.4166 -0.2270  0.0620
20169TIP3   OH281997   0.032   2.935  13.135 -0.5217  0.6549 -0.1675
20169TIP3    H181998  -0.005   3.016  13.101 -0.0079  0.3907 -1.4090
20169TIP3    H281999  -0.006   2.867  13.079  2.4207  0.4496 -2.0149
20170TIP3   OH282000   4.482   6.696   5.980 -0.3982  0.5287  0.0424
20170TIP3    H182001   4.448   6.762   5.919 -0.0202  1.5983  0.9705
20170TIP3    H282002   4.440   6.715   6.063  1.4237  1.0371  0.8775
20171TIP3   OH282003   2.492   2.367   6.722 -0.5980  0.3305 -0.1066
20171TIP3    H182004   2.417   2.365   6.781 -0.3561  0.0144  0.1939
20171TIP3    H282005   2.546   2.440   6.755  0.9598 -1.6262  1.8486
20172TIP3   OH282006   2.787   3.590   3.023 -0.3675  0.1162 -0.7476
20172TIP3    H182007   2.849   3.584   2.951  1.7649  0.7351  0.9699
20172TIP3    H282008   2.836   3.559   3.099 -1.9023  1.4029  0.8084
20173TIP3   OH282009   3.475   1.538  12.685  0.0946 -0.3898  0.1432
20173TIP3    H182010   3.409   1.602  12.712  0.2483 -0.4697  0.7221
20173TIP3    H282011   3.426   1.459  12.665 -0.1841  0.1867 -1.4612
20174TIP3   OH282012   4.457   4.547  12.512 -0.2552  0.0275 -0.6196
20174TIP3    H182013   4.437   4.634  12.545 -0.4610  0.0448 -0.7874
20174TIP3    H282014   4.493   4.562  12.424  1.7387  0.0952  0.1633
20175TIP3   OH282015   1.417   6.808  15.273  0.0697 -0.1551 -0.0614
20175TIP3    H182016   1.377   6.791  15.187  1.6047 -2.3567 -0.3658
20175TIP3    H282017   1.395   6.732  15.326  0.7091  0.3528  0.9481
20176TIP3   OH282018   0.395   1.213  15.278 -0.7577  0.0262 -0.2796
20176TIP3    H182019   0.321   1.203  15.337 -0.5899 -1.5647 -0.3235
20176TIP3    H282020   0.460   1.263  15.328 -1.6380  0.9696 -0.0629
20177TIP3   OH282021   5.869   3.202   5.796 -0.4783  0.0162  0.6081
20177TIP3    H182022   5.850   3.243   5.880 -0.9070  2.5993 -0.6990
20177TIP3    H282023   5.784   3.189   5.754 -0.2306 -0.6268  0.2893
20178TIP3   OH282024   4.044   1.863   2.080 -0.5443 -0.2458  0.4147
20178TIP3    H182025   4.065   1.769   2.083  2.6750  0.4192  0.2065
20178TIP3    H282026   4.093   1.896   2.005 -3.5977  1.2060 -1.0469
20179TIP3   OH282027   3.662   5.389  16.107  0.1936  0.1285 -0.1540
20179TIP3    H182028   3.687   5.461  16.166  0.2020  0.0091 -0.0107
20179TIP3    H282029   3.631   5.320  16.165 -0.8383  0.4159 -0.3518
20180TIP3   OH282030   4.937   5.555   4.135  0.0678  0.2184  0.1704
20180TIP3    H182031   4.933   5.552   4.230 -2.4958  0.8101  0.1115
20180TIP3    H282032   4.945   5.464   4.108 -0.4048 -0.0523  0.9248
20181TIP3   OH282033   0.649   5.263  16.904  0.3089  0.5602  0.0528
20181TIP3    H182034   0.597   5.183  16.906  0.5502  0.3080 -2.1542
20181TIP3    H282035   0.588   5.333  16.925 -0.3197 -0.0197  0.1523
20182TIP3   OH282036   2.539   4.286   4.181 -0.3327 -0.5376  0.0347
20182TIP3    H182037   2.581   4.305   4.097  1.1076  0.0209  0.8553
20182TIP3    H282038   2.531   4.371   4.224  1.1534 -1.0809  1.4588
20183TIP3   OH282039   6.129   5.378   3.178  0.2283 -0.4530 -0.1306
20183TIP3    H182040   6.127   5.293   3.221 -3.0667 -0.8846 -0.9982
20183TIP3    H282041   6.073   5.367   3.101  0.1192  2.3637 -0.4946
20184TIP3   OH282042   4.587   2.205   4.756  0.5781 -0.1026 -0.3096
20184TIP3    H182043   4.573   2.188   4.849  2.6517 -1.5914 -0.2451
20184TIP3    H282044   4.539   2.134   4.712 -1.2169  1.1537 -0.4405
20185TIP3   OH282045   2.518   1.517  13.890  0.1301  0.2533 -0.1803
20185TIP3    H182046   2.431   1.501  13.855 -0.8353  0.9599  1.8379
20185TIP3    H282047   2.538   1.438  13.942  1.1397 -0.3631 -1.4789
20186TIP3   OH282048   0.598   0.870   4.345  0.2512 -0.2311 -0.4641
20186TIP3    H182049   0.595   0.884   4.439 -2.8098  1.9688 -0.8361
20186TIP3    H282050   0.507   0.863   4.318  1.0543 -0.5479 -3.3137
20187TIP3   OH282051   3.165   6.042  16.557  0.0007  0.3213 -0.2141
20187TIP3    H182052   3.254   6.074  16.542  0.2209  0.4132  1.2247
20187TIP3    H282053   3.164   6.018  16.650 -1.4723  0.3242 -0.2247
20188TIP3   OH282054   2.802   2.810  14.729 -0.4695 -0.4043  0.0098
20188TIP3    H182055   2.805   2.844  14.818  1.2045 -1.8433  0.5295
20188TIP3    H282056   2.715   2.835  14.697 -0.3343  1.8642  1.3201
20189TIP3   OH282057   2.156   4.039   2.856 -0.0773  0.0648  0.1666
20189TIP3    H182058   2.231   4.034   2.916 -0.5820  1.0626  0.8894
20189TIP3    H282059   2.166   3.962   2.800 -0.4814 -1.8145  2.5950
20190TIP3   OH282060   2.015   0.878  11.787 -0.2175 -0.5877 -0.0681
20190TIP3    H182061   2.004   0.835  11.872  0.1923  0.4289  0.5218
20190TIP3    H282062   2.073   0.820  11.738 -1.0518 -1.5522  0.0670
20191TIP3   OH282063   4.422   4.970   0.160 -0.1907  1.0132 -0.7528
20191TIP3    H182064   4.380   4.987   0.076 -1.4796  1.4630 -0.0334
20191TIP3    H282065   4.418   4.875   0.170 -2.0001  1.1352 -0.2169
20192TIP3   OH282066   6.338   3.475   5.391 -0.5339  0.2028  0.1086
20192TIP3    H182067   6.266   3.533   5.364 -1.2022 -0.2787  0.8456
20192TIP3    H282068   6.375   3.517   5.469  0.2607  0.6705 -0.5154
20193TIP3   OH282069   4.743   5.952  14.631  0.1704 -0.1018  0.7743
20193TIP3    H182070   4.794   5.983  14.556 -0.7598  0.5226  0.3983
20193TIP3    H282071   4.708   6.032  14.672 -0.0623 -0.4919  1.3531
20194TIP3   OH282072   2.658   3.797  13.829 -0.7679  0.4536 -0.2464
20194TIP3    H182073   2.700   3.784  13.915 -2.2446 -0.1610  0.3927
20194TIP3    H282074   2.728   3.782  13.766  0.1285  0.0461  0.8264
20195TIP3   OH282075   3.043   6.331  14.568 -0.3260  0.9188  0.0894
20195TIP3    H182076   3.062   6.311  14.477  0.1974  0.6699  0.2536
20195TIP3    H282077   3.086   6.262  14.618 -0.5291  1.1067  0.5297
20196TIP3   OH282078   5.615   0.943   6.059 -0.4081  0.1395 -0.0398
20196TIP3    H182079   5.657   0.982   6.136 -1.0526  0.5674  0.0949
20196TIP3    H282080   5.529   0.917   6.090 -0.4926 -0.1246 -0.4978
20197TIP3   OH282081   1.756   0.586   5.606 -0.4428 -0.0319  0.3558
20197TIP3    H182082   1.792   0.522   5.544 -0.3127 -0.4372  0.8480
20197TIP3    H282083   1.833   0.624   5.648 -0.5588 -0.3650  0.8754
20198TIP3   OH282084   3.706   4.911  11.933  0.2678 -0.2877  0.1779
20198TIP3    H182085   3.776   4.962  11.975  1.7651 -1.8652 -0.3549
20198TIP3    H282086   3.690   4.956  11.851  2.3421 -1.2360 -0.7861
20199TIP3   OH282087   3.158   5.311  15.711 -0.0537  0.5446  0.0044
20199TIP3    H182088   3.130   5.392  15.668 -1.1172  0.8169  1.1918
20199TIP3    H282089   3.097   5.300  15.784 -0.4972 -1.8014 -0.6716
20200TIP3   OH282090   1.429   2.629  11.344  0.2977 -0.3690  0.1459
20200TIP3    H182091   1.369   2.694  11.380  0.4175  0.7500 -1.6091
20200TIP3    H282092   1.372   2.566  11.300  0.3610  0.3081 -0.9131
20201TIP3   OH282093   2.326   3.785  12.334  0.1703 -0.6142  0.3094
20201TIP3    H182094   2.391   3.719  12.358  1.4742 -0.0880 -1.6820
20201TIP3    H282095   2.371   3.843  12.273 -1.7014  0.7001  0.1197
20202TIP3   OH282096   1.175   2.851  12.411 -0.7592  0.0414  0.0026
20202TIP3    H182097   1.225   2.785  12.460 -0.4512 -0.9983 -1.6882
20202TIP3    H282098   1.084   2.825  12.424 -0.6353 -0.8042 -0.7380
20203TIP3   OH282099   6.514   4.006   6.162 -0.0697 -0.5576  0.0975
20203TIP3    H182100   6.454   4.066   6.207 -0.1240 -0.7710  0.3081
20203TIP3    H282101   6.583   3.989   6.225 -0.5837 -1.5309  0.4090
20204TIP3   OH282102   5.737   2.721   2.135 -0.2433  0.9053 -0.1225
20204TIP3    H182103   5.687   2.710   2.216 -1.4368 -0.9856 -1.0651
20204TIP3    H282104   5.705   2.804   2.098 -1.2879  0.6877  0.2723
20205TIP3   OH282105   1.334   3.021   1.770  0.4610 -0.2272  0.4133
20205TIP3    H182106   1.307   3.052   1.684  1.0172 -1.5238 -0.2544
20205TIP3    H282107   1.295   2.933   1.777  0.1582 -0.0089  1.6129
20206TIP3   OH282108   4.393   4.253  11.205 -0.3846  0.6056 -0.1696
20206TIP3    H182109   4.307   4.257  11.247  0.1533  0.8186  0.9036
20206TIP3    H282110   4.444   4.323  11.246  1.3222 -1.5585  1.4558
20207TIP3   OH282111   0.974   2.743  13.738 -0.5608 -0.2180  0.0681
20207TIP3    H182112   1.005   2.715  13.824 -0.4331 -0.4449 -0.0510
20207TIP3    H282113   0.881   2.764  13.751 -0.2687  0.8448  0.5182
20208TIP3   OH282114   6.661   2.586  14.966 -1.0621  0.6245 -0.1803
20208TIP3    H182115   6.575   2.608  15.003 -2.2131 -0.7400 -1.9561
20208TIP3    H282116   6.693   2.515  15.021 -1.5121  0.4809 -0.1002
20209TIP3   OH282117   6.348   4.844  12.608 -0.1813 -0.7312 -0.6601
20209TIP3    H182118   6.387   4.796  12.535 -1.1103 -0.8610 -1.0692
20209TIP3    H282119   6.393   4.809  12.685 -1.7770 -3.2755 -0.8123
20210TIP3   OH282120   0.029   6.473  12.327  0.6967 -0.2214  0.9207
20210TIP3    H182121  -0.004   6.542  12.384  1.4837  1.0042 -0.0640
20210TIP3    H282122  -0.018   6.485  12.244  0.6317 -1.0497  0.8262
20211TIP3   OH282123   2.540   2.636   5.692 -0.0022 -0.0767 -0.6850
20211TIP3    H182124   2.516   2.636   5.599  0.7344 -1.9965 -0.9005
20211TIP3    H282125   2.471   2.584   5.734 -0.0916  0.4179 -0.2155
20212TIP3   OH282126   3.775   2.933  15.897  0.8100  0.0832  0.5939
20212TIP3    H182127   3.858   2.963  15.936  2.1852 -0.7373 -1.5696
20212TIP3    H282128   3.761   2.846  15.934  3.4456 -1.7749 -2.4784
20213TIP3   OH282129   0.271   4.209   1.591 -0.4016 -0.0576  0.1533
20213TIP3    H182130   0.283   4.114   1.589 -0.9533 -0.1170 -0.8099
20213TIP3    H282131   0.322   4.238   1.666 -1.0438 -1.2284  1.0592
20214TIP3   OH282132   1.023   2.648   4.453  0.0291 -0.9378  0.3639
20214TIP3    H182133   1.068   2.698   4.385  1.2815 -1.2817  0.9216
20214TIP3    H282134   0.991   2.715   4.514  1.0506 -0.7703  0.7226
20215TIP3   OH282135   6.074   3.807   1.957 -0.2103 -0.1038 -0.3226
20215TIP3    H182136   6.069   3.792   1.863 -0.6038  0.2041 -0.3513
20215TIP3    H282137   6.031   3.732   1.996 -1.3190  0.4604 -0.4363
20216TIP3   OH282138   0.423   6.517  14.658 -0.4059  0.1101 -0.0182
20216TIP3    H182139   0.333   6.509  14.627 -0.3476 -1.2563  0.0931
20216TIP3    H282140   0.418   6.493  14.751 -0.0813  0.9769  0.2201
20217TIP3   OH282141   5.869   2.529   2.611 -0.6131 -0.5064 -0.2033
20217TIP3    H182142   5.797   2.559   2.666 -2.0922 -1.2334 -1.7010
20217TIP3    H282143   5.927   2.482   2.671  0.0432  2.3955  1.5312
20218TIP3   OH282144   1.335   3.280  14.295  0.3012  0.5046  0.4706
20218TIP3    H182145   1.284   3.199  14.295  0.7669  0.2112 -0.0832
20218TIP3    H282146   1.393   3.273  14.370  1.6460 -0.5006 -0.6463
20219TIP3   OH282147   4.605   1.100   0.432 -0.2414  0.1761 -0.2191
20219TIP3    H182148   4.611   1.108   0.527 -0.1149  1.9783 -0.3506
20219TIP3    H282149   4.530   1.155   0.408  0.7360  1.0820 -1.2941
20220TIP3   OH282150   6.317   0.010   2.379 -0.4989 -0.2688 -0.4719
20220TIP3    H182151   6.257  -0.061   2.357  1.8651 -2.3363 -0.4532
20220TIP3    H282152   6.377  -0.027   2.443  1.8393  1.2004 -1.7228
20221TIP3   OH282153   3.920   0.246  13.058 -0.2485  0.2535  0.3891
20221TIP3    H182154   3.910   0.306  13.132 -2.8785 -0.3600  0.5783
20221TIP3    H282155   3.900   0.160  13.094 -0.6903 -0.1622 -0.8159
20222TIP3   OH282156   2.147   5.248  13.343 -0.0418 -0.0688  0.4421
20222TIP3    H182157   2.194   5.307  13.402 -0.9169  0.0357  1.0448
20222TIP3    H282158   2.102   5.307  13.282 -0.5396 -0.1126  0.7578
20223TIP3   OH282159   2.572   0.444   6.253  0.2418 -0.0764  0.3238
20223TIP3    H182160   2.593   0.410   6.339  1.1184  0.0440  0.1565
20223TIP3    H282161   2.485   0.409   6.234  0.4716 -0.9166  0.8226
20224TIP3   OH282162   6.481   6.263  13.132  0.2756 -0.7672  0.3687
20224TIP3    H182163   6.560   6.256  13.079 -1.2917  0.7653 -2.2672
20224TIP3    H282164   6.488   6.191  13.195  2.1239 -2.7842 -2.0279
20225TIP3   OH282165   3.782   2.296   2.216 -0.9083 -0.2633 -0.2239
20225TIP3    H182166   3.861   2.290   2.162  0.3022  1.2497  1.3316
20225TIP3    H282167   3.720   2.347   2.163  1.0371  3.1062  0.6330
20226TIP3   OH282168   5.155   3.316   4.071  0.2221  0.4919 -0.5379
20226TIP3    H182169   5.164   3.399   4.118  0.0992 -0.4088  1.1145
20226TIP3    H282170   5.235   3.309   4.020  0.8789  0.9823  0.4029
20227TIP3   OH282171   1.789   0.705  15.081  0.6215  0.0992  0.8354
20227TIP3    H182172   1.849   0.750  15.021 -0.0014  1.7971  1.4573
20227TIP3    H282173   1.847   0.662  15.144  1.2846 -1.7725 -0.9964
20228TIP3   OH282174   3.270   2.918  13.562  0.0400  0.7475 -0.2665
20228TIP3    H182175   3.317   2.991  13.602  0.0556  0.4798  0.2094
20228TIP3    H282176   3.211   2.960  13.499 -0.9154  1.2876  0.9526
20229TIP3   OH282177   4.067   0.788   2.021  0.4008 -0.1940  0.5556
20229TIP3    H182178   3.996   0.842   2.057  0.5092 -0.6589  1.5003
20229TIP3    H282179   4.023   0.715   1.978  0.2050  1.3806 -1.9921
20230TIP3   OH282180   1.280   2.397   5.280 -0.5371  0.0377  0.2632
20230TIP3    H182181   1.201   2.371   5.234 -2.1513  2.0651  1.8133
20230TIP3    H282182   1.343   2.419   5.211 -1.4259 -1.2000 -0.9660
20231TIP3   OH282183   1.166   4.899  17.156 -0.2864  0.7138  0.1734
20231TIP3    H182184   1.206   4.986  17.155 -1.6367  1.3813  1.5163
20231TIP3    H282185   1.094   4.905  17.094 -0.8272  0.7726  0.8062
20232TIP3   OH282186   2.535   0.028   5.116  0.0588  0.2181  0.2178
20232TIP3    H182187   2.493   0.057   5.197 -0.5976  1.0084 -0.3941
20232TIP3    H282188   2.519  -0.066   5.113 -1.7373  0.5074 -0.0226
20233TIP3   OH282189   0.251   2.545  12.649 -0.1408 -0.0541 -0.3299
20233TIP3    H182190   0.280   2.628  12.610 -1.9490  0.8622  0.2172
20233TIP3    H282191   0.174   2.569  12.701 -0.1793 -1.9480  0.5100
20234TIP3   OH282192   5.279   0.524  14.021  0.1627  0.4288  0.2698
20234TIP3    H182193   5.209   0.573  13.979 -0.7889 -0.3625  0.9199
20234TIP3    H282194   5.338   0.501  13.949 -0.5623  0.5668 -0.3741
20235TIP3   OH282195   4.646   2.005  16.222  0.1204  0.3180  0.1366
20235TIP3    H182196   4.689   1.961  16.149  0.2542  0.6859 -0.0100
20235TIP3    H282197   4.592   1.937  16.263  1.3900 -0.3251  0.7543
20236TIP3   OH282198   4.565   5.557   2.122 -0.4750  0.1858 -0.4270
20236TIP3    H182199   4.536   5.478   2.167 -1.0739  1.1790  0.9959
20236TIP3    H282200   4.653   5.536   2.090 -0.7139 -1.1134 -0.2448
20237TIP3   OH282201   3.056   4.399  13.468 -0.0016  0.0054  0.6844
20237TIP3    H182202   3.130   4.411  13.528 -0.8082 -0.6208  1.8240
20237TIP3    H282203   2.979   4.421  13.520 -0.7813 -1.3141  0.1296
20238TIP3   OH282204   3.277   5.397   5.510 -0.0254  0.2465 -0.1026
20238TIP3    H182205   3.288   5.392   5.605 -3.3449  0.6525  0.3596
20238TIP3    H282206   3.320   5.319   5.476  1.5424  0.3004  1.6716
20239TIP3   OH282207   1.557   6.281  13.764 -0.3471 -0.1125 -0.3245
20239TIP3    H182208   1.580   6.369  13.793 -0.5810  0.3280 -1.4594
20239TIP3    H282209   1.621   6.224  13.808  0.3132  0.7005 -0.2172
20240LIG     O182210   2.046   4.896  16.371 -0.1954 -0.3699 -0.0839
20240LIG     O282211   1.946   5.135  16.332  0.3898  0.9196 -0.3889
20240LIG     O382212   2.089   4.883  16.058  0.6573  0.5990 -0.2862
20240LIG     O482213   2.036   5.332  16.445 -0.0536  0.0271 -0.1458
20240LIG     O582214   2.113   5.203  16.102  0.3321 -0.4129  0.3890
20240LIG     O682215   2.144   5.496  16.071 -0.0239 -0.3710  0.6102
20240LIG     O782216   2.231   5.621  16.326 -0.5900  0.0060  0.1852
20240LIG     O882217   1.971   5.514  16.637 -0.4803  0.0084  0.0166
20240LIG     O982218   2.172   5.614  16.627  0.2175  0.7258  0.6611
20240LIG      N82219   1.675   4.634  16.567  0.3659  0.1076  0.1442
20240LIG     C182220   1.860   4.839  16.482  1.0953  0.4645 -0.4173
20240LIG     C282221   1.718   4.875  16.532 -0.4368 -0.5293  0.4204
20240LIG     C382222   1.972   4.944  16.487  0.5772 -0.6418  0.1573
20240LIG     C482223   1.626   4.762  16.501 -0.2853 -0.2649  0.2749
20240LIG     C582224   1.903   4.703  16.544  0.4083  0.9056  0.5372
20240LIG     C682225   1.851   4.793  16.342 -0.2782  0.0826 -0.0697
20240LIG     C782226   1.602   4.751  16.347 -0.2004 -0.2355 -0.3727
20240LIG     C882227   1.806   4.586  16.524 -0.1638 -0.0495  0.0235
20240LIG     C982228   1.910   5.081  16.462  0.1241  0.3833 -0.6660
20240LIG    C1082229   1.742   4.748  16.273  0.1518 -0.3169  0.5140
20240LIG    C1182230   1.674   5.005  16.481 -0.6256 -0.3801  0.3796
20240LIG    C1282231   1.958   4.846  16.275 -0.8660 -0.3226 -0.1794
20240LIG    C1382232   1.761   5.104  16.446 -0.3122 -0.3051  0.0368
20240LIG    C1482233   1.578   4.531  16.558  0.3315 -0.1137  0.2548
20240LIG    C1582234   1.748   4.746  16.133 -0.4959 -0.0451 -0.6080
20240LIG    C1682235   1.972   4.844  16.137  0.0858  0.1749 -0.1407
20240LIG    C1782236   1.857   4.798  16.067  0.3972 -0.4734 -0.4811
20240LIG    C1882237   2.057   5.232  16.341  0.0991  0.0962 -0.6483
20240LIG    C1982238   2.066   5.298  16.201 -0.2714  0.2073  0.1857
20240LIG    C2082239   2.156   5.422  16.200 -0.7952  0.0383 -0.5581
20240LIG    C2182240   2.132   5.518  16.322 -0.1042  0.5137  0.2021
20240LIG    C2282241   2.130   5.433  16.449 -0.1084  0.1470  0.0629
20240LIG    C2382242   2.101   5.528  16.578  0.5574 -0.4005  0.3508
20240LIG     H182243   1.734   4.884  16.642 -0.1466 -1.8010  0.4857
20240LIG     H282244   2.033   4.928  16.579 -1.5633  1.6953  2.0790
20240LIG     H382245   1.527   4.783  16.544 -0.9473 -0.1179 -1.2701
20240LIG     H482246   1.909   4.710  16.654 -4.0747 -1.5916  1.0812
20240LIG     H582247   2.003   4.665  16.515 -0.4058 -0.3250 -0.7163
20240LIG     H682248   1.546   4.833  16.297  0.7081  0.6572  0.0807
20240LIG     H782249   1.561   4.651  16.320  1.0132 -0.3873 -1.7643
20240LIG     H882250   1.817   4.555  16.418 -1.3067 -0.2126 -0.0504
20240LIG     H982251   1.838   4.500  16.588  0.0587  0.3681  0.4727
20240LIG    H1082252   1.924   5.151  16.546  0.9190  0.6208 -0.9980
20240LIG    H1182253   1.569   5.034  16.493 -0.9445 -0.7818 -1.3129
20240LIG    H1282254   1.712   5.203  16.439 -1.9229 -1.0025  0.9275
20240LIG    H1382255   1.617   4.436  16.601 -0.0010 -0.9808 -1.3283
20240LIG    H1482256   1.540   4.504  16.457 -0.8186 -0.6481  0.8263
20240LIG    H1582257   1.498   4.573  16.623  0.1569  0.4080 -0.2888
20240LIG    H1682258   1.664   4.716  16.072 -1.3383 -1.1701  1.0866
20240LIG    H1782259   1.843   4.808  15.960  2.2445 -0.9589 -0.7904
20240LIG    H1882260   2.146   5.173  16.371 -0.0316  1.5164  2.7353
20240LIG    H1982261   1.965   5.331  16.167 -0.1754 -0.0651 -0.3698
20240LIG    H2082262   2.262   5.389  16.203 -1.3533 -1.6847  1.7290
20240LIG    H2182263   2.166   4.894  16.113  1.2029 -0.6392 -0.7992
20240LIG    H2282264   2.035   5.570  16.302  0.9210  1.9319 -1.2447
20240LIG    H2382265   2.231   5.388  16.461  0.5585  1.5403 -0.2660
20240LIG    H2482266   2.075   5.116  16.117  2.1971 -1.4736 -0.8105
20240LIG    H2582267   2.202   5.454  16.007 -0.2998  1.8774 -1.1650
20240LIG    H2682268   2.194   5.681  16.261 -0.0159  1.6047  1.2928
20240LIG    H2782269   1.945   5.554  16.720 -0.1482 -2.9824  1.6571
   6.82013   6.82013  17.29240
